Title
82299
    1SAPS     N    1   2.358   4.626  11.061 -0.0405 -0.0007  0.4587
    1SAPS   HN1    2   2.453   4.662  11.081 -0.0712  0.8666 -0.8890
    1SAPS   HN2    3   2.328   4.646  10.963 -2.2039 -0.9722  0.8921
    1SAPS   HN3    4   2.289   4.682  11.117 -0.2718 -0.5929  0.7733
    1SAPS   C12    5   2.335   4.486  11.083  0.3683 -0.2919  1.0066
    1SAPS  H12A    6   2.380   4.427  11.005  0.2034  2.3330 -1.1860
    1SAPS   C13    7   2.392   4.431  11.219 -0.4805 -0.1789 -1.0282
    1SAPS  O13A    8   2.448   4.502  11.304 -0.5744 -0.0722 -0.1444
    1SAPS  O13B    9   2.366   4.308  11.244 -0.7642 -0.0228  0.4801
    1SAPS   C11   10   2.186   4.472  11.087  0.0306 -0.5911 -0.0936
    1SAPS  H11A   11   2.146   4.523  11.177 -0.0349  3.2844 -2.2257
    1SAPS  H11B   12   2.165   4.363  11.091  4.0245 -1.5538 -2.1139
    1SAPS     P   13   1.971   4.574  10.959  0.1195  0.1924 -0.5436
    1SAPS   O13   14   1.886   4.556  11.082 -0.3313 -0.6005  0.3907
    1SAPS   O14   15   1.986   4.706  10.894  0.0923 -0.0378  0.5645
    1SAPS   O12   16   2.117   4.526  10.973  0.4059  0.2875  0.3106
    1SAPS   O11   17   1.918   4.464  10.857 -0.4689 -0.1217 -0.4390
    1SAPS    C1   18   1.988   4.420  10.742  0.5280  0.0779 -0.7090
    1SAPS    HA   19   2.098   4.424  10.762  0.3273  1.0717  0.2621
    1SAPS    HB   20   1.958   4.315  10.719 -0.7942  0.7659 -2.1605
    1SAPS    C2   21   1.962   4.505  10.619 -0.4336 -0.6541 -0.3950
    1SAPS    HS   22   1.994   4.608  10.644  1.1994 -1.1511 -0.3372
    1SAPS   O21   23   1.824   4.490  10.582 -0.1179  1.1190 -0.2749
    1SAPS   C21   24   1.766   4.607  10.552  0.5854  0.0019 -0.8031
    1SAPS   O22   25   1.824   4.713  10.542 -0.2036 -0.5843 -0.1115
    1SAPS   C22   26   1.615   4.597  10.549 -0.5719 -0.0809  0.5113
    1SAPS   H2R   27   1.596   4.488  10.546  1.1553 -0.3824  0.1733
    1SAPS   H2S   28   1.566   4.640  10.638 -0.4513  0.0700  0.5047
    1SAPS    C3   29   2.043   4.470  10.489  0.3973  0.4527  0.0237
    1SAPS    HX   30   2.021   4.367  10.455  1.1901 -0.0073  0.8738
    1SAPS    HY   31   2.149   4.468  10.524 -0.2500 -1.2690  1.9351
    1SAPS   O31   32   2.021   4.568  10.382  0.0505 -0.2525  0.1716
    1SAPS   C31   33   2.113   4.567  10.277 -0.1351 -0.0841  0.1815
    1SAPS   O32   34   2.188   4.478  10.265 -0.1784  0.4051  0.3585
    1SAPS   C32   35   2.107   4.705  10.207 -0.5647  0.0457 -0.9994
    1SAPS   H2X   36   2.095   4.781  10.287  0.7568  1.4663 -2.1181
    1SAPS   H2Y   37   2.018   4.726  10.145  1.0241  2.4600 -2.5399
    1SAPS   C23   38   1.547   4.667  10.425 -0.3156 -0.4938 -0.7014
    1SAPS   H3R   39   1.438   4.645  10.423 -0.0569 -1.7127 -1.6239
    1SAPS   H3S   40   1.600   4.624  10.338 -0.0854 -0.6501 -0.4817
    1SAPS   C24   41   1.563   4.820  10.420 -0.4554 -0.2543  0.1743
    1SAPS   H4R   42   1.665   4.858  10.439 -0.9710  1.1712  0.1373
    1SAPS   H4S   43   1.506   4.861  10.506  0.2760 -0.6044  0.8343
    1SAPS   C25   44   1.501   4.886  10.304  0.0229 -0.9229 -0.3124
    1SAPS   H5R   45   1.395   4.914  10.313  0.4344  1.2480 -1.8564
    1SAPS   C26   46   1.562   4.921  10.190 -0.1170  0.1258  0.1776
    1SAPS   H6R   47   1.509   4.952  10.099  2.2965 -2.9154 -2.3678
    1SAPS   C27   48   1.708   4.905  10.157 -0.4010  0.0768  0.2605
    1SAPS   H7R   49   1.771   4.878  10.245  1.6404  0.5092 -1.0299
    1SAPS   H7S   50   1.741   5.003  10.116  1.2339  0.1674  1.7050
    1SAPS   C28   51   1.717   4.787  10.061  0.0941 -0.1165 -0.1886
    1SAPS   H8R   52   1.733   4.694  10.117  0.7017  0.7278  1.0764
    1SAPS   C29   53   1.690   4.793   9.927  0.1739 -0.3520  0.3709
    1SAPS   H9R   54   1.701   4.705   9.862 -0.2373  0.3851 -0.7166
    1SAPS  C210   55   1.656   4.919   9.855 -0.6992  0.4227 -0.4611
    1SAPS  H10R   56   1.705   5.001   9.911 -1.4684  0.5105  0.0828
    1SAPS  H10S   57   1.546   4.930   9.864 -0.7895 -0.6017 -0.1764
    1SAPS  C211   58   1.705   4.916   9.716  0.8679  0.3062  0.6387
    1SAPS  H11R   59   1.813   4.914   9.697  0.7985 -1.6095  0.3471
    1SAPS  C212   60   1.631   4.898   9.605 -0.2639 -0.3961 -0.6019
    1SAPS  H12R   61   1.686   4.885   9.510  1.2329  0.7636  0.0863
    1SAPS  C213   62   1.488   4.877   9.579 -0.3045 -0.7184  0.6223
    1SAPS  H13R   63   1.462   4.905   9.474  1.3008 -0.5984  0.2455
    1SAPS  H13S   64   1.421   4.931   9.649 -0.1208 -0.7611  0.8307
    1SAPS  C214   65   1.477   4.727   9.596 -0.4889  0.0740  0.3626
    1SAPS  H14R   66   1.473   4.687   9.699 -1.9741  0.7102  0.5714
    1SAPS  C215   67   1.453   4.631   9.501  0.3151 -0.6184  0.4862
    1SAPS  H15R   68   1.458   4.526   9.534  0.6675 -0.9868 -0.7265
    1SAPS  C216   69   1.430   4.649   9.355 -0.7294  0.3225 -0.3577
    1SAPS  H16R   70   1.483   4.570   9.297  2.3407  0.1302  2.5243
    1SAPS  H16S   71   1.453   4.748   9.310 -0.2142  0.2511 -0.2606
    1SAPS  C217   72   1.283   4.616   9.346 -0.4331 -0.8150 -0.5402
    1SAPS  H17R   73   1.227   4.680   9.417  1.0684 -0.1833  0.1115
    1SAPS  H17S   74   1.262   4.510   9.372  1.0948 -1.2084 -0.8467
    1SAPS  C218   75   1.234   4.617   9.200 -0.0118  0.9526  0.1811
    1SAPS  H18R   76   1.134   4.570   9.193  0.8420 -0.6450 -1.7099
    1SAPS  H18S   77   1.291   4.542   9.142 -0.1150  2.3508 -1.7705
    1SAPS  C219   78   1.235   4.748   9.128 -1.1644  0.1283  0.1857
    1SAPS  H19R   79   1.243   4.742   9.018 -1.1419  1.7743  0.0786
    1SAPS  H19S   80   1.318   4.817   9.156  0.5023 -1.3682 -0.9667
    1SAPS  C220   81   1.104   4.826   9.168 -0.8233  0.2028 -0.5895
    1SAPS  H20R   82   1.019   4.767   9.128 -1.3754 -0.0128  0.8731
    1SAPS  H20S   83   1.108   4.925   9.118 -1.1906 -0.3996 -1.8165
    1SAPS  H20T   84   1.083   4.843   9.276 -2.0937 -1.6252 -0.5424
    1SAPS   C33   85   2.224   4.721  10.106  0.1254  0.3515  0.8701
    1SAPS   H3X   86   2.315   4.684  10.158  0.2739 -0.7596 -0.1389
    1SAPS   H3Y   87   2.243   4.830  10.103  1.6714  0.0532 -0.4838
    1SAPS   C34   88   2.209   4.645   9.964 -0.6530 -0.0822  0.0641
    1SAPS   H4X   89   2.194   4.536   9.971 -0.4782 -0.1342 -0.3388
    1SAPS   H4Y   90   2.313   4.653   9.924 -0.8113 -3.6836 -1.1857
    1SAPS   C35   91   2.109   4.712   9.861 -0.3772  0.0682 -0.3433
    1SAPS   H5X   92   2.121   4.821   9.844 -2.1901  0.5607  1.3655
    1SAPS   H5Y   93   2.006   4.702   9.901  0.3337  0.7394  1.6918
    1SAPS   C36   94   2.106   4.647   9.723 -0.1647 -0.3546  0.3200
    1SAPS   H6X   95   2.068   4.543   9.734 -2.2669  0.0934 -2.1057
    1SAPS   H6Y   96   2.206   4.641   9.674  0.5681  1.0530  1.6287
    1SAPS   C37   97   2.009   4.714   9.626 -1.0714  0.1397  0.2655
    1SAPS   H7X   98   2.049   4.818   9.616 -0.1644 -0.1555  0.7720
    1SAPS   H7Y   99   1.912   4.708   9.679 -1.1311  1.4522  0.3326
    1SAPS   C38  100   2.000   4.634   9.490  0.7017  0.0090  0.3092
    1SAPS   H8X  101   1.945   4.541   9.516 -1.7236  1.6519  1.2318
    1SAPS   H8Y  102   2.105   4.615   9.457  0.0716 -1.9094 -0.6527
    1SAPS   C39  103   1.921   4.716   9.386  0.1296  0.0219  0.3784
    1SAPS   H9X  104   1.964   4.814   9.355 -2.5156  1.3102  0.6433
    1SAPS   H9Y  105   1.828   4.745   9.440  1.3276  3.1908  0.8340
    1SAPS  C310  106   1.897   4.640   9.262  0.2259 -0.7208 -0.1441
    1SAPS  H10X  107   1.863   4.539   9.294  0.9308 -0.6041  1.0050
    1SAPS  H10Y  108   1.988   4.623   9.200 -0.4896 -1.9417 -0.8739
    1SAPS  C311  109   1.777   4.703   9.185 -0.3742  0.3925 -0.3104
    1SAPS  H11X  110   1.682   4.705   9.242  0.4915  0.7346  1.1256
    1SAPS  H11Y  111   1.752   4.626   9.109 -0.7345  0.4393 -0.2416
    1SAPS  C312  112   1.808   4.852   9.144  0.1143  0.2581  0.1540
    1SAPS  H12X  113   1.915   4.871   9.125  0.0696  0.2677 -0.0859
    1SAPS  H12Y  114   1.780   4.909   9.235  2.0561  1.8118 -0.1958
    1SAPS  C313  115   1.719   4.896   9.026  0.6252  0.1474 -0.3705
    1SAPS  H13X  116   1.737   4.827   8.941 -0.2106  1.0018 -1.2475
    1SAPS  H13Y  117   1.746   5.001   8.999  2.2073  0.0777  0.8270
    1SAPS  C314  118   1.569   4.897   9.061 -0.4476  0.7141  0.0190
    1SAPS  H14X  119   1.551   4.962   9.149 -0.9796  3.7303 -2.2305
    1SAPS  H14Y  120   1.545   4.793   9.091  0.6803  0.8821  1.5459
    1SAPS  C315  121   1.481   4.946   8.947 -0.0356 -0.0933 -0.1496
    1SAPS  H15X  122   1.509   5.043   8.902  0.4594 -0.0167  0.3213
    1SAPS  H15Y  123   1.380   4.955   8.993  0.3220  0.8856  0.4481
    1SAPS  C316  124   1.463   4.853   8.828 -0.2863  0.5343 -0.4697
    1SAPS  H16X  125   1.468   4.747   8.861 -0.2447  1.2206  1.8216
    1SAPS  H16Y  126   1.543   4.872   8.754  0.3937  2.0730  0.6397
    1SAPS  C317  127   1.338   4.869   8.749 -0.5148  0.0356 -0.3627
    1SAPS  H17X  128   1.342   4.971   8.704  1.5450  1.5851  3.1387
    1SAPS  H17Y  129   1.246   4.869   8.811  0.1306  0.1941  0.6075
    1SAPS  C318  130   1.319   4.760   8.644 -0.1937  0.4470  0.0096
    1SAPS  H18X  131   1.252   4.780   8.558  2.7588 -1.9227 -2.9592
    1SAPS  H18Y  132   1.273   4.676   8.701 -0.0196  0.1074 -0.3452
    1SAPS  H18Z  133   1.414   4.718   8.605 -1.3259  0.1341 -2.5319
    2SAPS     N  134   0.732   4.888  11.001 -1.0657 -0.5300  0.6495
    2SAPS   HN1  135   0.747   4.798  10.953  0.4289 -0.7918  1.5645
    2SAPS   HN2  136   0.721   4.960  10.927 -0.1305 -1.1016 -0.0468
    2SAPS   HN3  137   0.816   4.910  11.059 -1.2373 -0.4413  0.8671
    2SAPS   C12  138   0.613   4.879  11.089 -0.2442 -0.7455 -1.0910
    2SAPS  H12A  139   0.628   4.798  11.158 -1.2190  0.7626  0.9505
    2SAPS   C13  140   0.603   5.001  11.184  0.2268  0.5244 -0.2374
    2SAPS  O13A  141   0.693   5.094  11.176 -0.2105 -0.1710  0.0948
    2SAPS  O13B  142   0.509   5.001  11.272  0.7667  0.0944 -0.1458
    2SAPS   C11  143   0.482   4.870  11.009 -0.1986  0.1310  0.6220
    2SAPS  H11A  144   0.450   4.965  10.962  0.4690  0.0587  0.0027
    2SAPS  H11B  145   0.400   4.844  11.078 -0.6142  0.7839  0.3720
    2SAPS     P  146   0.380   4.691  10.865  0.0950  0.0755  0.3979
    2SAPS   O13  147   0.385   4.556  10.922 -0.6901 -0.1234  0.6135
    2SAPS   O14  148   0.253   4.763  10.898  0.5082 -0.2540 -0.0059
    2SAPS   O12  149   0.499   4.776  10.905  0.0283 -0.3713  0.7726
    2SAPS   O11  150   0.391   4.678  10.710  0.6571  0.8181 -0.1047
    2SAPS    C1  151   0.503   4.618  10.645  0.0393  0.1709  0.1690
    2SAPS    HA  152   0.578   4.567  10.710  1.0289  0.8675 -0.4158
    2SAPS    HB  153   0.468   4.544  10.569 -0.8508 -0.2756  1.0054
    2SAPS    C2  154   0.589   4.729  10.570 -0.1523  0.5416  0.9915
    2SAPS    HS  155   0.607   4.810  10.643 -1.1304  1.4998  0.1677
    2SAPS   O21  156   0.511   4.767  10.454  0.2647 -0.0433  0.0950
    2SAPS   C21  157   0.548   4.882  10.408 -0.2664 -0.4731 -0.0858
    2SAPS   O22  158   0.628   4.955  10.467 -0.0512 -0.4012  0.3633
    2SAPS   C22  159   0.484   4.917  10.266 -0.5849 -0.2399  0.3767
    2SAPS   H2R  160   0.506   4.837  10.192  1.7074 -1.8343  2.6876
    2SAPS   H2S  161   0.375   4.925  10.286  0.0809  1.6446  3.6150
    2SAPS    C3  162   0.739   4.678  10.528  0.5163 -0.3038  1.1638
    2SAPS    HX  163   0.789   4.644  10.621  0.9095 -3.6363 -0.1854
    2SAPS    HY  164   0.789   4.772  10.496  1.0597 -0.5994  1.1300
    2SAPS   O31  165   0.734   4.578  10.431  0.6530 -1.1476  0.6172
    2SAPS   C31  166   0.749   4.454  10.465 -1.1676 -0.2569 -0.0411
    2SAPS   O32  167   0.754   4.412  10.582  0.2250 -0.3172 -0.1448
    2SAPS   C32  168   0.766   4.362  10.340 -0.1994 -0.5852  0.4151
    2SAPS   H2X  169   0.691   4.281  10.355 -1.2928  0.2955 -0.2405
    2SAPS   H2Y  170   0.869   4.323  10.350 -0.0827 -0.3666  0.0804
    2SAPS   C23  171   0.537   5.054  10.218 -0.7662 -0.3815  0.6698
    2SAPS   H3R  172   0.513   5.122  10.303 -1.0893  2.2709 -1.4667
    2SAPS   H3S  173   0.466   5.093  10.142  1.3016  1.6397 -0.2963
    2SAPS   C24  174   0.684   5.063  10.173  0.1066  0.0348 -0.3899
    2SAPS   H4R  175   0.756   5.069  10.258 -0.6027  3.0724  0.0715
    2SAPS   H4S  176   0.696   5.161  10.122 -1.2521  0.2936 -0.2310
    2SAPS   C25  177   0.714   4.951  10.075 -0.3799 -0.0542 -1.2537
    2SAPS   H5R  178   0.727   4.855  10.127 -0.2155  0.0696 -1.0653
    2SAPS   C26  179   0.742   4.961   9.944  0.7739  0.2311 -0.0028
    2SAPS   H6R  180   0.770   4.869   9.891 -2.3905 -0.9971  0.3183
    2SAPS   C27  181   0.757   5.095   9.867  0.0247  0.1665  0.1506
    2SAPS   H7R  182   0.863   5.088   9.833 -0.0280 -0.0901  0.0351
    2SAPS   H7S  183   0.754   5.187   9.928 -0.3789  0.3047 -0.0758
    2SAPS   C28  184   0.647   5.107   9.758 -0.3380 -0.7366  0.3075
    2SAPS   H8R  185   0.551   5.089   9.809  1.3265  0.3137  3.9538
    2SAPS   C29  186   0.669   5.105   9.624  0.1952  0.0213 -0.3340
    2SAPS   H9R  187   0.577   5.123   9.567 -0.9380 -1.1856  1.0942
    2SAPS  C210  188   0.793   5.097   9.543  0.1601 -0.3206  0.4966
    2SAPS  H10R  189   0.882   5.146   9.588 -0.1866 -1.7271  2.7996
    2SAPS  H10S  190   0.769   5.157   9.452  1.8286  1.1879  1.0127
    2SAPS  C211  191   0.836   4.958   9.508 -0.6400 -0.0316 -0.1453
    2SAPS  H11R  192   0.895   4.907   9.584  1.5185  2.3151 -0.1708
    2SAPS  C212  193   0.809   4.886   9.397  0.6102 -0.5391 -0.6757
    2SAPS  H12R  194   0.828   4.778   9.391  0.6172 -0.5679 -0.2148
    2SAPS  C213  195   0.722   4.933   9.284  0.2603 -0.3140  0.2476
    2SAPS  H13R  196   0.626   4.954   9.335 -0.2459  0.0831 -0.8525
    2SAPS  H13S  197   0.706   4.849   9.213 -0.7260  0.0373  0.0478
    2SAPS  C214  198   0.774   5.055   9.201 -0.6970 -0.2040  0.0430
    2SAPS  H14R  199   0.831   5.137   9.247 -2.1592 -0.8322  3.1582
    2SAPS  C215  200   0.748   5.065   9.070 -0.5042 -0.1540  0.3975
    2SAPS  H15R  201   0.769   5.152   9.006  2.3901 -1.7496 -0.9316
    2SAPS  C216  202   0.658   4.958   8.994 -0.6154 -0.0060 -0.4362
    2SAPS  H16R  203   0.603   5.002   8.908 -0.2500 -0.1853 -0.7639
    2SAPS  H16S  204   0.578   4.932   9.066 -1.2868  2.4760 -0.2248
    2SAPS  C217  205   0.727   4.825   8.947 -0.5224  0.0791  0.1571
    2SAPS  H17R  206   0.648   4.747   8.959 -1.5075  0.7602 -1.7887
    2SAPS  H17S  207   0.809   4.797   9.017 -1.2560  1.1172  1.4603
    2SAPS  C218  208   0.782   4.839   8.804  0.3324 -0.1328 -0.7029
    2SAPS  H18R  209   0.707   4.883   8.735 -1.1846  2.6341  2.5785
    2SAPS  H18S  210   0.780   4.731   8.776  0.9546 -0.3292  0.0017
    2SAPS  C219  211   0.915   4.913   8.801  0.2017  0.6439 -0.1205
    2SAPS  H19R  212   0.989   4.858   8.865 -0.9053 -1.6449 -0.7539
    2SAPS  H19S  213   0.911   5.019   8.833 -1.7873 -0.5159  3.8305
    2SAPS  C220  214   0.981   4.926   8.666 -0.3894  0.1317 -0.2477
    2SAPS  H20R  215   0.900   4.928   8.590 -0.3882 -0.4080 -0.2672
    2SAPS  H20S  216   1.042   4.834   8.648 -0.7183  0.0714 -1.0908
    2SAPS  H20T  217   1.057   5.007   8.662 -0.6174  0.3824  0.5653
    2SAPS   C33  218   0.760   4.423  10.194  0.2511  0.1620 -0.1717
    2SAPS   H3X  219   0.846   4.490  10.172 -0.9409  1.5254 -0.7721
    2SAPS   H3Y  220   0.669   4.486  10.186 -0.5420 -0.9154  0.2437
    2SAPS   C34  221   0.745   4.314  10.086 -1.0508 -0.5494 -0.1535
    2SAPS   H4X  222   0.690   4.232  10.138  0.1432  0.5397  2.9676
    2SAPS   H4Y  223   0.844   4.272  10.058 -0.2833  1.4696 -0.5667
    2SAPS   C35  224   0.658   4.343   9.969 -0.9323 -0.1522 -0.5956
    2SAPS   H5X  225   0.714   4.420   9.913  2.0079  1.0239  3.6499
    2SAPS   H5Y  226   0.564   4.382  10.013 -1.2906 -1.4418 -0.1782
    2SAPS   C36  227   0.624   4.216   9.884  0.1684 -0.6357 -0.4087
    2SAPS   H6X  228   0.567   4.253   9.796  0.6396 -1.2076 -0.9616
    2SAPS   H6Y  229   0.564   4.148   9.948  0.2580 -1.0274 -0.7389
    2SAPS   C37  230   0.739   4.145   9.816 -0.4622  0.4178 -0.7577
    2SAPS   H7X  231   0.791   4.068   9.877 -1.1033  1.5035  1.2017
    2SAPS   H7Y  232   0.821   4.216   9.791  0.7800 -0.0151  1.8263
    2SAPS   C38  233   0.704   4.059   9.692 -0.0926  0.0413  0.1167
    2SAPS   H8X  234   0.652   3.966   9.725  1.2551 -1.8963 -2.9637
    2SAPS   H8Y  235   0.796   4.029   9.637 -0.2578  2.1976 -1.4000
    2SAPS   C39  236   0.620   4.130   9.583 -0.3326  0.4207  0.0210
    2SAPS   H9X  237   0.668   4.229   9.566 -0.7379  0.4726 -0.8935
    2SAPS   H9Y  238   0.518   4.152   9.621 -0.8702 -2.6520  0.4454
    2SAPS  C310  239   0.635   4.044   9.454  0.0862 -0.5959  0.0290
    2SAPS  H10X  240   0.606   3.938   9.472 -1.2331 -0.1063  0.9357
    2SAPS  H10Y  241   0.741   4.048   9.424  0.2143 -0.5156  0.4860
    2SAPS  C311  242   0.551   4.097   9.336 -0.1618 -0.8633 -0.3576
    2SAPS  H11X  243   0.586   4.200   9.312 -1.6862 -0.1687  0.3183
    2SAPS  H11Y  244   0.452   4.111   9.382 -1.2238 -2.5485 -2.0624
    2SAPS  C312  245   0.543   4.012   9.209 -0.5943  0.3293 -0.4038
    2SAPS  H12X  246   0.490   3.920   9.241 -0.3819  1.4109  3.3370
    2SAPS  H12Y  247   0.651   3.999   9.185 -0.7456  0.8025 -1.3920
    2SAPS  C313  248   0.462   4.081   9.096  0.3812  0.2852  0.2474
    2SAPS  H13X  249   0.489   4.188   9.081 -2.4523  0.6215 -3.2558
    2SAPS  H13Y  250   0.354   4.075   9.121  0.1843  0.6745 -0.5032
    2SAPS  C314  251   0.476   4.007   8.961  0.8704  0.1213 -0.7498
    2SAPS  H14X  252   0.427   3.910   8.981 -0.9676  0.5152 -3.0805
    2SAPS  H14Y  253   0.581   3.975   8.950 -0.0861 -3.3841 -0.0862
    2SAPS  C315  254   0.427   4.082   8.834  0.5697  0.0540  0.9870
    2SAPS  H15X  255   0.426   4.191   8.853 -0.8093  0.4128 -0.9935
    2SAPS  H15Y  256   0.322   4.047   8.823 -0.0104  1.3886  2.2007
    2SAPS  C316  257   0.517   4.060   8.718 -0.2952 -0.3533  0.8841
    2SAPS  H16X  258   0.478   3.982   8.650  1.4850  0.5101 -1.1739
    2SAPS  H16Y  259   0.623   4.036   8.742  0.2980  1.1886 -0.1466
    2SAPS  C317  260   0.521   4.181   8.617  0.4846  0.0912 -0.1719
    2SAPS  H17X  261   0.580   4.144   8.530  0.8421  1.8616 -0.6971
    2SAPS  H17Y  262   0.575   4.268   8.659 -1.6214  0.6738  1.4086
    2SAPS  C318  263   0.383   4.226   8.568 -0.4241  0.3905  0.3834
    2SAPS  H18X  264   0.325   4.134   8.546 -0.1594  0.5195 -0.8792
    2SAPS  H18Y  265   0.397   4.292   8.480 -1.6563  2.8619  1.9780
    2SAPS  H18Z  266   0.326   4.270   8.653 -2.3263 -0.0142 -0.6578
    3SAPS     N  267   1.352   6.211  11.162 -0.1346  0.5236 -0.2312
    3SAPS   HN1  268   1.389   6.200  11.066 -1.3307 -0.9761 -0.5270
    3SAPS   HN2  269   1.424   6.217  11.238 -1.2142 -0.7233  0.9195
    3SAPS   HN3  270   1.290   6.130  11.180 -0.9870  1.6359  2.0971
    3SAPS   C12  271   1.255   6.322  11.162 -0.2506 -0.3541 -0.1014
    3SAPS  H12A  272   1.176   6.293  11.094  1.6187 -3.4879 -1.0168
    3SAPS   C13  273   1.181   6.355  11.293  0.2319  0.5216 -0.1742
    3SAPS  O13A  274   1.213   6.291  11.397 -0.7626 -0.9854 -0.0083
    3SAPS  O13B  275   1.093   6.446  11.290 -0.2848  0.1453  0.2833
    3SAPS   C11  276   1.340   6.448  11.128 -0.5214 -0.0329  0.5216
    3SAPS  H11A  277   1.400   6.478  11.217  1.3430  2.8055 -1.6142
    3SAPS  H11B  278   1.258   6.517  11.099 -0.1610 -0.7692 -2.4634
    3SAPS     P  279   1.513   6.540  10.953 -0.1029 -0.2836 -0.4923
    3SAPS   O13  280   1.450   6.670  10.979 -0.5325 -0.1542 -0.7635
    3SAPS   O14  281   1.653   6.529  11.000  0.7606  0.1965  0.0894
    3SAPS   O12  282   1.421   6.423  11.011  0.5473  0.1929 -0.2798
    3SAPS   O11  283   1.517   6.518  10.794  0.0102 -0.2886  0.0290
    3SAPS    C1  284   1.432   6.421  10.736 -0.1450  0.1907 -0.1855
    3SAPS    HA  285   1.472   6.321  10.761  0.4678  0.9997  2.2908
    3SAPS    HB  286   1.328   6.431  10.774 -0.9488 -2.5096 -1.5911
    3SAPS    C2  287   1.418   6.437  10.581 -1.0242  0.3924 -0.4354
    3SAPS    HS  288   1.518   6.405  10.544 -0.6992 -0.6287  1.2474
    3SAPS   O21  289   1.383   6.581  10.560  0.2545 -0.0731  0.6678
    3SAPS   C21  290   1.450   6.617  10.445  0.2728  0.2121 -0.3132
    3SAPS   O22  291   1.492   6.537  10.367  0.6787  0.7526  0.1239
    3SAPS   C22  292   1.474   6.768  10.449  0.1209 -0.0494  0.1245
    3SAPS   H2R  293   1.374   6.805  10.478  0.1816 -0.6592  1.1552
    3SAPS   H2S  294   1.537   6.781  10.540  0.7582  0.3172 -0.3579
    3SAPS    C3  295   1.311   6.340  10.529  0.3697 -0.1984  0.6075
    3SAPS    HX  296   1.217   6.384  10.567  0.5804  0.1629  0.7087
    3SAPS    HY  297   1.320   6.240  10.578 -2.4531  0.4068  2.4763
    3SAPS   O31  298   1.292   6.332  10.384  0.4081  0.5705 -0.0169
    3SAPS   C31  299   1.392   6.289  10.307  0.1790  0.5796  0.4428
    3SAPS   O32  300   1.489   6.230  10.355  0.1652  0.8071 -0.0847
    3SAPS   C32  301   1.368   6.312  10.162  0.0733  0.2431 -0.0594
    3SAPS   H2X  302   1.366   6.422  10.145  0.8078 -0.0480 -2.1869
    3SAPS   H2Y  303   1.274   6.272  10.118  0.4312 -1.1456  0.4379
    3SAPS   C23  304   1.535   6.842  10.323 -0.3323 -0.2751  0.3547
    3SAPS   H3R  305   1.643   6.817  10.317  0.7121  3.8265  0.5167
    3SAPS   H3S  306   1.537   6.948  10.356  0.2305 -0.0507 -0.3812
    3SAPS   C24  307   1.446   6.838  10.199 -0.3273  0.0038  0.6631
    3SAPS   H4R  308   1.341   6.872  10.211 -0.5876 -0.7843  0.6922
    3SAPS   H4S  309   1.433   6.734  10.162  1.6773  0.2037 -0.6355
    3SAPS   C25  310   1.536   6.902  10.099  0.6988 -0.5736  0.5727
    3SAPS   H5R  311   1.635   6.927  10.139  1.3692 -2.2633  0.0202
    3SAPS   C26  312   1.508   6.916   9.968  0.9093  0.0765  1.0337
    3SAPS   H6R  313   1.571   6.970   9.896  0.7551 -0.5514  0.4222
    3SAPS   C27  314   1.381   6.872   9.908  0.0415  0.6148  0.1920
    3SAPS   H7R  315   1.303   6.932   9.958  2.1141  2.5162  1.2252
    3SAPS   H7S  316   1.359   6.766   9.933  0.9606 -0.1958 -2.2699
    3SAPS   C28  317   1.361   6.900   9.760  0.4339  0.2996  0.3901
    3SAPS   H8R  318   1.278   6.972   9.749 -1.3400 -1.5971  1.1549
    3SAPS   C29  319   1.411   6.845   9.645 -0.1012  0.2170  0.6291
    3SAPS   H9R  320   1.389   6.896   9.551  0.2941 -0.7871 -0.0204
    3SAPS  C210  321   1.520   6.743   9.631  0.5337  0.7668 -0.0455
    3SAPS  H10R  322   1.549   6.722   9.737 -2.2219  1.6008  0.9094
    3SAPS  H10S  323   1.609   6.783   9.578  1.4121 -1.2161 -0.0878
    3SAPS  C211  324   1.458   6.620   9.566 -0.3342  0.1092  0.4795
    3SAPS  H11R  325   1.387   6.570   9.634 -0.2493  0.2295  0.6540
    3SAPS  C212  326   1.487   6.559   9.450 -0.4225 -0.2560 -0.5022
    3SAPS  H12R  327   1.437   6.466   9.420  2.7350 -2.4530  0.8079
    3SAPS  C213  328   1.588   6.608   9.347  0.2379 -0.0816  0.6940
    3SAPS  H13R  329   1.652   6.522   9.319 -1.2451 -0.9257 -0.2029
    3SAPS  H13S  330   1.664   6.670   9.400 -1.5364  2.5320  0.2919
    3SAPS  C214  331   1.542   6.680   9.230 -0.1406  0.0815  0.4667
    3SAPS  H14R  332   1.492   6.769   9.272  0.1082 -0.3694  1.7314
    3SAPS  C215  333   1.560   6.667   9.100  0.0141  0.7108 -0.4799
    3SAPS  H15R  334   1.523   6.745   9.033 -0.7208  2.1968  1.6148
    3SAPS  C216  335   1.651   6.560   9.037 -0.0962  0.0575 -0.8363
    3SAPS  H16R  336   1.611   6.457   9.040 -3.1512  1.1754 -1.8768
    3SAPS  H16S  337   1.743   6.556   9.101 -1.3017 -1.4535  0.8442
    3SAPS  C217  338   1.692   6.593   8.890 -0.2544  1.0196  0.2451
    3SAPS  H17R  339   1.772   6.525   8.852  1.6367  4.1861 -1.7167
    3SAPS  H17S  340   1.747   6.690   8.881  0.4071  0.6594  0.4010
    3SAPS  C218  341   1.575   6.604   8.793 -0.4322 -0.2463 -0.3001
    3SAPS  H18R  342   1.508   6.685   8.828  0.6508  0.3333  0.4792
    3SAPS  H18S  343   1.514   6.512   8.802 -0.0080 -0.4781  0.2788
    3SAPS  C219  344   1.618   6.624   8.645 -0.5865 -0.1037  0.1687
    3SAPS  H19R  345   1.682   6.715   8.639 -1.7154  0.6828 -0.2857
    3SAPS  H19S  346   1.525   6.641   8.586  0.9506  1.8323 -1.7663
    3SAPS  C220  347   1.701   6.512   8.584 -0.2358  0.5292  0.3790
    3SAPS  H20R  348   1.754   6.541   8.491 -0.8895  0.1054 -0.1302
    3SAPS  H20S  349   1.637   6.424   8.562 -1.7597  1.7389 -0.0910
    3SAPS  H20T  350   1.784   6.483   8.652 -0.8044 -0.0274  0.8539
    3SAPS   C33  351   1.478   6.246  10.077  0.8560  0.1391 -0.0575
    3SAPS   H3X  352   1.472   6.135  10.087  2.0302 -0.0477 -1.2951
    3SAPS   H3Y  353   1.581   6.262  10.113  0.4033 -1.8217  2.2803
    3SAPS   C34  354   1.461   6.283   9.927 -0.7104 -0.3566  0.6573
    3SAPS   H4X  355   1.468   6.393   9.911  0.2044 -0.4619  0.2810
    3SAPS   H4Y  356   1.358   6.253   9.902 -0.8525  1.7168 -1.3948
    3SAPS   C35  357   1.582   6.217   9.851  0.5349  0.8135 -0.2920
    3SAPS   H5X  358   1.584   6.107   9.866  0.1669  0.8883  0.2978
    3SAPS   H5Y  359   1.679   6.255   9.890  1.1673 -1.2757  0.2670
    3SAPS   C36  360   1.563   6.246   9.705  0.3292 -0.1854  0.1174
    3SAPS   H6X  361   1.547   6.355   9.700 -0.1315 -0.3602 -3.6203
    3SAPS   H6Y  362   1.473   6.194   9.665  1.8490 -2.4556 -0.4232
    3SAPS   C37  363   1.685   6.196   9.633  0.2039  0.0392  0.1778
    3SAPS   H7X  364   1.681   6.085   9.644 -0.3509 -0.3110 -3.2221
    3SAPS   H7Y  365   1.784   6.233   9.669  0.2709  0.9917 -0.9525
    3SAPS   C38  366   1.664   6.230   9.486  1.0719  0.0684  0.2079
    3SAPS   H8X  367   1.676   6.340   9.475 -1.8056  0.1752 -2.6567
    3SAPS   H8Y  368   1.568   6.189   9.449  1.3309  1.2894 -1.8553
    3SAPS   C39  369   1.761   6.172   9.384  0.2354  0.2271  0.3435
    3SAPS   H9X  370   1.751   6.063   9.399 -3.1040  0.4316 -0.1667
    3SAPS   H9Y  371   1.863   6.215   9.398  0.4532  0.0421 -0.6779
    3SAPS  C310  372   1.723   6.208   9.241 -0.0025 -0.9115  0.5497
    3SAPS  H10X  373   1.810   6.262   9.198  0.5094  0.2695  3.0096
    3SAPS  H10Y  374   1.638   6.279   9.244  0.7961  0.0045  1.7492
    3SAPS  C311  375   1.688   6.092   9.150  0.5599 -0.4459 -0.4591
    3SAPS  H11X  376   1.605   6.032   9.195  0.4979 -0.3190 -0.4060
    3SAPS  H11Y  377   1.780   6.030   9.155 -0.3629 -1.9459 -1.5046
    3SAPS  C312  378   1.656   6.127   9.009  0.0989  0.3720  0.5072
    3SAPS  H12X  379   1.747   6.174   8.964 -0.1759  0.6998  0.2873
    3SAPS  H12Y  380   1.572   6.196   8.983 -0.3620  0.1796  1.4702
    3SAPS  C313  381   1.634   5.998   8.920 -0.6857  0.5538  0.2157
    3SAPS  H13X  382   1.717   5.929   8.948 -1.2698 -0.0716  0.4296
    3SAPS  H13Y  383   1.649   6.030   8.814  2.8611  1.1531  0.8397
    3SAPS  C314  384   1.502   5.922   8.937 -0.5355 -1.1897 -0.9826
    3SAPS  H14X  385   1.426   5.998   8.964  1.3447 -0.2067  1.7352
    3SAPS  H14Y  386   1.507   5.859   9.028  2.8772  1.3699  0.6997
    3SAPS  C315  387   1.439   5.852   8.819  0.0517 -0.1761 -0.4073
    3SAPS  H15X  388   1.339   5.806   8.832 -0.9233  2.0683  0.2740
    3SAPS  H15Y  389   1.502   5.760   8.824 -1.3949 -1.1214  0.8950
    3SAPS  C316  390   1.456   5.909   8.677 -0.3906  0.7366  0.6664
    3SAPS  H16X  391   1.413   5.835   8.606 -0.3394 -1.6915  3.0970
    3SAPS  H16Y  392   1.565   5.904   8.659 -0.3613  0.0765  1.0285
    3SAPS  C317  393   1.396   6.048   8.664  0.0950  0.6190  0.3302
    3SAPS  H17X  394   1.437   6.113   8.744 -2.0883  1.0236  1.1412
    3SAPS  H17Y  395   1.287   6.062   8.678 -0.0619 -0.0087 -0.2573
    3SAPS  C318  396   1.431   6.110   8.524  0.3826 -0.5733  0.2932
    3SAPS  H18X  397   1.377   6.207   8.522  1.2782 -0.0864 -0.3407
    3SAPS  H18Y  398   1.382   6.045   8.447  0.5487  0.4397 -0.6801
    3SAPS  H18Z  399   1.537   6.125   8.496  0.6864 -0.7098  1.3869
    4SAPS     N  400   3.422   0.020  10.803  0.1361  0.7663 -0.4672
    4SAPS   HN1  401   3.425  -0.006  10.904  0.7431  1.5102 -0.2821
    4SAPS   HN2  402   3.323   0.030  10.774  0.1722  1.3576 -0.4092
    4SAPS   HN3  403   3.445  -0.059  10.740  1.0842  0.9218 -0.3294
    4SAPS   C12  404   3.506   0.134  10.779  0.2303 -0.0587 -0.9727
    4SAPS  H12A  405   3.531   0.131  10.674 -3.4756 -1.7366 -1.8653
    4SAPS   C13  406   3.438   0.272  10.795 -0.1103  0.9425 -0.0230
    4SAPS  O13A  407   3.309   0.279  10.805 -0.3234  0.5087  0.2119
    4SAPS  O13B  408   3.493   0.377  10.770  0.1362  0.5419 -0.2521
    4SAPS   C11  409   3.636   0.130  10.864  0.7981 -0.4467 -0.1404
    4SAPS  H11A  410   3.598   0.155  10.966 -3.6659  0.3275 -1.8586
    4SAPS  H11B  411   3.701   0.218  10.845 -0.2014  1.2421  3.6807
    4SAPS     P  412   3.807  -0.033  10.745  0.2770 -0.2102  0.5525
    4SAPS   O13  413   3.947  -0.005  10.788 -0.5324  0.1282 -0.2260
    4SAPS   O14  414   3.764  -0.172  10.711 -0.1619  0.1411  0.3647
    4SAPS   O12  415   3.708   0.009  10.861  0.0931 -0.1880  0.5691
    4SAPS   O11  416   3.763   0.063  10.629  0.5205  0.6627 -0.3495
    4SAPS    C1  417   3.781   0.015  10.493  0.1921 -0.5580 -0.1908
    4SAPS    HA  418   3.880   0.052  10.458 -0.2453  0.0162 -0.8295
    4SAPS    HB  419   3.768  -0.095  10.486  0.2506 -0.6425  0.9151
    4SAPS    C2  420   3.676   0.087  10.404  0.4996 -0.0442 -0.1908
    4SAPS    HS  421   3.581   0.035  10.429  0.9192 -0.0845  1.3512
    4SAPS   O21  422   3.718   0.073  10.271 -0.5484 -0.1938  0.1190
    4SAPS   C21  423   3.673  -0.030  10.205 -0.2917 -0.4508 -0.4648
    4SAPS   O22  424   3.580  -0.103  10.241  0.6579 -0.1878 -0.0464
    4SAPS   C22  425   3.762  -0.052  10.087 -0.1806 -0.2286  0.0389
    4SAPS   H2R  426   3.704  -0.099  10.005  0.6375  1.8899 -1.8061
    4SAPS   H2S  427   3.800   0.047  10.052 -1.2861  0.0409 -0.4126
    4SAPS    C3  428   3.660   0.247  10.419 -0.0817  0.6380 -0.4860
    4SAPS    HX  429   3.766   0.276  10.404  0.2533 -0.8638 -1.1665
    4SAPS    HY  430   3.624   0.285  10.517 -2.8411  1.1058 -1.6300
    4SAPS   O31  431   3.580   0.304  10.310 -1.0087 -0.5650  0.0297
    4SAPS   C31  432   3.450   0.300  10.329 -0.5518  0.0207 -0.6665
    4SAPS   O32  433   3.393   0.244  10.421 -0.5219 -0.1046 -0.5584
    4SAPS   C32  434   3.388   0.380  10.214 -0.6234  0.1496  0.0446
    4SAPS   H2X  435   3.446   0.474  10.209 -1.9777  0.9473 -1.1001
    4SAPS   H2Y  436   3.278   0.396  10.225 -0.5135  0.0247  1.4141
    4SAPS   C23  437   3.890  -0.128  10.128 -0.3359 -0.0101 -0.2603
    4SAPS   H3R  438   3.850  -0.229  10.151  0.2802 -0.4407 -1.0519
    4SAPS   H3S  439   3.937  -0.094  10.222 -1.1732 -1.3060  0.6514
    4SAPS   C24  440   3.995  -0.134  10.017  0.0671  0.2530  0.2803
    4SAPS   H4R  441   4.083  -0.182  10.065  0.3409 -0.6208 -1.0693
    4SAPS   H4S  442   4.029  -0.029  10.000  0.4959  0.0847  0.0737
    4SAPS   C25  443   3.952  -0.205   9.890 -0.0073 -0.3676 -0.0911
    4SAPS   H5R  444   3.941  -0.314   9.903  1.7625 -0.5156  0.3143
    4SAPS   C26  445   3.923  -0.158   9.772  0.3436 -0.0193 -0.5169
    4SAPS   H6R  446   3.919  -0.237   9.696  3.4070  0.4607 -1.2839
    4SAPS   C27  447   3.920  -0.011   9.727 -0.1572  0.5070  0.1226
    4SAPS   H7R  448   3.888   0.067   9.799  0.2692 -0.3069  1.2070
    4SAPS   H7S  449   3.841  -0.001   9.649  0.6340  0.8578 -0.6518
    4SAPS   C28  450   4.048   0.035   9.662 -0.9424 -0.2150  0.2489
    4SAPS   H8R  451   4.132   0.040   9.732  1.0002  0.3863 -2.0605
    4SAPS   C29  452   4.063   0.083   9.540  0.9275 -0.2997  0.0228
    4SAPS   H9R  453   4.164   0.119   9.513  1.0749 -0.5389  0.2629
    4SAPS  C210  454   3.964   0.098   9.423 -0.5279 -0.2569 -0.3501
    4SAPS  H10R  455   3.920  -0.002   9.402 -2.2359  0.4856 -0.3920
    4SAPS  H10S  456   4.027   0.121   9.335  2.5905  0.4534  1.9557
    4SAPS  C211  457   3.851   0.197   9.457 -0.1061 -0.3686  0.8983
    4SAPS  H11R  458   3.859   0.251   9.552 -1.2644  1.6774 -0.1320
    4SAPS  C212  459   3.758   0.226   9.361  1.0015 -0.2196 -0.0621
    4SAPS  H12R  460   3.679   0.300   9.382 -0.2893 -1.5008 -0.2395
    4SAPS  C213  461   3.758   0.170   9.225 -0.0622 -0.1802  0.4085
    4SAPS  H13R  462   3.654   0.170   9.185 -0.0176  0.6470  0.2637
    4SAPS  H13S  463   3.778   0.062   9.233  0.8461 -0.0714 -0.3810
    4SAPS  C214  464   3.847   0.248   9.126 -0.2484 -0.1150  0.4916
    4SAPS  H14R  465   3.932   0.295   9.177 -0.1309  0.3545 -0.1256
    4SAPS  C215  466   3.825   0.274   8.998  0.0783 -0.5965  0.1492
    4SAPS  H15R  467   3.904   0.331   8.948 -0.7874 -1.4773 -2.2907
    4SAPS  C216  468   3.712   0.237   8.908  0.3640  0.2462 -0.5733
    4SAPS  H16R  469   3.646   0.161   8.954  0.8725  0.0455 -0.1753
    4SAPS  H16S  470   3.753   0.178   8.823  0.4398 -0.1271 -0.2749
    4SAPS  C217  471   3.645   0.353   8.838  0.0010 -0.2076 -0.0246
    4SAPS  H17R  472   3.717   0.398   8.766 -0.5541 -0.5388 -0.7883
    4SAPS  H17S  473   3.619   0.428   8.915 -2.4180 -1.0333 -0.0221
    4SAPS  C218  474   3.518   0.317   8.763 -0.6508 -0.3145 -0.1447
    4SAPS  H18R  475   3.464   0.239   8.822 -1.3353 -0.9155 -1.5451
    4SAPS  H18S  476   3.547   0.274   8.665 -0.1488  2.6722 -1.3583
    4SAPS  C219  477   3.427   0.431   8.743 -1.0578  0.1307 -0.3065
    4SAPS  H19R  478   3.459   0.495   8.658  0.9468 -2.1815 -1.3391
    4SAPS  H19S  479   3.420   0.500   8.829 -0.4655 -2.1425  1.6029
    4SAPS  C220  480   3.279   0.378   8.714 -1.1594  0.2327  0.4507
    4SAPS  H20R  481   3.248   0.302   8.789  0.8024 -0.7884  0.2641
    4SAPS  H20S  482   3.271   0.338   8.610 -1.5235 -0.0782  0.5974
    4SAPS  H20T  483   3.212   0.466   8.718 -0.1911  1.1259 -1.7857
    4SAPS   C33  484   3.422   0.307  10.076  0.0003 -0.2236 -0.0648
    4SAPS   H3X  485   3.412   0.196  10.076  2.7331 -0.6001  4.3311
    4SAPS   H3Y  486   3.531   0.328  10.073 -0.0795  0.5153  1.3318
    4SAPS   C34  487   3.368   0.381   9.952 -0.0114  0.6629 -0.2636
    4SAPS   H4X  488   3.422   0.476   9.929 -0.2578  0.4511 -1.7906
    4SAPS   H4Y  489   3.257   0.385   9.954 -0.1370 -0.5715 -2.8278
    4SAPS   C35  490   3.390   0.283   9.836 -0.0563 -0.1932  0.0679
    4SAPS   H5X  491   3.341   0.331   9.748  0.4265 -1.1441 -0.7266
    4SAPS   H5Y  492   3.349   0.184   9.864  0.4040  0.2702  2.4726
    4SAPS   C36  493   3.537   0.265   9.798  0.5317 -0.4606  0.0111
    4SAPS   H6X  494   3.593   0.204   9.872 -0.0344 -0.8894  0.0888
    4SAPS   H6Y  495   3.581   0.365   9.780 -0.8807 -0.1942 -2.0258
    4SAPS   C37  496   3.561   0.174   9.670 -0.4176 -0.7270  0.3187
    4SAPS   H7X  497   3.672   0.180   9.658 -0.6020  0.6005 -0.8778
    4SAPS   H7Y  498   3.514   0.212   9.577 -1.4904 -1.7278  0.4455
    4SAPS   C38  499   3.532   0.026   9.698  0.0070 -0.2064 -0.5018
    4SAPS   H8X  500   3.425   0.016   9.725  0.3611  2.5073  2.1525
    4SAPS   H8Y  501   3.596   0.007   9.787  3.1121  1.5731 -2.2558
    4SAPS   C39  502   3.567  -0.063   9.577  0.0541 -0.2658 -0.6292
    4SAPS   H9X  503   3.598  -0.161   9.618  1.4372 -1.1192 -3.5555
    4SAPS   H9Y  504   3.657  -0.033   9.519 -1.1653  0.6382 -2.0960
    4SAPS  C310  505   3.453  -0.088   9.481  0.0786  0.0855 -0.0931
    4SAPS  H10X  506   3.440   0.004   9.418  1.3552  0.9897  0.9343
    4SAPS  H10Y  507   3.357  -0.090   9.537 -0.4988  2.4047 -0.9092
    4SAPS  C311  508   3.461  -0.212   9.395 -0.7838 -0.5765  0.5097
    4SAPS  H11X  509   3.363  -0.224   9.343 -1.0175  0.0534  0.7936
    4SAPS  H11Y  510   3.482  -0.304   9.452 -2.8640 -0.4125  1.5987
    4SAPS  C312  511   3.568  -0.201   9.286 -0.1145  0.8424  0.0969
    4SAPS  H12X  512   3.668  -0.199   9.335 -0.6187  1.2930  1.1347
    4SAPS  H12Y  513   3.555  -0.105   9.230  0.7466  0.4022 -0.8746
    4SAPS  C313  514   3.553  -0.324   9.200 -0.1841 -0.2396  0.2483
    4SAPS  H13X  515   3.448  -0.326   9.163  0.1952  0.0972 -0.8677
    4SAPS  H13Y  516   3.590  -0.414   9.255 -0.2008 -0.4311 -0.0544
    4SAPS  C314  517   3.646  -0.310   9.082 -0.1924 -0.1386  0.1647
    4SAPS  H14X  518   3.677  -0.410   9.044  2.0647  1.0354 -1.2102
    4SAPS  H14Y  519   3.741  -0.258   9.105  0.2613 -1.4439  1.2363
    4SAPS  C315  520   3.559  -0.246   8.967  0.1589 -0.0556 -0.0129
    4SAPS  H15X  521   3.493  -0.166   9.008 -0.2860 -0.7201  0.5826
    4SAPS  H15Y  522   3.492  -0.327   8.931  0.9096 -0.7573  0.1621
    4SAPS  C316  523   3.637  -0.182   8.856  0.5136  0.6953  0.0015
    4SAPS  H16X  524   3.709  -0.254   8.812  0.4864 -1.1959  2.9084
    4SAPS  H16Y  525   3.696  -0.103   8.907 -1.6886  1.4625  1.4614
    4SAPS  C317  526   3.549  -0.124   8.747  0.2273 -0.4810 -0.3481
    4SAPS  H17X  527   3.491  -0.034   8.779  1.2417  0.9532 -2.3932
    4SAPS  H17Y  528   3.473  -0.192   8.704  0.0864 -0.7361  0.3038
    4SAPS  C318  529   3.624  -0.077   8.622 -0.7524 -0.7772 -0.8680
    4SAPS  H18X  530   3.551  -0.051   8.542 -0.9211  0.2296 -0.3910
    4SAPS  H18Y  531   3.684  -0.163   8.587  0.7134 -0.2761  0.3680
    4SAPS  H18Z  532   3.692   0.009   8.638  0.7904 -2.2042  0.2874
    5SAPS     N  533   0.003   6.804  11.022  0.3925  0.5265 -0.2419
    5SAPS   HN1  534  -0.066   6.774  11.094 -0.8324  2.2550 -0.6501
    5SAPS   HN2  535  -0.044   6.838  10.936  0.3155  1.3982  0.1406
    5SAPS   HN3  536   0.072   6.727  11.008  0.2041  0.5658 -1.4907
    5SAPS   C12  537   0.075   6.914  11.096 -0.0768 -0.3893  0.5119
    5SAPS  H12A  538   0.021   7.001  11.061  2.9384  0.6270 -1.7872
    5SAPS   C13  539   0.071   6.893  11.245  0.2228  0.0998  0.0181
    5SAPS  O13A  540   0.028   6.783  11.289 -0.5277 -0.1937  0.7975
    5SAPS  O13B  541   0.119   6.983  11.318 -0.6586  0.8076  0.0070
    5SAPS   C11  542   0.217   6.931  11.036 -0.4946  0.0921 -0.1101
    5SAPS  H11A  543   0.270   6.840  11.070 -0.7511  0.1835  0.5450
    5SAPS  H11B  544   0.266   7.019  11.083  0.5670  0.4297 -1.8031
    5SAPS     P  545   0.313   6.858  10.805  0.0428  0.4732 -0.3278
    5SAPS   O13  546   0.232   6.730  10.782 -0.3548 -0.1971  0.0588
    5SAPS   O14  547   0.353   6.936  10.694  0.3027  0.2124 -0.0564
    5SAPS   O12  548   0.224   6.949  10.899  0.2890  0.0939 -0.2554
    5SAPS   O11  549   0.435   6.827  10.886  0.5528  0.2513  0.1132
    5SAPS    C1  550   0.535   6.920  10.933  0.9081  0.5914 -0.0281
    5SAPS    HA  551   0.499   7.025  10.921 -1.3186 -0.0473  0.7370
    5SAPS    HB  552   0.544   6.920  11.043 -1.8460 -0.5098  0.2359
    5SAPS    C2  553   0.672   6.896  10.884  0.6886 -0.3262 -0.2228
    5SAPS    HS  554   0.740   6.975  10.924  1.4054 -1.2978  0.5067
    5SAPS   O21  555   0.670   6.896  10.745 -0.6666 -0.1755  0.0987
    5SAPS   C21  556   0.655   7.007  10.685  0.6766  0.2554  0.0552
    5SAPS   O22  557   0.666   7.121  10.730  0.0300  0.2437 -0.1800
    5SAPS   C22  558   0.631   6.967  10.536 -0.1719  0.4025  0.0726
    5SAPS   H2R  559   0.730   6.940  10.492 -0.3362  0.8365 -0.5764
    5SAPS   H2S  560   0.568   6.876  10.534  1.6335 -0.8791 -0.4477
    5SAPS    C3  561   0.722   6.761  10.929 -0.3498 -0.3309  0.3352
    5SAPS    HX  562   0.651   6.680  10.899  0.3706 -0.9760  0.3609
    5SAPS    HY  563   0.730   6.763  11.040  2.4810  0.4720  0.1362
    5SAPS   O31  564   0.850   6.744  10.857 -0.5578  0.9259 -0.3281
    5SAPS   C31  565   0.951   6.809  10.907  0.2577 -0.3013  0.6532
    5SAPS   O32  566   0.953   6.888  11.003 -0.5773  0.0240  0.1123
    5SAPS   C32  567   1.079   6.784  10.833 -0.2668 -0.3431 -0.1256
    5SAPS   H2X  568   1.134   6.715  10.900  0.0767  1.8725  1.9394
    5SAPS   H2Y  569   1.138   6.878  10.834  3.1150 -2.3600 -0.4290
    5SAPS   C23  570   0.558   7.055  10.433  0.1031 -1.1255 -1.2539
    5SAPS   H3R  571   0.593   7.158  10.457 -1.3770 -0.9880  0.5024
    5SAPS   H3S  572   0.449   7.043  10.452 -0.0400  0.5772 -0.9163
    5SAPS   C24  573   0.578   7.036  10.286  0.1133  0.0167  0.5849
    5SAPS   H4R  574   0.684   7.061  10.262  0.7271  0.2499  3.4316
    5SAPS   H4S  575   0.507   7.101  10.230  0.7463  1.9330  1.9296
    5SAPS   C25  576   0.543   6.896  10.235 -0.0326 -0.4303 -0.0824
    5SAPS   H5R  577   0.467   6.841  10.293 -2.4677 -1.0217 -3.6687
    5SAPS   C26  578   0.582   6.845  10.117 -0.3540 -0.4972 -0.0908
    5SAPS   H6R  579   0.547   6.741  10.102 -0.0651 -0.8498  1.5470
    5SAPS   C27  580   0.669   6.907  10.012  0.8191  1.0858  0.3086
    5SAPS   H7R  581   0.755   6.837  10.010  1.9536  2.4586 -0.0496
    5SAPS   H7S  582   0.706   7.005  10.049 -1.5506  2.3831 -0.6056
    5SAPS   C28  583   0.615   6.914   9.867 -0.3714  0.4077  0.0567
    5SAPS   H8R  584   0.506   6.906   9.856 -0.7180  2.1513  1.9365
    5SAPS   C29  585   0.694   6.917   9.755 -0.3020 -0.8412 -0.1404
    5SAPS   H9R  586   0.648   6.919   9.656  0.4564 -1.3721 -0.5102
    5SAPS  C210  587   0.845   6.938   9.758  0.1202 -0.1780  0.5326
    5SAPS  H10R  588   0.870   6.979   9.859 -0.6447 -2.3017  1.6132
    5SAPS  H10S  589   0.874   7.026   9.698  4.0192 -0.9245  1.2244
    5SAPS  C211  590   0.925   6.807   9.734  0.1864  0.4163 -0.4317
    5SAPS  H11R  591   0.936   6.745   9.824 -1.6358 -0.0719 -0.5109
    5SAPS  C212  592   0.962   6.764   9.612 -0.2021  0.0974 -0.2084
    5SAPS  H12R  593   1.026   6.676   9.597 -0.7022 -0.6521  1.9467
    5SAPS  C213  594   0.930   6.849   9.486  0.2784  0.0562  0.0079
    5SAPS  H13R  595   0.850   6.919   9.515  0.5282  0.0500  0.7137
    5SAPS  H13S  596   0.872   6.800   9.405  0.3340 -0.1164  0.0716
    5SAPS  C214  597   1.048   6.925   9.434 -0.7285  0.1596 -0.0373
    5SAPS  H14R  598   1.066   7.019   9.488  4.2938 -0.6513 -0.0209
    5SAPS  C215  599   1.130   6.887   9.330  0.4258  0.1947  0.8513
    5SAPS  H15R  600   1.210   6.956   9.301 -0.7022 -0.0067 -2.9865
    5SAPS  C216  601   1.111   6.753   9.263  0.0130 -0.6349  0.6548
    5SAPS  H16R  602   1.059   6.676   9.324  0.3634 -0.6623  0.9218
    5SAPS  H16S  603   1.212   6.716   9.234 -0.1468  0.5919 -1.5998
    5SAPS  C217  604   1.020   6.791   9.141  0.2139 -0.5149  1.0342
    5SAPS  H17R  605   0.929   6.851   9.163 -1.1105 -2.0613 -0.1678
    5SAPS  H17S  606   0.987   6.692   9.102 -1.2118  0.0764  0.7074
    5SAPS  C218  607   1.100   6.827   9.010 -0.0848 -0.2154  0.6873
    5SAPS  H18R  608   1.125   6.935   9.003 -0.9541 -0.1233 -1.7621
    5SAPS  H18S  609   1.194   6.770   9.025 -0.0646  0.1471  1.9733
    5SAPS  C219  610   1.040   6.781   8.877 -0.3376  0.3910  1.1162
    5SAPS  H19R  611   0.939   6.824   8.859 -0.1391 -0.1447 -1.5521
    5SAPS  H19S  612   1.032   6.670   8.874 -0.5669  0.4035  1.2840
    5SAPS  C220  613   1.148   6.804   8.770 -0.3431 -0.3193 -0.1123
    5SAPS  H20R  614   1.111   6.753   8.678 -1.0689 -0.3337  0.1820
    5SAPS  H20S  615   1.247   6.769   8.804 -1.2192 -0.4376  2.3873
    5SAPS  H20T  616   1.167   6.908   8.734  1.9408 -1.0080 -0.9783
    5SAPS   C33  617   1.066   6.725  10.692 -0.9057 -1.1838 -0.4156
    5SAPS   H3X  618   1.024   6.623  10.709  1.0932 -1.7122  1.5649
    5SAPS   H3Y  619   1.166   6.710  10.646 -0.7611 -2.4865  0.2952
    5SAPS   C34  620   1.006   6.826  10.594  0.4549 -0.1022  0.2850
    5SAPS   H4X  621   1.087   6.897  10.565 -0.4497  0.4927 -0.8402
    5SAPS   H4Y  622   0.928   6.894  10.634  0.9772  0.5347  0.2487
    5SAPS   C35  623   0.949   6.769  10.461  0.1670 -0.0955  0.0236
    5SAPS   H5X  624   0.880   6.835  10.402  0.2375  0.9745  1.1271
    5SAPS   H5Y  625   0.895   6.674  10.482  1.5508 -0.7902  0.4723
    5SAPS   C36  626   1.063   6.752  10.358 -1.1454  0.1127  0.0608
    5SAPS   H6X  627   1.131   6.677  10.405  0.7465  3.0800  2.2637
    5SAPS   H6Y  628   1.130   6.840  10.345  0.5583 -1.1688 -0.0410
    5SAPS   C37  629   1.006   6.720  10.217  0.5246  0.6927 -0.0711
    5SAPS   H7X  630   0.968   6.818  10.180 -0.1587 -0.1255 -1.5816
    5SAPS   H7Y  631   0.916   6.656  10.232  0.9664 -0.0353 -0.4984
    5SAPS   C38  632   1.102   6.648  10.117 -0.2624  0.0259  0.0803
    5SAPS   H8X  633   1.202   6.640  10.164 -1.2165  1.5968  2.4767
    5SAPS   H8Y  634   1.118   6.722  10.036  0.8799  0.0287  0.3025
    5SAPS   C39  635   1.058   6.514  10.063 -0.1270  0.5714 -0.5515
    5SAPS   H9X  636   0.948   6.500  10.053 -0.0477  0.4234 -1.2458
    5SAPS   H9Y  637   1.089   6.435  10.135  0.2328  0.6324 -0.6400
    5SAPS  C310  638   1.106   6.478   9.922  1.0417 -0.1137  0.2300
    5SAPS  H10X  639   1.216   6.465   9.930  0.9317 -0.3028  1.4356
    5SAPS  H10Y  640   1.090   6.559   9.847  0.2171 -1.6723 -1.3146
    5SAPS  C311  641   1.041   6.352   9.865  0.6460 -0.4102 -0.1168
    5SAPS  H11X  642   0.933   6.361   9.842  0.9987 -2.1868 -2.7825
    5SAPS  H11Y  643   1.060   6.265   9.932  1.4709  1.4380  2.1252
    5SAPS  C312  644   1.120   6.309   9.742  0.0374  0.5514  0.0305
    5SAPS  H12X  645   1.123   6.198   9.743 -0.4817  0.5401  0.5744
    5SAPS  H12Y  646   1.226   6.341   9.756 -0.1536  0.6647  1.2555
    5SAPS  C313  647   1.068   6.352   9.602 -0.2130 -0.3222  0.0194
    5SAPS  H13X  648   1.092   6.460   9.597  2.9989 -0.9621  0.2326
    5SAPS  H13Y  649   0.963   6.318   9.591 -0.7881  2.0763 -2.6750
    5SAPS  C314  650   1.140   6.289   9.478 -0.5557  0.2716  0.6109
    5SAPS  H14X  651   1.104   6.184   9.475 -0.9237  0.4392 -3.9227
    5SAPS  H14Y  652   1.247   6.284   9.507  0.2050 -0.1004 -2.1738
    5SAPS  C315  653   1.103   6.348   9.346  0.3869 -0.7194 -0.1833
    5SAPS  H15X  654   1.146   6.450   9.337  2.0081 -1.4693 -1.0871
    5SAPS  H15Y  655   0.993   6.356   9.330  0.1647 -0.8714  1.2633
    5SAPS  C316  656   1.172   6.278   9.227  0.6338  0.1486  0.1888
    5SAPS  H16X  657   1.127   6.176   9.220  0.1533  0.3928 -0.3351
    5SAPS  H16Y  658   1.279   6.279   9.256  0.1439  0.3920  2.0635
    5SAPS  C317  659   1.143   6.339   9.090 -1.1086 -0.3267 -0.0482
    5SAPS  H17X  660   1.131   6.446   9.116 -1.7947  0.0428 -1.8973
    5SAPS  H17Y  661   1.045   6.307   9.049 -1.4099  1.1807 -0.5066
    5SAPS  C318  662   1.265   6.318   9.001  0.0849 -0.0750  0.3024
    5SAPS  H18X  663   1.341   6.391   9.036 -0.3602  1.6362 -2.2407
    5SAPS  H18Y  664   1.243   6.342   8.895  1.7675  1.8205  0.3499
    5SAPS  H18Z  665   1.306   6.216   9.023  0.0784 -0.0579  0.3967
    6SAPS     N  666   6.763   6.162  10.986  0.2468  0.0382  0.2030
    6SAPS   HN1  667   6.797   6.222  11.064 -1.8153 -0.2696  1.3668
    6SAPS   HN2  668   6.826   6.166  10.904  0.0312 -1.7359 -0.0708
    6SAPS   HN3  669   6.665   6.183  10.960  0.0888 -2.0581 -1.0537
    6SAPS   C12  670   6.756   6.023  11.047 -0.4060 -0.1741  0.2754
    6SAPS  H12A  671   6.855   6.000  11.082 -0.1059 -1.4525 -1.3660
    6SAPS   C13  672   6.666   6.016  11.170 -0.1873  0.2420  0.1144
    6SAPS  O13A  673   6.612   6.122  11.222 -0.0050 -0.3111  0.4396
    6SAPS  O13B  674   6.654   5.904  11.220  0.7951 -0.0799  0.6609
    6SAPS   C11  675   6.690   5.924  10.946  0.1126  0.0489 -0.4206
    6SAPS  H11A  676   6.666   5.823  10.984  0.7647 -0.0431 -0.2426
    6SAPS  H11B  677   6.768   5.923  10.866 -1.5003  1.1953 -2.0566
    6SAPS     P  678   6.469   5.911  10.794 -0.0930  0.0622 -0.4815
    6SAPS   O13  679   6.447   5.781  10.866 -0.5764  0.2252 -0.4576
    6SAPS   O14  680   6.351   6.001  10.766  0.1369  0.6490 -0.2715
    6SAPS   O12  681   6.574   5.986  10.891 -0.1040  0.1711 -0.6752
    6SAPS   O11  682   6.554   5.890  10.664 -0.4188  0.0218  0.1007
    6SAPS    C1  683   6.612   6.004  10.594  0.0349 -0.2697 -0.0168
    6SAPS    HA  684   6.557   6.100  10.607  0.9928  0.2087  0.5318
    6SAPS    HB  685   6.720   6.018  10.615  0.2019 -0.6139 -0.6559
    6SAPS    C2  686   6.624   5.971  10.440 -0.2102 -0.9440 -0.3242
    6SAPS    HS  687   6.700   5.890  10.436  2.9573  1.8207  1.8024
    6SAPS   O21  688   6.661   6.086  10.351 -0.0070  0.5348 -0.6286
    6SAPS   C21  689   6.785   6.124  10.375  0.3634  0.4142  0.5536
    6SAPS   O22  690   6.871   6.060  10.442 -0.1906  0.4571 -0.4647
    6SAPS   C22  691   6.812   6.266  10.316  0.2620 -0.0561  0.9095
    6SAPS   H2R  692   6.793   6.270  10.207 -2.0034  1.2867  1.3274
    6SAPS   H2S  693   6.747   6.333  10.377  0.4037 -0.3150  1.3503
    6SAPS    C3  694   6.493   5.905  10.388  0.0831 -0.1298  0.9706
    6SAPS    HX  695   6.412   5.974  10.417 -1.0381 -0.9942 -0.0696
    6SAPS    HY  696   6.470   5.813  10.446 -0.7796 -0.0315  0.7853
    6SAPS   O31  697   6.486   5.888  10.245  0.5188  0.6598 -0.0992
    6SAPS   C31  698   6.385   5.813  10.203 -0.1664  0.3935  0.4180
    6SAPS   O32  699   6.295   5.772  10.277 -0.2074 -0.4145  0.3110
    6SAPS   C32  700   6.397   5.791  10.050  0.8217 -0.1411 -0.0627
    6SAPS   H2X  701   6.499   5.754  10.026  1.2713 -0.6097  2.4197
    6SAPS   H2Y  702   6.384   5.893  10.007  1.0662 -0.4833 -0.9567
    6SAPS   C23  703   6.961   6.313  10.336 -0.3853  0.1101  0.5218
    6SAPS   H3R  704   7.026   6.245  10.277 -3.2024 -0.2013 -2.4367
    6SAPS   H3S  705   6.991   6.320  10.442  0.4292  0.5716  0.2655
    6SAPS   C24  706   6.973   6.457  10.270  0.5231 -0.5464 -0.1573
    6SAPS   H4R  707   7.066   6.497  10.317  1.4795  0.1575 -2.5640
    6SAPS   H4S  708   6.887   6.521  10.297  3.7613  3.8374  0.4173
    6SAPS   C25  709   7.009   6.454  10.125 -0.0959 -0.6089 -0.6463
    6SAPS   H5R  710   7.111   6.413  10.117  0.1025 -0.0685 -0.8805
    6SAPS   C26  711   6.950   6.511  10.019  0.5251 -0.0199 -0.0181
    6SAPS   H6R  712   6.985   6.509   9.914 -0.4857  4.3790 -0.5265
    6SAPS   C27  713   6.825   6.591  10.019  0.6698  0.3334  0.1217
    6SAPS   H7R  714   6.771   6.585  10.116  0.3065 -3.8712 -0.2463
    6SAPS   H7S  715   6.756   6.539   9.949 -0.5899  0.1154  1.4952
    6SAPS   C28  716   6.831   6.742   9.989 -0.7087  0.3877  0.2659
    6SAPS   H8R  717   6.836   6.809  10.077 -0.7674  1.4964 -0.5714
    6SAPS   C29  718   6.813   6.795   9.871  0.3376 -0.5324  1.1466
    6SAPS   H9R  719   6.818   6.904   9.857  1.8231 -0.9266 -1.9891
    6SAPS  C210  720   6.793   6.718   9.740 -0.2371  0.5578  0.4388
    6SAPS  H10R  721   6.709   6.752   9.676  1.5480 -1.5460 -3.1663
    6SAPS  H10S  722   6.757   6.616   9.766 -1.3590  0.3394 -1.8455
    6SAPS  C211  723   6.923   6.694   9.672 -0.8490 -0.8457 -0.1398
    6SAPS  H11R  724   7.001   6.638   9.726 -0.5426  1.7674  2.1956
    6SAPS  C212  725   6.954   6.739   9.545 -1.3008 -0.7523 -0.1570
    6SAPS  H12R  726   7.053   6.718   9.504 -0.3089 -2.1742  2.8091
    6SAPS  C213  727   6.871   6.817   9.449  0.0004 -0.1211  0.1233
    6SAPS  H13R  728   6.920   6.915   9.431 -1.2969  0.2978 -1.2735
    6SAPS  H13S  729   6.773   6.851   9.489 -1.0118 -1.8189 -0.8595
    6SAPS  C214  730   6.851   6.740   9.324  0.1835 -0.2085 -0.3320
    6SAPS  H14R  731   6.772   6.665   9.339  0.6076  0.0618  3.8813
    6SAPS  C215  732   6.925   6.754   9.205 -0.5519  0.3387 -0.1729
    6SAPS  H15R  733   6.904   6.692   9.117 -1.3913  0.1194  0.1779
    6SAPS  C216  734   7.048   6.841   9.188  0.7818  0.0772 -0.7943
    6SAPS  H16R  735   7.138   6.777   9.176  1.5190  1.0914 -0.7205
    6SAPS  H16S  736   7.068   6.902   9.279  0.2198 -2.5013  1.1110
    6SAPS  C217  737   7.034   6.926   9.055  0.7415  0.0203  0.4384
    6SAPS  H17R  738   7.127   6.986   9.046  0.2876  0.4821 -1.1764
    6SAPS  H17S  739   6.956   7.003   9.072  1.8377  0.5725  3.2135
    6SAPS  C218  740   7.029   6.844   8.927 -0.9721  0.5716 -0.0824
    6SAPS  H18R  741   6.940   6.777   8.931 -0.4418 -0.0869  0.8552
    6SAPS  H18S  742   7.120   6.782   8.935 -0.5703  1.2604  0.7715
    6SAPS  C219  743   7.048   6.935   8.800 -0.3952  0.1204  0.0842
    6SAPS  H19R  744   7.082   6.870   8.716  0.2369  0.2228  0.2570
    6SAPS  H19S  745   7.129   7.006   8.826  1.0456 -1.6195  0.4431
    6SAPS  C220  746   6.919   7.001   8.754  0.2680 -0.2249 -0.2398
    6SAPS  H20R  747   6.923   7.043   8.651  0.1055 -0.1269 -0.2061
    6SAPS  H20S  748   6.903   7.083   8.827  2.1174 -1.5762  1.7357
    6SAPS  H20T  749   6.831   6.933   8.756  1.1513 -1.3940 -0.9119
    6SAPS   C33  750   6.301   5.681  10.023  0.2145  0.1350 -0.3360
    6SAPS   H3X  751   6.206   5.680  10.080 -0.7508 -0.9372 -1.9173
    6SAPS   H3Y  752   6.339   5.581  10.055 -0.8784 -0.1762  0.0286
    6SAPS   C34  753   6.273   5.674   9.874 -0.3336 -0.9843  0.3032
    6SAPS   H4X  754   6.226   5.773   9.855  1.0176 -0.7266 -1.8076
    6SAPS   H4Y  755   6.205   5.587   9.863 -0.7190 -0.3829 -2.2484
    6SAPS   C35  756   6.404   5.640   9.795  0.5716 -0.0983 -0.2900
    6SAPS   H5X  757   6.440   5.543   9.834 -1.2064 -0.5980  0.1297
    6SAPS   H5Y  758   6.479   5.719   9.818 -0.9626  1.6866 -1.2766
    6SAPS   C36  759   6.368   5.656   9.643  0.1013 -0.0946  0.4381
    6SAPS   H6X  760   6.325   5.756   9.620 -3.3363 -1.6706 -0.3260
    6SAPS   H6Y  761   6.290   5.577   9.631  0.5913 -0.5251  0.0753
    6SAPS   C37  762   6.471   5.625   9.537 -0.4298  0.4629 -0.2432
    6SAPS   H7X  763   6.510   5.525   9.567 -0.5448  0.6089  0.3978
    6SAPS   H7Y  764   6.556   5.696   9.537 -0.8069  0.9197  0.5237
    6SAPS   C38  765   6.418   5.631   9.399 -0.3278  0.1133 -0.0708
    6SAPS   H8X  766   6.315   5.588   9.399 -0.6803  0.9162 -1.9340
    6SAPS   H8Y  767   6.483   5.568   9.335 -0.1704  1.5935 -1.4018
    6SAPS   C39  768   6.419   5.762   9.321  0.7989  0.0034  0.4217
    6SAPS   H9X  769   6.512   5.819   9.342  0.5049 -0.1506  2.2443
    6SAPS   H9Y  770   6.334   5.828   9.351 -0.7743 -0.6395 -2.4020
    6SAPS  C310  771   6.407   5.744   9.161 -0.0487 -0.2164 -0.0201
    6SAPS  H10X  772   6.313   5.692   9.134  1.7093 -3.2111 -0.5481
    6SAPS  H10Y  773   6.497   5.685   9.132  0.9824  0.1493  2.2429
    6SAPS  C311  774   6.411   5.882   9.093 -0.1190 -0.3328  0.3169
    6SAPS  H11X  775   6.498   5.937   9.135 -0.4295  1.1846 -0.9880
    6SAPS  H11Y  776   6.320   5.938   9.122  0.7810  0.8673  0.8510
    6SAPS  C312  777   6.420   5.875   8.939 -0.6277 -0.0345  0.9202
    6SAPS  H12X  778   6.503   5.811   8.903 -1.4808 -0.7967  0.2558
    6SAPS  H12Y  779   6.444   5.978   8.903  2.0871 -0.2046  2.1767
    6SAPS  C313  780   6.289   5.844   8.864 -0.5906  0.1649 -0.4246
    6SAPS  H13X  781   6.209   5.913   8.900  0.9128  1.6602  0.1057
    6SAPS  H13Y  782   6.254   5.741   8.883 -1.4814 -0.0534 -2.9651
    6SAPS  C314  783   6.312   5.862   8.713  0.1468 -0.4362 -0.3446
    6SAPS  H14X  784   6.361   5.774   8.667 -0.6353 -1.0931  0.0668
    6SAPS  H14Y  785   6.377   5.948   8.688  0.8520 -0.4560  1.3533
    6SAPS  C315  786   6.180   5.871   8.632 -0.0094  0.9757  0.3633
    6SAPS  H15X  787   6.113   5.953   8.664 -0.6309  0.4324  0.4502
    6SAPS  H15Y  788   6.118   5.779   8.630  0.3140  0.7700 -0.6187
    6SAPS  C316  789   6.213   5.900   8.489  0.3479  0.1231  0.0320
    6SAPS  H16X  790   6.287   5.833   8.441 -0.3518 -2.6327  2.6563
    6SAPS  H16Y  791   6.262   6.000   8.484  0.0952  0.3158  1.1552
    6SAPS  C317  792   6.090   5.887   8.400  0.2311 -0.5122 -0.1634
    6SAPS  H17X  793   6.136   5.928   8.307 -0.2465  3.6795  1.3096
    6SAPS  H17Y  794   6.011   5.960   8.428 -1.1231 -2.1863  0.4413
    6SAPS  C318  795   6.029   5.748   8.386 -0.3751 -0.2342  0.5180
    6SAPS  H18X  796   6.115   5.679   8.401  0.0434 -0.0347 -0.8759
    6SAPS  H18Y  797   5.991   5.728   8.284 -3.5936 -0.1904  1.6560
    6SAPS  H18Z  798   5.945   5.731   8.457 -0.5861 -0.1924  0.2761
    7SAPS     N  799   2.457   0.159  10.832 -0.1459 -0.3134 -0.2513
    7SAPS   HN1  800   2.556   0.168  10.864 -0.6710  0.8044  1.1357
    7SAPS   HN2  801   2.414   0.254  10.822  0.7562 -0.1219 -2.4424
    7SAPS   HN3  802   2.405   0.108  10.906  0.6906  0.3500  0.8159
    7SAPS   C12  803   2.443   0.083  10.702 -0.0273 -0.3825 -0.3335
    7SAPS  H12A  804   2.516   0.121  10.633 -0.1477  1.6453  0.6339
    7SAPS   C13  805   2.467  -0.075  10.718 -0.1509 -0.5687  0.5022
    7SAPS  O13A  806   2.491  -0.123  10.829 -0.0107 -0.4432  0.3193
    7SAPS  O13B  807   2.450  -0.147  10.615  0.7367  0.2111  0.1300
    7SAPS   C11  808   2.298   0.101  10.641 -0.1210 -0.2595  0.5361
    7SAPS  H11A  809   2.216   0.069  10.708  0.9109  0.6287  2.2542
    7SAPS  H11B  810   2.294   0.036  10.551 -0.6215  1.1561 -0.4789
    7SAPS     P  811   2.202   0.298  10.488 -0.2958  0.1225 -0.0475
    7SAPS   O13  812   2.059   0.267  10.496  0.5963 -0.6207  0.2868
    7SAPS   O14  813   2.238   0.445  10.470  0.2068 -0.0320 -0.4687
    7SAPS   O12  814   2.281   0.240  10.615 -0.1784 -0.8792 -0.7402
    7SAPS   O11  815   2.270   0.209  10.377 -0.6535 -0.2934 -0.9448
    7SAPS    C1  816   2.413   0.213  10.363 -0.4083  0.2740  0.5431
    7SAPS    HA  817   2.471   0.291  10.417 -1.4196  2.3076 -1.2521
    7SAPS    HB  818   2.455   0.111  10.381 -1.2371 -0.1983 -0.1799
    7SAPS    C2  819   2.446   0.241  10.211  0.3094 -0.3134 -0.2795
    7SAPS    HS  820   2.553   0.229  10.184  0.7786 -1.2183  1.9153
    7SAPS   O21  821   2.391   0.374  10.175 -0.5207 -0.4491  0.0093
    7SAPS   C21  822   2.425   0.485  10.242  0.3421  0.2849 -0.6791
    7SAPS   O22  823   2.514   0.494  10.319 -0.6283  0.8073 -0.1117
    7SAPS   C22  824   2.351   0.598  10.176  0.0356 -0.3461  0.2549
    7SAPS   H2R  825   2.244   0.569  10.170 -0.5576  1.7361  0.2919
    7SAPS   H2S  826   2.345   0.676  10.255 -2.7653  0.5296 -0.7500
    7SAPS    C3  827   2.372   0.138  10.121  0.2089  0.3171  0.2531
    7SAPS    HX  828   2.266   0.139  10.151  0.4257 -1.2712  1.1258
    7SAPS    HY  829   2.416   0.040  10.151  0.1769 -0.0026 -0.7042
    7SAPS   O31  830   2.385   0.163   9.979 -0.8166 -0.4561  0.4681
    7SAPS   C31  831   2.507   0.155   9.929  0.3911 -0.0142  0.0673
    7SAPS   O32  832   2.603   0.101   9.984 -0.2489  0.0740  1.0542
    7SAPS   C32  833   2.498   0.203   9.791 -0.9280 -0.2450  0.0282
    7SAPS   H2X  834   2.592   0.260   9.773  0.6676 -2.8322  0.0295
    7SAPS   H2Y  835   2.417   0.279   9.784 -1.7824 -1.0823  0.7038
    7SAPS   C23  836   2.427   0.657  10.055  0.4928 -0.1094 -0.0261
    7SAPS   H3R  837   2.533   0.666  10.086  0.3554  0.4499  0.2788
    7SAPS   H3S  838   2.384   0.758  10.038 -0.1554 -0.8386 -3.1554
    7SAPS   C24  839   2.424   0.582   9.925  0.2946 -0.2371 -0.0744
    7SAPS   H4R  840   2.479   0.489   9.950  0.5290  0.4213  1.9721
    7SAPS   H4S  841   2.485   0.625   9.842 -1.2039  0.2986 -0.9092
    7SAPS   C25  842   2.292   0.538   9.885  0.4211 -0.3627  0.3142
    7SAPS   H5R  843   2.254   0.455   9.946 -4.1951  0.3611 -1.3742
    7SAPS   C26  844   2.210   0.574   9.790 -0.5179 -0.1309  0.6191
    7SAPS   H6R  845   2.111   0.526   9.783 -0.2151 -0.9653  2.0600
    7SAPS   C27  846   2.246   0.671   9.679 -0.1245 -0.2503 -0.2464
    7SAPS   H7R  847   2.283   0.767   9.722  2.6989  0.0973 -3.2459
    7SAPS   H7S  848   2.161   0.707   9.617 -0.6220 -0.9395  0.0356
    7SAPS   C28  849   2.340   0.598   9.586 -0.5426 -0.2064 -0.0438
    7SAPS   H8R  850   2.333   0.488   9.592  3.3587 -0.5039  0.6741
    7SAPS   C29  851   2.422   0.658   9.495 -0.1096  0.2347 -0.0102
    7SAPS   H9R  852   2.486   0.587   9.441 -1.1156 -0.8811  0.2667
    7SAPS  C210  853   2.445   0.801   9.475 -0.1652  0.3287  0.8201
    7SAPS  H10R  854   2.362   0.864   9.513 -2.1939 -1.3706 -0.6583
    7SAPS  H10S  855   2.434   0.806   9.365 -2.9981  0.5756  1.0748
    7SAPS  C211  856   2.582   0.830   9.519 -0.0423 -0.1742 -0.3149
    7SAPS  H11R  857   2.665   0.779   9.468  1.0033 -0.8339  1.9616
    7SAPS  C212  858   2.613   0.909   9.623 -0.5727 -0.1312 -0.2295
    7SAPS  H12R  859   2.721   0.919   9.638 -0.3427  1.7958 -2.8075
    7SAPS  C213  860   2.518   0.989   9.720 -0.1937 -0.0824 -0.0790
    7SAPS  H13R  861   2.411   0.968   9.702 -0.7096  1.4712  1.1071
    7SAPS  H13S  862   2.521   1.098   9.696  0.5425 -0.5323 -2.1761
    7SAPS  C214  863   2.559   0.980   9.867 -0.1530 -0.1979 -0.1161
    7SAPS  H14R  864   2.499   0.919   9.936 -1.5646 -0.3970 -1.4993
    7SAPS  C215  865   2.665   1.035   9.926 -0.0478  0.1515 -0.6746
    7SAPS  H15R  866   2.690   1.015  10.031 -0.5066 -0.5539 -0.7005
    7SAPS  C216  867   2.770   1.121   9.856  0.0588  0.0704 -0.4992
    7SAPS  H16R  868   2.725   1.165   9.764  1.8420  0.4863 -1.1808
    7SAPS  H16S  869   2.866   1.068   9.837 -0.4831 -1.6709  1.4825
    7SAPS  C217  870   2.803   1.246   9.950 -0.5157 -0.4592  0.2742
    7SAPS  H17R  871   2.843   1.200  10.044 -1.1883 -1.1993  0.2046
    7SAPS  H17S  872   2.719   1.315   9.972 -1.4765 -1.9039  1.2031
    7SAPS  C218  873   2.917   1.339   9.906  0.3723 -0.2558 -0.7213
    7SAPS  H18R  874   2.925   1.419   9.982 -0.1854 -0.6236 -0.2712
    7SAPS  H18S  875   2.875   1.384   9.814 -0.1968  0.3971 -0.1498
    7SAPS  C219  876   3.055   1.280   9.883 -0.1087  0.1979  0.2378
    7SAPS  H19R  877   3.054   1.183   9.828 -0.9410 -0.5222  1.4740
    7SAPS  H19S  878   3.080   1.265   9.990 -1.3665  0.9340  0.6384
    7SAPS  C220  879   3.158   1.373   9.833 -0.6556 -0.1269  0.3995
    7SAPS  H20R  880   3.127   1.473   9.870  0.9162  0.2965  0.5827
    7SAPS  H20S  881   3.161   1.379   9.722  1.4660  0.6667  0.4770
    7SAPS  H20T  882   3.261   1.354   9.871 -1.1579  0.3751  2.0705
    7SAPS   C33  883   2.478   0.095   9.676 -0.1830  0.2897 -0.0635
    7SAPS   H3X  884   2.405   0.018   9.706  0.8812 -0.4383  0.7110
    7SAPS   H3Y  885   2.576   0.042   9.672 -1.2044 -1.6280 -0.1300
    7SAPS   C34  886   2.439   0.156   9.541 -0.4497  0.5764  0.3820
    7SAPS   H4X  887   2.479   0.095   9.457 -2.9329  0.2468 -0.6053
    7SAPS   H4Y  888   2.492   0.251   9.520 -0.5506  0.8119  1.1713
    7SAPS   C35  889   2.288   0.178   9.532 -0.0605 -0.7973  0.3456
    7SAPS   H5X  890   2.245   0.222   9.625 -0.8693  1.2010 -0.9371
    7SAPS   H5Y  891   2.227   0.086   9.523 -1.1270 -0.1595  0.8548
    7SAPS   C36  892   2.246   0.276   9.418 -0.2778 -0.0919  0.0949
    7SAPS   H6X  893   2.338   0.328   9.382 -0.6437  0.4852 -0.0199
    7SAPS   H6Y  894   2.176   0.351   9.463  0.4074  1.9252 -2.1215
    7SAPS   C37  895   2.170   0.211   9.302 -0.3933  0.2132 -0.2989
    7SAPS   H7X  896   2.087   0.147   9.338 -0.5127 -0.0100 -0.9652
    7SAPS   H7Y  897   2.234   0.147   9.237 -2.2568  0.7787 -2.7322
    7SAPS   C38  898   2.108   0.319   9.202 -0.0663  0.2668 -0.6470
    7SAPS   H8X  899   2.174   0.392   9.150  0.7656 -1.1636 -1.6408
    7SAPS   H8Y  900   2.049   0.383   9.271 -0.0233 -0.4985  0.1129
    7SAPS   C39  901   2.013   0.258   9.096 -0.9278 -0.6243 -0.5359
    7SAPS   H9X  902   1.928   0.329   9.089 -0.0286  0.4896 -0.3134
    7SAPS   H9Y  903   1.974   0.162   9.135 -0.1518 -0.2646  1.1818
    7SAPS  C310  904   2.077   0.241   8.954 -0.0875  0.0917 -0.9961
    7SAPS  H10X  905   2.144   0.152   8.947  2.4117  1.7899  0.2945
    7SAPS  H10Y  906   2.146   0.327   8.939  1.1072 -0.1859  2.3838
    7SAPS  C311  907   1.972   0.223   8.846 -0.4739 -0.6052  0.6750
    7SAPS  H11X  908   1.902   0.309   8.845  0.9374  0.5468 -0.7965
    7SAPS  H11Y  909   1.917   0.126   8.853 -1.2900 -0.0042  3.0823
    7SAPS  C312  910   2.022   0.241   8.700 -0.0893 -0.2901 -0.7626
    7SAPS  H12X  911   2.082   0.149   8.678  0.8871  0.5160 -1.5320
    7SAPS  H12Y  912   2.096   0.323   8.687  1.7443 -1.8112 -0.2734
    7SAPS  C313  913   1.895   0.261   8.617 -0.1654  0.4746 -0.0571
    7SAPS  H13X  914   1.849   0.358   8.645 -1.3841 -0.3585  0.8596
    7SAPS  H13Y  915   1.818   0.189   8.651 -2.8605  1.9537 -2.8052
    7SAPS  C314  916   1.905   0.239   8.464 -0.2694  0.5783 -0.6315
    7SAPS  H14X  917   1.984   0.307   8.424  1.9299  0.0542  2.6555
    7SAPS  H14Y  918   1.807   0.272   8.421 -1.4172 -1.5407  0.3121
    7SAPS  C315  919   1.922   0.094   8.419  0.2602  0.5291  0.5582
    7SAPS  H15X  920   1.858   0.020   8.471  0.7716 -0.8637 -0.7442
    7SAPS  H15Y  921   2.024   0.054   8.440  0.1923 -0.6096 -1.1657
    7SAPS  C316  922   1.882   0.062   8.271 -0.4311  0.0181 -0.1757
    7SAPS  H16X  923   1.964   0.095   8.204  0.0765  4.0746  2.2830
    7SAPS  H16Y  924   1.790   0.122   8.253  0.5836  1.1515 -1.6765
    7SAPS  C317  925   1.849  -0.089   8.238  0.9338  0.9428 -0.0177
    7SAPS  H17X  926   1.838  -0.087   8.128  1.5125 -1.5343 -0.1448
    7SAPS  H17Y  927   1.752  -0.114   8.288  1.1442  0.9192  0.3773
    7SAPS  C318  928   1.943  -0.201   8.277 -0.0401  0.4662  0.6385
    7SAPS  H18X  929   1.917  -0.256   8.369  1.4251  0.5746  1.1318
    7SAPS  H18Y  930   2.046  -0.160   8.287 -0.1709  0.6148  1.4355
    7SAPS  H18Z  931   1.944  -0.279   8.198 -1.3435  0.4792  0.6035
    8SAPS     N  932   5.897   1.571  11.264 -0.3648 -0.1989  0.4279
    8SAPS   HN1  933   5.862   1.523  11.350 -1.0505 -0.6989 -0.1209
    8SAPS   HN2  934   5.952   1.658  11.276 -1.7082  0.7430 -0.1293
    8SAPS   HN3  935   5.823   1.581  11.192 -0.1109 -0.0233  0.1931
    8SAPS   C12  936   5.992   1.465  11.208  0.8449 -0.1849  0.2513
    8SAPS  H12A  937   6.084   1.461  11.265  1.2389  1.3673 -0.2458
    8SAPS   C13  938   5.925   1.316  11.217  0.4898 -0.3715 -0.4097
    8SAPS  O13A  939   5.807   1.313  11.257 -0.3647  0.3680 -0.1322
    8SAPS  O13B  940   6.000   1.220  11.236 -0.2159  0.3104 -0.4387
    8SAPS   C11  941   6.010   1.481  11.056  0.4040 -0.3292  0.7334
    8SAPS  H11A  942   5.909   1.453  11.018  0.1358  0.2944  0.9671
    8SAPS  H11B  943   6.077   1.400  11.023  0.9848  0.4624 -0.0518
    8SAPS     P  944   6.198   1.649  10.995  0.1216  0.1504  0.1749
    8SAPS   O13  945   6.214   1.783  11.058  0.5068  0.0234  0.9530
    8SAPS   O14  946   6.290   1.546  11.038 -0.0597  0.2985  0.7868
    8SAPS   O12  947   6.051   1.613  11.010  0.0347 -0.2546  0.4356
    8SAPS   O11  948   6.201   1.660  10.839  0.4823  0.3508 -0.0101
    8SAPS    C1  949   6.293   1.753  10.770 -0.0398  0.2199  0.1426
    8SAPS    HA  950   6.296   1.856  10.811  1.3076  0.8900 -1.5645
    8SAPS    HB  951   6.402   1.730  10.772  0.4710  1.9929 -3.1128
    8SAPS    C2  952   6.245   1.750  10.620  0.0590  0.8236 -0.3440
    8SAPS    HS  953   6.142   1.791  10.615  0.1010  1.0054  0.2225
    8SAPS   O21  954   6.250   1.612  10.572 -0.3825 -0.0451  0.5292
    8SAPS   C21  955   6.166   1.592  10.474 -0.0576 -0.4132 -0.0322
    8SAPS   O22  956   6.067   1.656  10.445 -0.4372  0.2839 -0.5830
    8SAPS   C22  957   6.203   1.463  10.401  0.1187 -0.1845  0.6493
    8SAPS   H2R  958   6.313   1.450  10.411  0.4865  1.8983 -0.2704
    8SAPS   H2S  959   6.142   1.389  10.458 -0.7542 -0.7136 -0.9329
    8SAPS    C3  960   6.332   1.835  10.530 -0.5732 -0.0115  0.5696
    8SAPS    HX  961   6.423   1.778  10.500 -0.6910 -0.5328  1.2124
    8SAPS    HY  962   6.368   1.921  10.590  1.3851  0.8504 -1.7700
    8SAPS   O31  963   6.261   1.881  10.420 -0.3548  0.0908  0.2229
    8SAPS   C31  964   6.176   1.981  10.423  0.1208 -0.6006  0.6384
    8SAPS   O32  965   6.152   2.046  10.523  0.7626 -0.4393  0.4369
    8SAPS   C32  966   6.146   2.016  10.279 -0.8733  0.1676  0.1019
    8SAPS   H2X  967   6.080   1.941  10.231 -1.0409  0.0060  0.5762
    8SAPS   H2Y  968   6.243   1.991  10.231 -0.1085  0.3123  1.5215
    8SAPS   C23  969   6.153   1.458  10.258 -0.1731  0.0913 -0.2370
    8SAPS   H3R  970   6.188   1.543  10.195  0.5922  0.3641  0.5474
    8SAPS   H3S  971   6.042   1.448  10.253 -0.0416 -0.8126 -1.9086
    8SAPS   C24  972   6.210   1.330  10.189  0.1248  0.4300  0.2129
    8SAPS   H4R  973   6.320   1.331  10.202  0.2054 -1.2514 -0.1909
    8SAPS   H4S  974   6.199   1.353  10.081 -3.2816  1.2478  0.6595
    8SAPS   C25  975   6.146   1.202  10.235 -0.4204 -0.4912 -0.3215
    8SAPS   H5R  976   6.159   1.181  10.342  0.5459  1.3375 -0.0565
    8SAPS   C26  977   6.073   1.114  10.162  0.5991 -0.2552 -0.0184
    8SAPS   H6R  978   6.045   1.018  10.208  2.0681 -0.5098  0.3697
    8SAPS   C27  979   6.045   1.126  10.021  0.1755  0.5805  0.0038
    8SAPS   H7R  980   6.098   1.043   9.969 -0.9105 -0.3920  0.4397
    8SAPS   H7S  981   6.088   1.220   9.981  0.5702  0.1736 -0.5376
    8SAPS   C28  982   5.900   1.138   9.995  0.4333  0.2618 -0.4021
    8SAPS   H8R  983   5.842   1.157  10.086  1.8491 -3.2362  1.3412
    8SAPS   C29  984   5.836   1.126   9.879  0.1122  0.8272 -0.8214
    8SAPS   H9R  985   5.727   1.141   9.868  0.1549  1.1745 -0.7664
    8SAPS  C210  986   5.896   1.091   9.739 -0.5735 -0.5750 -0.1766
    8SAPS  H10R  987   5.863   0.995   9.693 -2.5526  0.2310 -0.4466
    8SAPS  H10S  988   6.004   1.064   9.750 -0.5759 -0.9311 -1.0056
    8SAPS  C211  989   5.877   1.208   9.649  0.1414 -0.1232 -0.1710
    8SAPS  H11R  990   5.921   1.306   9.673  0.1056  0.4910 -2.4466
    8SAPS  C212  991   5.805   1.203   9.531 -0.0981 -0.2815  0.1054
    8SAPS  H12R  992   5.787   1.294   9.472 -2.4066 -0.5447  0.3514
    8SAPS  C213  993   5.740   1.076   9.489 -1.1950 -1.0639  0.2708
    8SAPS  H13R  994   5.690   1.017   9.568  1.7243 -0.5041  2.6044
    8SAPS  H13S  995   5.813   0.996   9.465  1.0784  0.6916  1.1801
    8SAPS  C214  996   5.635   1.106   9.381  0.5794 -0.0787 -0.7766
    8SAPS  H14R  997   5.541   1.155   9.413 -0.3227 -2.0878 -0.3015
    8SAPS  C215  998   5.640   1.067   9.252  0.3524 -0.2729 -0.6490
    8SAPS  H15R  999   5.548   1.094   9.197  0.3842  0.0301 -0.5559
    8SAPS  C216 1000   5.742   0.985   9.186  0.2853 -0.2745 -0.5462
    8SAPS  H16R 1001   5.747   0.893   9.249 -0.6522 -1.4739 -2.1818
    8SAPS  H16S 1002   5.841   1.034   9.176  0.2122 -0.7645 -4.1421
    8SAPS  C217 1003   5.693   0.939   9.041  0.6150 -0.9228 -0.2165
    8SAPS  H17R 1004   5.582   0.936   9.037  0.5344  0.9702  0.2337
    8SAPS  H17S 1005   5.721   0.832   9.033  3.1783 -0.4266  1.5902
    8SAPS  C218 1006   5.727   1.025   8.927 -0.6238 -0.1433 -0.1537
    8SAPS  H18R 1007   5.836   1.047   8.930 -0.2507 -1.9614 -0.0668
    8SAPS  H18S 1008   5.666   1.118   8.932 -2.6586 -1.5243  1.0234
    8SAPS  C219 1009   5.696   0.965   8.791 -0.4866  0.4012  0.3046
    8SAPS  H19R 1010   5.591   0.930   8.787 -0.7086  1.2300 -1.5442
    8SAPS  H19S 1011   5.756   0.873   8.774 -0.0792  0.8131 -0.5313
    8SAPS  C220 1012   5.714   1.063   8.676 -1.1356 -0.1088  0.2964
    8SAPS  H20R 1013   5.630   1.136   8.676  0.7893  2.2133 -1.9556
    8SAPS  H20S 1014   5.717   1.015   8.576 -2.2426 -0.5162  0.4477
    8SAPS  H20T 1015   5.813   1.110   8.692 -0.8611 -1.1356  1.6498
    8SAPS   C33 1016   6.113   2.163  10.242  0.4359  0.0806 -0.5882
    8SAPS   H3X 1017   6.197   2.233  10.261  0.0239  1.2206 -2.7591
    8SAPS   H3Y 1018   6.026   2.196  10.303 -0.3879  0.5763 -1.9756
    8SAPS   C34 1019   6.073   2.183  10.096 -0.3947  0.6512 -0.5988
    8SAPS   H4X 1020   6.146   2.121  10.040 -0.3783 -0.6104  0.8136
    8SAPS   H4Y 1021   6.084   2.288  10.060 -0.5687  0.7986 -0.2226
    8SAPS   C35 1022   5.935   2.129  10.054 -0.2625  0.4431  0.2173
    8SAPS   H5X 1023   5.853   2.197  10.083 -0.8665 -0.2095  0.0624
    8SAPS   H5Y 1024   5.922   2.030  10.103  0.6325 -0.5892 -1.5716
    8SAPS   C36 1025   5.918   2.125   9.901 -0.3416  0.3220  0.3496
    8SAPS   H6X 1026   6.009   2.086   9.849  1.3007  1.5235  2.2653
    8SAPS   H6Y 1027   5.894   2.228   9.866 -0.1675  0.2570  0.0292
    8SAPS   C37 1028   5.807   2.022   9.870 -0.0252  0.3966 -0.0366
    8SAPS   H7X 1029   5.716   2.052   9.926 -0.8919 -0.8335 -0.7897
    8SAPS   H7Y 1030   5.833   1.919   9.901  0.6807  1.3715  2.7992
    8SAPS   C38 1031   5.782   2.010   9.725  0.3261 -0.3032  0.1078
    8SAPS   H8X 1032   5.716   1.926   9.694 -1.2289  1.5618 -1.8296
    8SAPS   H8Y 1033   5.878   1.997   9.671 -0.6272 -0.7209 -1.5377
    8SAPS   C39 1034   5.706   2.132   9.668 -0.1278 -1.1925  0.3713
    8SAPS   H9X 1035   5.692   2.218   9.737 -1.0159 -0.7696 -0.3321
    8SAPS   H9Y 1036   5.599   2.110   9.647  0.0386 -1.4888 -0.1652
    8SAPS  C310 1037   5.771   2.176   9.537 -0.1447  0.7180  0.1304
    8SAPS  H10X 1038   5.760   2.086   9.472 -0.3063  0.8874 -0.0746
    8SAPS  H10Y 1039   5.882   2.185   9.541 -0.0815  0.3298 -0.5818
    8SAPS  C311 1040   5.723   2.299   9.466  0.1989 -0.8866  0.7184
    8SAPS  H11X 1041   5.702   2.380   9.539 -1.2986 -0.2106 -0.4457
    8SAPS  H11Y 1042   5.628   2.291   9.408 -0.0549  2.5349  0.5756
    8SAPS  C312 1043   5.836   2.351   9.365  0.4369 -0.4752 -0.2198
    8SAPS  H12X 1044   5.939   2.355   9.407  0.8796 -0.4552 -1.2913
    8SAPS  H12Y 1045   5.809   2.452   9.329 -0.2176 -1.0636 -1.4361
    8SAPS  C313 1046   5.844   2.262   9.237 -0.0398 -0.1497  0.2402
    8SAPS  H13X 1047   5.742   2.224   9.214  0.0698 -0.7545  0.7483
    8SAPS  H13Y 1048   5.908   2.173   9.251  1.6098  1.3301  2.6095
    8SAPS  C314 1049   5.909   2.332   9.114 -0.1325 -0.2497 -0.0986
    8SAPS  H14X 1050   5.998   2.383   9.158  0.8399  0.4226 -2.7661
    8SAPS  H14Y 1051   5.833   2.400   9.069 -4.4512 -2.0454  3.9833
    8SAPS  C315 1052   5.960   2.239   9.000 -0.0970 -0.0440 -0.3841
    8SAPS  H15X 1053   5.888   2.166   8.959 -2.2731  2.3765 -1.0068
    8SAPS  H15Y 1054   6.051   2.188   9.037  0.6309  1.1220 -0.5370
    8SAPS  C316 1055   6.006   2.313   8.879  0.1778 -0.0633  0.6255
    8SAPS  H16X 1056   6.091   2.378   8.909  1.2195 -0.9960 -0.2765
    8SAPS  H16Y 1057   5.931   2.378   8.828  0.6671 -0.9885 -1.3041
    8SAPS  C317 1058   6.052   2.224   8.760 -0.6420 -0.8735  0.2095
    8SAPS  H17X 1059   6.086   2.280   8.670 -1.0686 -1.0343 -0.0502
    8SAPS  H17Y 1060   5.967   2.159   8.731  0.3329 -1.9166 -0.3272
    8SAPS  C318 1061   6.175   2.132   8.786 -0.2794  0.0273  0.1308
    8SAPS  H18X 1062   6.147   2.050   8.856 -1.6765  0.8739  0.5881
    8SAPS  H18Y 1063   6.254   2.197   8.829 -3.1830  2.1397  2.3940
    8SAPS  H18Z 1064   6.215   2.092   8.690  0.5808  1.6674 -0.2069
    9SAPS     N 1065   1.758   4.376   6.018 -0.9187 -0.7639 -0.3768
    9SAPS   HN1 1066   1.846   4.328   5.989 -0.5518 -0.0911 -0.3752
    9SAPS   HN2 1067   1.683   4.380   5.947 -0.9723  0.2390 -0.2614
    9SAPS   HN3 1068   1.790   4.474   6.030  1.2575 -1.3710 -0.9978
    9SAPS   C12 1069   1.716   4.331   6.152  0.5291  0.7833  0.7086
    9SAPS  H12A 1070   1.629   4.391   6.172  1.1405  1.6521  0.7862
    9SAPS   C13 1071   1.678   4.179   6.170 -0.5409 -0.5461 -0.0214
    9SAPS  O13A 1072   1.648   4.111   6.069  0.6180 -0.8345  0.2469
    9SAPS  O13B 1073   1.653   4.137   6.286  0.0115 -0.1799  0.0171
    9SAPS   C11 1074   1.828   4.368   6.262  0.4619 -0.2231 -0.1519
    9SAPS  H11A 1075   1.917   4.309   6.229 -1.2723 -3.8456  1.3719
    9SAPS  H11B 1076   1.806   4.318   6.358 -1.2994 -2.1174 -1.5042
    9SAPS     P 1077   1.984   4.566   6.312 -0.3573  0.2429  0.7914
    9SAPS   O13 1078   2.092   4.493   6.238  0.2941  0.0774 -0.7864
    9SAPS   O14 1079   1.981   4.710   6.294  0.0844  0.3743  0.5141
    9SAPS   O12 1080   1.839   4.508   6.278 -0.2445 -0.8679  0.2115
    9SAPS   O11 1081   1.998   4.529   6.461 -0.2322 -0.0120 -0.0965
    9SAPS    C1 1082   1.889   4.582   6.543  0.5386 -0.2531 -0.1865
    9SAPS    HA 1083   1.881   4.693   6.539 -0.4228 -0.2503  1.5908
    9SAPS    HB 1084   1.791   4.535   6.521 -0.2164  0.7116  1.0525
    9SAPS    C2 1085   1.906   4.559   6.698  0.4395 -0.1971 -0.4604
    9SAPS    HS 1086   1.850   4.634   6.758 -1.0675  0.1196 -2.2576
    9SAPS   O21 1087   2.046   4.553   6.728  0.6101  0.1097 -0.2580
    9SAPS   C21 1088   2.107   4.675   6.725 -0.3856  0.8351 -0.3420
    9SAPS   O22 1089   2.055   4.786   6.711 -0.1839  0.1813  0.3567
    9SAPS   C22 1090   2.259   4.660   6.720  0.5326  0.7081 -0.0694
    9SAPS   H2R 1091   2.300   4.617   6.626 -0.0763  0.0499 -0.0373
    9SAPS   H2S 1092   2.296   4.765   6.721  0.9677  0.5910 -1.8573
    9SAPS    C3 1093   1.839   4.427   6.732 -0.8405  0.1402 -0.0223
    9SAPS    HX 1094   1.876   4.349   6.663  0.3782  0.2703  0.4668
    9SAPS    HY 1095   1.736   4.438   6.691 -0.5682  1.5980 -0.3581
    9SAPS   O31 1096   1.846   4.409   6.872  0.3806 -0.5655 -0.1209
    9SAPS   C31 1097   1.954   4.338   6.913 -0.3210  0.1451  0.6285
    9SAPS   O32 1098   2.029   4.282   6.834 -0.4076  0.4275  0.4054
    9SAPS   C32 1099   1.964   4.334   7.064  1.0578  0.4086 -0.3909
    9SAPS   H2X 1100   1.944   4.432   7.114  0.0892 -0.3769  0.8071
    9SAPS   H2Y 1101   2.066   4.298   7.089  1.2895  1.9902  1.0516
    9SAPS   C23 1102   2.307   4.576   6.839 -0.4493 -0.4017 -0.6525
    9SAPS   H3R 1103   2.407   4.537   6.810  0.1196  0.9282 -0.5432
    9SAPS   H3S 1104   2.245   4.486   6.856 -1.8859  0.0956 -3.0079
    9SAPS   C24 1105   2.327   4.654   6.971 -0.4248 -1.1373 -0.3879
    9SAPS   H4R 1106   2.227   4.695   6.993 -0.1314 -0.6292 -0.0148
    9SAPS   H4S 1107   2.396   4.740   6.974  0.1510 -1.5954 -0.3977
    9SAPS   C25 1108   2.381   4.550   7.068 -0.0235 -0.0659 -0.2738
    9SAPS   H5R 1109   2.299   4.497   7.119  0.2544 -0.1689  0.0678
    9SAPS   C26 1110   2.513   4.530   7.107  0.0433  0.1126 -0.4850
    9SAPS   H6R 1111   2.526   4.436   7.162 -3.2039 -1.7859 -2.7718
    9SAPS   C27 1112   2.637   4.611   7.069 -0.4625 -0.0228 -0.4886
    9SAPS   H7R 1113   2.597   4.714   7.073  0.5304  0.3139  1.2504
    9SAPS   H7S 1114   2.672   4.601   6.965 -0.3813  1.7641 -0.6362
    9SAPS   C28 1115   2.763   4.588   7.164 -1.0528  0.0712 -1.2891
    9SAPS   H8R 1116   2.840   4.521   7.122  1.2546  2.6934 -1.3835
    9SAPS   C29 1117   2.789   4.640   7.288  0.4317  0.1558 -0.5516
    9SAPS   H9R 1118   2.880   4.606   7.338 -0.5183  2.7216  3.1115
    9SAPS  C210 1119   2.695   4.733   7.352  0.6173 -0.1381  0.0952
    9SAPS  H10R 1120   2.596   4.728   7.302  0.7110 -2.8873  0.0881
    9SAPS  H10S 1121   2.736   4.836   7.347 -0.8126  0.4387  0.0617
    9SAPS  C211 1122   2.682   4.698   7.497  0.3337 -0.3494 -0.0295
    9SAPS  H11R 1123   2.623   4.607   7.515 -0.6172 -0.1158 -1.8782
    9SAPS  C212 1124   2.754   4.755   7.592 -0.2277 -0.0477  0.2131
    9SAPS  H12R 1125   2.730   4.713   7.691 -2.0372 -0.2454 -0.2936
    9SAPS  C213 1126   2.869   4.856   7.583 -0.2843  1.0710  0.2808
    9SAPS  H13R 1127   2.920   4.840   7.486 -0.6491 -0.6934  0.3480
    9SAPS  H13S 1128   2.952   4.827   7.651 -0.5229 -0.6454 -0.1387
    9SAPS  C214 1129   2.834   5.000   7.597 -0.1474  0.2786 -0.5443
    9SAPS  H14R 1130   2.831   5.049   7.499 -0.3695  0.0729 -0.6396
    9SAPS  C215 1131   2.817   5.067   7.707 -0.0288 -0.3757  0.7311
    9SAPS  H15R 1132   2.800   5.175   7.700 -0.0851 -0.4457 -0.2331
    9SAPS  C216 1133   2.841   5.016   7.849  0.2835 -0.2989  0.5640
    9SAPS  H16R 1134   2.934   5.065   7.885  0.0762 -1.9830  3.5913
    9SAPS  H16S 1135   2.871   4.910   7.856  2.4979  0.2309 -0.4314
    9SAPS  C217 1136   2.722   5.045   7.947  0.3613 -0.1409 -0.1301
    9SAPS  H17R 1137   2.632   5.012   7.891 -1.1412  0.9567  1.5956
    9SAPS  H17S 1138   2.708   5.154   7.964 -3.8049 -0.9105  1.9170
    9SAPS  C218 1139   2.739   4.969   8.073 -0.2171 -0.2491 -0.7911
    9SAPS  H18R 1140   2.764   4.866   8.040  0.9151 -1.0205  2.2627
    9SAPS  H18S 1141   2.646   4.961   8.134 -0.1461  1.1456 -0.4728
    9SAPS  C219 1142   2.841   5.032   8.163 -0.3745  0.1650 -0.6266
    9SAPS  H19R 1143   2.800   5.133   8.185  0.3726  0.9895 -2.8984
    9SAPS  H19S 1144   2.939   5.041   8.111  0.0999 -0.4931  0.1325
    9SAPS  C220 1145   2.869   4.951   8.291  0.5781  0.8534  0.5464
    9SAPS  H20R 1146   2.929   4.862   8.264 -0.3252 -0.3149  2.2573
    9SAPS  H20S 1147   2.769   4.915   8.324  0.6826  0.6908  0.6885
    9SAPS  H20T 1148   2.909   5.016   8.372 -0.9089  2.0724  0.3322
    9SAPS   C33 1149   1.851   4.233   7.115  0.5210 -0.4437 -0.0537
    9SAPS   H3X 1150   1.858   4.136   7.062  2.6042  1.0950 -2.7338
    9SAPS   H3Y 1151   1.753   4.279   7.091  1.4237  0.6326 -1.8025
    9SAPS   C34 1152   1.866   4.195   7.261 -0.1690  0.2162  0.3912
    9SAPS   H4X 1153   1.951   4.125   7.275  0.2177  0.2106 -1.7541
    9SAPS   H4Y 1154   1.773   4.140   7.286  0.3257 -0.4641  0.7386
    9SAPS   C35 1155   1.873   4.304   7.360 -0.3457  0.2978  0.4651
    9SAPS   H5X 1156   1.778   4.361   7.363 -0.1218  0.7172 -0.2352
    9SAPS   H5Y 1157   1.951   4.380   7.335 -0.5500  0.0167 -1.0537
    9SAPS   C36 1158   1.903   4.259   7.508 -0.1134  0.3160  0.9421
    9SAPS   H6X 1159   2.005   4.218   7.493 -0.9728 -0.6625 -2.8365
    9SAPS   H6Y 1160   1.839   4.169   7.526  0.2320  0.1453  1.3082
    9SAPS   C37 1161   1.902   4.365   7.608  0.3585 -0.1751  0.8379
    9SAPS   H7X 1162   1.803   4.416   7.605  1.1847  1.3768 -2.5790
    9SAPS   H7Y 1163   1.972   4.442   7.571 -0.2627  0.8454  1.7410
    9SAPS   C38 1164   1.938   4.323   7.752 -0.2508  0.4425  0.1175
    9SAPS   H8X 1165   2.017   4.247   7.732 -1.5929 -1.4137  1.6342
    9SAPS   H8Y 1166   1.860   4.258   7.797  0.2566  0.1892  0.6389
    9SAPS   C39 1167   1.993   4.433   7.833 -0.1155 -1.5629 -0.7557
    9SAPS   H9X 1168   1.929   4.523   7.838 -0.0874 -1.5399 -0.8145
    9SAPS   H9Y 1169   2.087   4.468   7.784  1.6194 -0.2479  3.2671
    9SAPS  C310 1170   2.039   4.382   7.973  0.0235  0.4587  0.0303
    9SAPS  H10X 1171   2.097   4.288   7.966 -0.7701  0.0698 -1.5151
    9SAPS  H10Y 1172   1.949   4.356   8.034 -0.2442 -0.9217 -0.9316
    9SAPS  C311 1173   2.117   4.486   8.057  0.2874 -0.2288  0.0400
    9SAPS  H11X 1174   2.035   4.560   8.068  0.6362  0.3931 -1.4440
    9SAPS  H11Y 1175   2.208   4.524   8.006  2.1934 -1.6909  2.2642
    9SAPS  C312 1176   2.162   4.437   8.198  0.6844  0.5486  0.2498
    9SAPS  H12X 1177   2.221   4.343   8.195  0.4414  0.4069 -0.1709
    9SAPS  H12Y 1178   2.064   4.433   8.250  1.0612 -1.5543  0.8389
    9SAPS  C313 1179   2.251   4.537   8.278  0.5551 -0.5281  0.5605
    9SAPS  H13X 1180   2.336   4.556   8.210 -0.6097  0.5788 -0.6335
    9SAPS  H13Y 1181   2.287   4.503   8.377  2.2086 -1.4169 -0.3338
    9SAPS  C314 1182   2.186   4.662   8.314  0.3049 -0.5269 -0.5248
    9SAPS  H14X 1183   2.079   4.649   8.340 -0.3809  3.4970 -0.9241
    9SAPS  H14Y 1184   2.191   4.722   8.220 -0.1391 -0.3880 -0.4649
    9SAPS  C315 1185   2.262   4.733   8.425  0.5056 -0.4892  0.2022
    9SAPS  H15X 1186   2.257   4.675   8.520 -0.4580 -1.0433 -0.1861
    9SAPS  H15Y 1187   2.213   4.830   8.452 -1.4145 -1.1322 -0.9033
    9SAPS  C316 1188   2.410   4.771   8.404  0.3887  0.7293 -0.1929
    9SAPS  H16X 1189   2.404   4.851   8.327 -0.2100 -0.4851 -1.4083
    9SAPS  H16Y 1190   2.458   4.683   8.357 -0.8453  1.7641 -3.4901
    9SAPS  C317 1191   2.475   4.823   8.538 -0.2166  0.2416 -0.2589
    9SAPS  H17X 1192   2.474   4.745   8.617  0.0982 -0.3536 -0.8372
    9SAPS  H17Y 1193   2.419   4.910   8.576 -1.4099  0.1682 -1.8106
    9SAPS  C318 1194   2.623   4.863   8.534 -0.5420 -0.4307 -0.2233
    9SAPS  H18X 1195   2.645   4.957   8.480 -1.0995  0.4056  0.9688
    9SAPS  H18Y 1196   2.681   4.781   8.487  2.0527  0.9880  0.4332
    9SAPS  H18Z 1197   2.670   4.870   8.634  0.0628 -0.2616 -0.5162
   10SAPS     N 1198   2.427   3.480   6.058 -0.4240 -0.4233  0.1057
   10SAPS   HN1 1199   2.407   3.582   6.061  1.7255 -0.0122  1.0818
   10SAPS   HN2 1200   2.486   3.472   6.143 -1.1826 -0.4753  0.6321
   10SAPS   HN3 1201   2.473   3.454   5.968 -0.6144  0.2639 -0.1929
   10SAPS   C12 1202   2.300   3.395   6.067  0.0959 -0.6958  1.4093
   10SAPS  H12A 1203   2.225   3.453   6.015  1.3092  0.1787  0.6131
   10SAPS   C13 1204   2.310   3.269   5.976  0.2288  0.3154 -0.9459
   10SAPS  O13A 1205   2.407   3.269   5.894  0.2181  0.1186  0.2805
   10SAPS  O13B 1206   2.209   3.196   5.967 -0.6132 -0.7909 -0.1019
   10SAPS   C11 1207   2.269   3.362   6.214  0.2376  0.0040  0.1346
   10SAPS  H11A 1208   2.181   3.294   6.215 -0.5555  1.0091  0.7896
   10SAPS  H11B 1209   2.233   3.456   6.262 -2.4635 -0.7538 -0.3332
   10SAPS     P 1210   2.381   3.217   6.397  0.1688  0.3176 -0.2614
   10SAPS   O13 1211   2.270   3.123   6.388  0.4223 -0.8531  0.3977
   10SAPS   O14 1212   2.521   3.158   6.419 -0.7116  0.2966 -0.2729
   10SAPS   O12 1213   2.389   3.311   6.271  0.4780 -0.1972 -0.1531
   10SAPS   O11 1214   2.346   3.316   6.519  0.1465  0.5742  0.2272
   10SAPS    C1 1215   2.390   3.457   6.503  0.0027 -0.0692 -0.0298
   10SAPS    HA 1216   2.498   3.461   6.478 -0.1096 -0.2664 -0.5441
   10SAPS    HB 1217   2.328   3.516   6.433 -0.6361  2.6164  2.6698
   10SAPS    C2 1218   2.404   3.537   6.642 -0.0985  0.2790 -0.1544
   10SAPS    HS 1219   2.491   3.605   6.633 -0.3856  0.5949 -0.5705
   10SAPS   O21 1220   2.413   3.453   6.757  0.1349 -0.3809  0.4006
   10SAPS   C21 1221   2.522   3.379   6.758 -0.1377  0.2322 -0.1295
   10SAPS   O22 1222   2.628   3.399   6.696  0.3875 -0.2516 -0.1375
   10SAPS   C22 1223   2.511   3.266   6.864  0.6451 -0.2604  0.1889
   10SAPS   H2R 1224   2.445   3.299   6.947 -0.0655 -3.3327  0.9106
   10SAPS   H2S 1225   2.459   3.190   6.802 -0.9350  0.0367  1.1340
   10SAPS    C3 1226   2.289   3.637   6.665 -0.0004 -0.0717  0.8604
   10SAPS    HX 1227   2.202   3.580   6.704 -0.4169 -0.6879 -0.9151
   10SAPS    HY 1228   2.273   3.677   6.563  0.8297  2.0215  1.5302
   10SAPS   O31 1229   2.327   3.744   6.761 -0.4242  0.7027  0.0637
   10SAPS   C31 1230   2.231   3.832   6.785  0.3353  0.2917  0.2271
   10SAPS   O32 1231   2.110   3.821   6.766 -0.5959 -0.5264 -0.6274
   10SAPS   C32 1232   2.290   3.972   6.826  0.9716  0.3226  0.5129
   10SAPS   H2X 1233   2.275   4.044   6.743  0.0893 -1.2010 -0.6765
   10SAPS   H2Y 1234   2.400   3.961   6.838  1.3999 -1.8826 -4.2808
   10SAPS   C23 1235   2.640   3.231   6.935 -0.3166  0.5238 -0.1413
   10SAPS   H3R 1236   2.685   3.324   6.975  1.1657 -0.1080 -0.3179
   10SAPS   H3S 1237   2.702   3.184   6.856  1.6500  0.6849  1.2637
   10SAPS   C24 1238   2.626   3.125   7.041  0.1511 -0.1062  0.4341
   10SAPS   H4R 1239   2.732   3.103   7.066  0.2983  0.2800  0.1737
   10SAPS   H4S 1240   2.584   3.033   6.996  0.7916 -0.3663  0.3619
   10SAPS   C25 1241   2.540   3.163   7.164  0.8019  0.1374 -0.0891
   10SAPS   H5R 1242   2.434   3.181   7.142  0.7843  1.8269  1.2397
   10SAPS   C26 1243   2.583   3.193   7.288 -0.1161 -0.1341 -0.2724
   10SAPS   H6R 1244   2.511   3.219   7.367 -1.0544 -0.1706 -1.0964
   10SAPS   C27 1245   2.734   3.188   7.326  0.6844 -0.3773 -0.0598
   10SAPS   H7R 1246   2.788   3.231   7.240 -0.6414  1.8324  0.1970
   10SAPS   H7S 1247   2.758   3.080   7.336  0.1022 -0.4183  1.1053
   10SAPS   C28 1248   2.755   3.261   7.463  0.1445  0.1443 -0.0588
   10SAPS   H8R 1249   2.783   3.366   7.446 -0.1170  0.3492  0.7413
   10SAPS   C29 1250   2.751   3.204   7.590 -0.0561 -0.2389  0.6585
   10SAPS   H9R 1251   2.782   3.273   7.670  0.7674  3.2822 -2.5660
   10SAPS  C210 1252   2.714   3.063   7.628 -1.0940  0.2061 -0.9809
   10SAPS  H10R 1253   2.724   2.987   7.548 -3.6080 -1.6859  0.4465
   10SAPS  H10S 1254   2.608   3.058   7.662 -0.5979  1.2047  0.7498
   10SAPS  C211 1255   2.810   3.023   7.741  0.0399  0.5534 -0.4511
   10SAPS  H11R 1256   2.910   3.004   7.698  0.4518  0.0603  0.7059
   10SAPS  C212 1257   2.786   3.030   7.874  0.1238 -0.5437 -0.5636
   10SAPS  H12R 1258   2.867   2.994   7.939 -0.8414  1.7257  1.9943
   10SAPS  C213 1259   2.667   3.078   7.952  0.0064 -0.2257 -0.2640
   10SAPS  H13R 1260   2.584   3.115   7.887 -1.1509 -0.3814  1.0806
   10SAPS  H13S 1261   2.693   3.162   8.020 -2.8615  1.2365 -0.9004
   10SAPS  C214 1262   2.614   2.964   8.031  0.7766 -0.6669  0.1593
   10SAPS  H14R 1263   2.535   2.907   7.980 -2.4545  0.9886  3.0816
   10SAPS  C215 1264   2.657   2.914   8.144 -0.2820 -0.4065  0.9205
   10SAPS  H15R 1265   2.614   2.822   8.187  0.6805 -0.0636  2.7107
   10SAPS  C216 1266   2.776   2.970   8.223  0.5633  0.4884 -0.3401
   10SAPS  H16R 1267   2.736   3.018   8.315  2.4556 -0.6153  1.0795
   10SAPS  H16S 1268   2.835   3.046   8.168 -0.4058  0.2717 -1.7103
   10SAPS  C217 1269   2.877   2.867   8.269  0.6257  0.0109 -0.4638
   10SAPS  H17R 1270   2.829   2.775   8.309  1.7963  0.8205  2.9474
   10SAPS  H17S 1271   2.922   2.921   8.355  1.5520  1.0519 -1.5760
   10SAPS  C218 1272   2.976   2.824   8.160 -0.2939  0.5046  0.3651
   10SAPS  H18R 1273   2.933   2.805   8.060  0.9978 -2.5610  0.3066
   10SAPS  H18S 1274   3.025   2.738   8.212  0.1902 -1.5163 -3.2328
   10SAPS  C219 1275   3.086   2.933   8.132 -0.0288  0.3224  0.4786
   10SAPS  H19R 1276   3.033   3.012   8.075  0.2610 -0.8335 -1.4390
   10SAPS  H19S 1277   3.174   2.915   8.067 -0.7297  2.0222 -0.9811
   10SAPS  C220 1278   3.138   3.008   8.257  0.0467 -0.2973  0.1665
   10SAPS  H20R 1279   3.070   3.089   8.291  0.0495 -0.5348  0.7331
   10SAPS  H20S 1280   3.231   3.064   8.234  1.6871 -2.4946  1.2594
   10SAPS  H20T 1281   3.155   2.950   8.350 -0.5305  0.1130  0.5360
   10SAPS   C33 1282   2.232   4.041   6.947 -0.0529  0.1964  0.3319
   10SAPS   H3X 1283   2.127   4.069   6.924  0.2321 -0.2083 -1.5222
   10SAPS   H3Y 1284   2.284   4.139   6.953 -0.8320  0.6610 -0.3792
   10SAPS   C34 1285   2.244   3.967   7.080 -0.5912 -0.6412 -1.0368
   10SAPS   H4X 1286   2.352   3.940   7.079 -0.5143 -0.3075 -1.5959
   10SAPS   H4Y 1287   2.184   3.873   7.079  0.1749 -1.1820  1.1798
   10SAPS   C35 1288   2.219   4.068   7.192  0.0578  0.5890  0.0242
   10SAPS   H5X 1289   2.218   4.002   7.282  0.0680  0.7826  0.1674
   10SAPS   H5Y 1290   2.117   4.111   7.186  0.2213  0.7950 -1.5343
   10SAPS   C36 1291   2.332   4.170   7.212 -0.5120 -0.6128 -0.8566
   10SAPS   H6X 1292   2.331   4.228   7.118 -0.1209 -1.2073 -1.2261
   10SAPS   H6Y 1293   2.429   4.116   7.207  0.3916  0.7518  1.1278
   10SAPS   C37 1294   2.326   4.244   7.344 -0.5784 -0.1371  0.1719
   10SAPS   H7X 1295   2.233   4.304   7.338  1.6568  3.9400  3.6642
   10SAPS   H7Y 1296   2.411   4.313   7.363 -1.0448  0.5029 -0.0731
   10SAPS   C38 1297   2.317   4.150   7.468 -0.2050 -0.0054 -0.6590
   10SAPS   H8X 1298   2.403   4.081   7.483 -0.4093 -0.3568 -1.0572
   10SAPS   H8Y 1299   2.229   4.082   7.470  0.8461 -1.5916 -4.0280
   10SAPS   C39 1300   2.294   4.243   7.591 -0.4105  0.6383  0.0388
   10SAPS   H9X 1301   2.256   4.177   7.672  2.5853  2.9817  3.5267
   10SAPS   H9Y 1302   2.214   4.318   7.571 -1.8275 -0.6564  0.7857
   10SAPS  C310 1303   2.426   4.302   7.634  0.4050  0.5577 -0.1672
   10SAPS  H10X 1304   2.442   4.389   7.567 -1.2547  0.3122 -0.8959
   10SAPS  H10Y 1305   2.500   4.223   7.607  0.4786  0.6190 -0.1416
   10SAPS  C311 1306   2.434   4.349   7.782 -0.1408  0.9351  0.8179
   10SAPS  H11X 1307   2.429   4.247   7.825 -0.1373  0.6482  0.1365
   10SAPS  H11Y 1308   2.348   4.412   7.815 -0.9622 -0.7554  1.9897
   10SAPS  C312 1309   2.571   4.430   7.813 -0.0800  0.4915  0.3547
   10SAPS  H12X 1310   2.574   4.530   7.765 -0.1345  0.6909  0.7599
   10SAPS  H12Y 1311   2.662   4.377   7.776 -0.7720 -1.7218  1.6980
   10SAPS  C313 1312   2.598   4.436   7.957  0.5523 -0.7148  0.2532
   10SAPS  H13X 1313   2.579   4.335   7.998 -1.5054  0.3975  2.1800
   10SAPS  H13Y 1314   2.538   4.519   8.002  0.9604 -0.5946  0.5827
   10SAPS  C314 1315   2.747   4.469   7.971  1.1083 -0.2333 -0.1241
   10SAPS  H14X 1316   2.782   4.540   7.893 -0.9211 -1.3651 -2.1267
   10SAPS  H14Y 1317   2.821   4.386   7.971 -0.6699 -1.8359  0.2473
   10SAPS  C315 1318   2.765   4.519   8.117 -0.5923 -0.1337  0.3937
   10SAPS  H15X 1319   2.705   4.610   8.133 -2.2718 -1.2510  0.5734
   10SAPS  H15Y 1320   2.876   4.527   8.118 -0.2631 -2.7265 -3.7952
   10SAPS  C316 1321   2.729   4.412   8.221 -0.0825  0.3618  0.0041
   10SAPS  H16X 1322   2.779   4.314   8.210  0.9087  0.8971 -0.3039
   10SAPS  H16Y 1323   2.620   4.393   8.215 -0.1426  0.5204  0.5245
   10SAPS  C317 1324   2.743   4.459   8.364 -0.1980  0.1418 -1.0677
   10SAPS  H17X 1325   2.697   4.558   8.380 -0.6026 -0.5314  2.5738
   10SAPS  H17Y 1326   2.850   4.464   8.394 -0.7992  1.1435  1.0112
   10SAPS  C318 1327   2.686   4.370   8.481 -0.2819  0.1572 -0.1978
   10SAPS  H18X 1328   2.708   4.403   8.585  0.6820  1.5430 -0.8167
   10SAPS  H18Y 1329   2.705   4.263   8.460 -2.2655 -0.3742  0.6184
   10SAPS  H18Z 1330   2.576   4.377   8.466 -0.4037 -1.0584  0.0740
   11SAPS     N 1331   4.731   6.736   5.648 -0.5705 -0.4998  0.0364
   11SAPS   HN1 1332   4.814   6.776   5.697 -0.4138  0.0555 -0.6767
   11SAPS   HN2 1333   4.680   6.808   5.594 -0.6294 -0.4118  0.2104
   11SAPS   HN3 1334   4.665   6.706   5.723 -1.5151  0.3485 -0.4491
   11SAPS   C12 1335   4.773   6.631   5.546 -0.6337 -0.1629  0.4122
   11SAPS  H12A 1336   4.690   6.570   5.512  0.6705 -2.1016  0.6688
   11SAPS   C13 1337   4.837   6.697   5.423  0.1590 -0.0142  0.0354
   11SAPS  O13A 1338   4.846   6.820   5.414  0.7706  0.2794 -0.4141
   11SAPS  O13B 1339   4.887   6.614   5.345  0.0609  0.1962 -0.3278
   11SAPS   C11 1340   4.865   6.540   5.621 -0.4700  0.2705 -0.1706
   11SAPS  H11A 1341   4.951   6.603   5.654 -0.2444  0.0683 -0.3668
   11SAPS  H11B 1342   4.887   6.454   5.555 -1.6372 -0.6772  0.6519
   11SAPS     P 1343   4.821   6.338   5.799 -0.1494  0.1771 -0.0773
   11SAPS   O13 1344   4.700   6.250   5.775  0.2097 -0.3511  0.2946
   11SAPS   O14 1345   4.949   6.284   5.750 -0.0386 -0.3930  0.0507
   11SAPS   O12 1346   4.800   6.482   5.737 -0.3796 -0.7039  0.0003
   11SAPS   O11 1347   4.830   6.378   5.950 -0.1818  0.5600 -0.1445
   11SAPS    C1 1348   4.813   6.511   6.001 -0.7092 -0.1354  0.6053
   11SAPS    HA 1349   4.881   6.578   5.944 -3.4045  0.6201 -1.8118
   11SAPS    HB 1350   4.711   6.555   5.995 -1.6355 -2.2446  0.4025
   11SAPS    C2 1351   4.867   6.516   6.146 -0.2599  0.1129  0.3833
   11SAPS    HS 1352   4.965   6.465   6.153 -0.8031 -0.7419  1.8250
   11SAPS   O21 1353   4.769   6.461   6.229  0.6186  0.6925 -0.4649
   11SAPS   C21 1354   4.810   6.375   6.320 -0.1346  0.9854  0.2144
   11SAPS   O22 1355   4.924   6.356   6.357  0.5987 -0.8264 -0.0119
   11SAPS   C22 1356   4.693   6.295   6.376 -0.0717 -0.4547 -0.6358
   11SAPS   H2R 1357   4.610   6.367   6.392  0.2719 -0.0609 -0.6090
   11SAPS   H2S 1358   4.671   6.212   6.307 -1.3448  0.1584 -0.9763
   11SAPS    C3 1359   4.885   6.665   6.191 -0.4942  0.8873  0.5680
   11SAPS    HX 1360   4.792   6.723   6.174 -1.0307 -0.4238 -1.0296
   11SAPS    HY 1361   4.954   6.726   6.129 -0.5133  1.6408  1.2827
   11SAPS   O31 1362   4.937   6.681   6.322 -0.0990  0.0779  0.0951
   11SAPS   C31 1363   4.846   6.697   6.417  0.2177 -0.0086  0.4674
   11SAPS   O32 1364   4.725   6.687   6.400  0.0087 -0.5197 -1.0369
   11SAPS   C32 1365   4.926   6.738   6.542 -0.1391  0.0976  0.0135
   11SAPS   H2X 1366   4.973   6.833   6.509 -2.9888  1.6594  0.3570
   11SAPS   H2Y 1367   4.994   6.654   6.567 -1.5001 -1.4254 -1.2538
   11SAPS   C23 1368   4.720   6.239   6.520 -0.7239 -0.1080 -0.4641
   11SAPS   H3R 1369   4.753   6.323   6.584  0.3381  0.2765 -1.4999
   11SAPS   H3S 1370   4.810   6.174   6.523 -1.3198 -0.8809  1.7207
   11SAPS   C24 1371   4.605   6.164   6.594 -0.2080  0.1647 -0.3287
   11SAPS   H4R 1372   4.639   6.100   6.677 -0.3702 -0.0499 -0.4280
   11SAPS   H4S 1373   4.563   6.097   6.516 -0.7451 -0.3749  0.4186
   11SAPS   C25 1374   4.502   6.264   6.632 -0.4292  0.2244 -0.2764
   11SAPS   H5R 1375   4.439   6.299   6.549 -0.5700 -2.0167 -1.1397
   11SAPS   C26 1376   4.471   6.292   6.768  0.0626 -0.3103  0.3751
   11SAPS   H6R 1377   4.382   6.350   6.796  0.9484  1.5206 -0.4853
   11SAPS   C27 1378   4.547   6.241   6.886  0.3311  0.3603 -0.3075
   11SAPS   H7R 1379   4.609   6.327   6.922  0.4464 -0.3860  1.3618
   11SAPS   H7S 1380   4.624   6.163   6.866 -0.7550 -0.7270 -0.3015
   11SAPS   C28 1381   4.457   6.180   6.995 -0.4623  0.2883 -0.6222
   11SAPS   H8R 1382   4.386   6.105   6.957  0.4104 -0.9042  0.0736
   11SAPS   C29 1383   4.445   6.227   7.124 -0.4181  0.4351 -0.4423
   11SAPS   H9R 1384   4.375   6.182   7.196  2.5815 -0.8359  1.8035
   11SAPS  C210 1385   4.531   6.339   7.182 -0.1271  0.2414 -0.0350
   11SAPS  H10R 1386   4.616   6.372   7.119 -1.1139  1.1708 -0.8804
   11SAPS  H10S 1387   4.563   6.294   7.279 -0.9502 -1.9444 -0.7482
   11SAPS  C211 1388   4.433   6.447   7.212 -0.6589  0.0717 -0.4861
   11SAPS  H11R 1389   4.405   6.505   7.123 -2.0984  0.6371  0.3069
   11SAPS  C212 1390   4.392   6.494   7.327 -0.0668  0.2974 -0.3800
   11SAPS  H12R 1391   4.320   6.577   7.330  0.6197  0.8502  1.0933
   11SAPS  C213 1392   4.446   6.444   7.465  0.5252 -0.3112  0.1402
   11SAPS  H13R 1393   4.555   6.424   7.468  0.2845 -1.7243 -0.0797
   11SAPS  H13S 1394   4.411   6.339   7.474  1.4707 -0.7964 -1.6236
   11SAPS  C214 1395   4.395   6.529   7.585 -0.2156 -0.4832  0.5172
   11SAPS  H14R 1396   4.311   6.597   7.566  2.6710  3.0352 -0.4191
   11SAPS  C215 1397   4.442   6.519   7.709  0.6064 -0.2483 -0.1240
   11SAPS  H15R 1398   4.385   6.573   7.786 -0.3872  0.6672 -1.4672
   11SAPS  C216 1399   4.544   6.424   7.762 -0.5106  0.0713 -0.3334
   11SAPS  H16R 1400   4.611   6.391   7.680  0.3405  0.6600  0.1231
   11SAPS  H16S 1401   4.491   6.334   7.800 -2.0381  0.7369 -0.8169
   11SAPS  C217 1402   4.634   6.477   7.869 -0.5331 -0.3835  0.5068
   11SAPS  H17R 1403   4.674   6.574   7.830 -0.2252 -0.4493  0.6531
   11SAPS  H17S 1404   4.721   6.408   7.876 -1.2551 -1.1114  2.3414
   11SAPS  C218 1405   4.579   6.501   8.006 -0.3655 -0.4867  0.2105
   11SAPS  H18R 1406   4.539   6.403   8.040  1.7595 -1.2466  0.5726
   11SAPS  H18S 1407   4.495   6.573   8.002 -1.5588 -1.7677  1.6874
   11SAPS  C219 1408   4.677   6.563   8.106  0.9450  0.0916  0.1122
   11SAPS  H19R 1409   4.747   6.478   8.123  1.1571  0.3339  0.4674
   11SAPS  H19S 1410   4.636   6.578   8.208 -0.5838 -0.6835 -0.3751
   11SAPS  C220 1411   4.740   6.699   8.070  0.3932  0.0414  0.5471
   11SAPS  H20R 1412   4.660   6.761   8.025  0.4889 -0.6262 -0.5774
   11SAPS  H20S 1413   4.811   6.680   7.986 -0.6871  1.9352 -0.8240
   11SAPS  H20T 1414   4.790   6.755   8.151  2.2974 -0.1492 -0.4637
   11SAPS   C33 1415   4.832   6.777   6.656 -0.5611 -0.2135  0.4425
   11SAPS   H3X 1416   4.747   6.839   6.621 -0.7119 -0.2511  0.7475
   11SAPS   H3Y 1417   4.889   6.847   6.721 -0.2522 -0.5369  0.5241
   11SAPS   C34 1418   4.797   6.661   6.752  0.2702 -0.2235 -0.1605
   11SAPS   H4X 1419   4.822   6.570   6.693 -1.1511 -1.5141  1.2052
   11SAPS   H4Y 1420   4.687   6.657   6.766  0.0567 -0.2559 -1.6869
   11SAPS   C35 1421   4.857   6.648   6.890  0.1229 -0.4380  0.0944
   11SAPS   H5X 1422   4.857   6.747   6.941 -0.9602  1.4121 -3.3188
   11SAPS   H5Y 1423   4.963   6.620   6.875 -0.2740 -2.9470  1.7790
   11SAPS   C36 1424   4.801   6.539   6.983  0.0096 -0.5898  0.5309
   11SAPS   H6X 1425   4.791   6.441   6.931 -1.0423 -1.2004  1.8463
   11SAPS   H6Y 1426   4.703   6.583   7.012  0.5638 -1.5010  4.0391
   11SAPS   C37 1427   4.883   6.536   7.113 -0.5952 -0.7280  0.1602
   11SAPS   H7X 1428   4.987   6.514   7.080  0.1473 -0.1421  2.0555
   11SAPS   H7Y 1429   4.846   6.461   7.186 -1.7826 -0.5514 -0.2505
   11SAPS   C38 1430   4.876   6.665   7.196  0.0671 -0.0626 -0.1108
   11SAPS   H8X 1431   4.770   6.697   7.190 -0.3992 -1.3510  0.8512
   11SAPS   H8Y 1432   4.938   6.743   7.148 -0.0358  0.0483 -0.0632
   11SAPS   C39 1433   4.927   6.640   7.340  0.7322 -0.1496 -0.2724
   11SAPS   H9X 1434   5.034   6.609   7.343  0.4880 -0.8994  5.7159
   11SAPS   H9Y 1435   4.871   6.552   7.379  1.0649 -0.3063 -0.1454
   11SAPS  C310 1436   4.904   6.770   7.419 -0.0437  0.0106 -0.6969
   11SAPS  H10X 1437   4.801   6.810   7.407  0.5200  1.6414 -0.2907
   11SAPS  H10Y 1438   4.965   6.844   7.362 -0.3387  2.0243  1.4953
   11SAPS  C311 1439   4.934   6.761   7.569  0.3340  0.5332  0.1319
   11SAPS  H11X 1440   5.027   6.704   7.590  0.1828  0.0528 -0.4984
   11SAPS  H11Y 1441   4.856   6.698   7.617  1.0123  0.6532  1.4323
   11SAPS  C312 1442   4.954   6.900   7.640 -0.7426  0.3160  0.1253
   11SAPS  H12X 1443   4.867   6.968   7.628 -0.1707  0.9376 -0.5197
   11SAPS  H12Y 1444   5.038   6.951   7.589  0.4735  0.8066  2.5272
   11SAPS  C313 1445   4.999   6.885   7.785 -0.4105  0.1191  0.0957
   11SAPS  H13X 1446   5.080   6.810   7.795 -0.0912  0.4300 -0.1197
   11SAPS  H13Y 1447   4.914   6.838   7.838  0.2779  1.6521  2.6413
   11SAPS  C314 1448   5.043   7.011   7.849  0.7180 -0.3083  0.3784
   11SAPS  H14X 1449   4.969   7.081   7.806  3.8454  2.9776  0.0475
   11SAPS  H14Y 1450   5.145   7.043   7.817  0.7956 -2.2824 -1.4967
   11SAPS  C315 1451   5.032   7.015   8.003  0.3679  0.2007  0.4079
   11SAPS  H15X 1452   5.115   6.951   8.040 -0.3034  0.0606  1.6909
   11SAPS  H15Y 1453   4.934   6.967   8.025  1.3126 -0.6441  2.9878
   11SAPS  C316 1454   5.039   7.154   8.067  0.5363  0.4263  0.8212
   11SAPS  H16X 1455   5.025   7.234   7.991  2.3269  1.5334  1.6163
   11SAPS  H16Y 1456   5.142   7.175   8.103  1.8129 -1.1329 -1.7724
   11SAPS  C317 1457   4.924   7.190   8.164  0.0193  0.4616 -0.5282
   11SAPS  H17X 1458   4.922   7.115   8.246 -1.5138  0.7942 -0.2590
   11SAPS  H17Y 1459   4.828   7.188   8.108  1.1704  1.9006 -2.6362
   11SAPS  C318 1460   4.954   7.325   8.227 -0.3659 -0.5199  0.2961
   11SAPS  H18X 1461   5.039   7.319   8.298 -1.2004  2.5270  1.6556
   11SAPS  H18Y 1462   4.865   7.366   8.279 -0.0049  0.1299  0.4115
   11SAPS  H18Z 1463   4.986   7.397   8.148  0.3413 -0.6265  0.4852
   12SAPS     N 1464   3.584   6.740   6.115 -0.2884 -0.3622  0.2174
   12SAPS   HN1 1465   3.606   6.648   6.071 -0.2863  0.0174 -0.5791
   12SAPS   HN2 1466   3.663   6.806   6.113 -1.4862  1.0738 -0.9062
   12SAPS   HN3 1467   3.545   6.732   6.212  1.3251 -0.6022  0.8544
   12SAPS   C12 1468   3.478   6.807   6.038 -0.0928  0.4515  0.4552
   12SAPS  H12A 1469   3.519   6.832   5.942 -1.7103  1.2386 -0.0294
   12SAPS   C13 1470   3.338   6.729   6.028 -0.0316 -0.3215 -0.4499
   12SAPS  O13A 1471   3.326   6.619   6.087  0.1288  0.1865  0.0254
   12SAPS  O13B 1472   3.240   6.786   5.973  0.4249 -0.7179 -0.7234
   12SAPS   C11 1473   3.450   6.940   6.107  0.5467  0.5903 -0.1625
   12SAPS  H11A 1474   3.376   6.927   6.188 -2.3371 -1.8480 -3.0416
   12SAPS  H11B 1475   3.391   6.990   6.027 -1.8105 -1.4770  0.2258
   12SAPS     P 1476   3.585   7.163   6.167  0.2018  0.2683 -0.0058
   12SAPS   O13 1477   3.611   7.256   6.055 -0.5569 -0.5313 -0.0342
   12SAPS   O14 1478   3.473   7.202   6.252  0.5884  0.1049  0.0345
   12SAPS   O12 1479   3.572   7.012   6.128 -0.0800 -0.5068  0.4410
   12SAPS   O11 1480   3.715   7.156   6.248 -0.0911 -0.8011  0.3913
   12SAPS    C1 1481   3.759   7.268   6.327 -0.7764  0.1901 -0.4117
   12SAPS    HA 1482   3.799   7.335   6.249  1.1895  0.9026  1.1671
   12SAPS    HB 1483   3.682   7.323   6.386  0.0824  0.5939  0.3404
   12SAPS    C2 1484   3.885   7.239   6.410 -0.9287 -0.2418 -0.2714
   12SAPS    HS 1485   3.973   7.220   6.346  0.3811 -2.2815  2.0709
   12SAPS   O21 1486   3.855   7.127   6.501 -0.2896  0.1595 -0.1126
   12SAPS   C21 1487   3.942   7.032   6.505 -0.1168  0.6924 -0.4649
   12SAPS   O22 1488   4.049   7.030   6.440 -0.1511  0.4946 -0.1766
   12SAPS   C22 1489   3.906   6.938   6.611  0.4274  0.2685 -0.6304
   12SAPS   H2R 1490   3.813   6.968   6.663 -0.6101  0.6008 -2.6496
   12SAPS   H2S 1491   3.893   6.833   6.577 -2.0099 -0.3803  2.0653
   12SAPS    C3 1492   3.934   7.354   6.503 -0.4302 -0.1788 -0.8429
   12SAPS    HX 1493   3.843   7.376   6.563  0.4189  0.4200  0.2395
   12SAPS    HY 1494   3.947   7.444   6.440  0.6083 -0.9716 -1.7850
   12SAPS   O31 1495   4.043   7.317   6.596  0.3757 -0.3852 -0.2834
   12SAPS   C31 1496   4.159   7.309   6.534  0.2596 -0.0308  0.9654
   12SAPS   O32 1497   4.176   7.357   6.425 -0.1254 -0.0558  0.2832
   12SAPS   C32 1498   4.269   7.230   6.610 -0.6395  1.2364 -0.0315
   12SAPS   H2X 1499   4.360   7.228   6.547 -1.2221 -1.4769 -0.8716
   12SAPS   H2Y 1500   4.238   7.123   6.605 -0.7396  1.1317  2.2587
   12SAPS   C23 1501   4.013   6.939   6.725 -0.9756  0.3884  0.8057
   12SAPS   H3R 1502   4.013   7.028   6.791 -0.6955  0.9049  0.1259
   12SAPS   H3S 1503   4.119   6.926   6.693 -0.6753  0.4626  1.7768
   12SAPS   C24 1504   3.986   6.817   6.815  0.3536  0.0385  0.2268
   12SAPS   H4R 1505   4.073   6.796   6.880 -1.2138  0.4073  2.4865
   12SAPS   H4S 1506   3.986   6.729   6.747 -0.4312 -0.0412  0.3344
   12SAPS   C25 1507   3.861   6.821   6.912 -0.1267 -0.0995 -0.7693
   12SAPS   H5R 1508   3.773   6.821   6.846 -1.4506 -1.8439  0.9571
   12SAPS   C26 1509   3.849   6.821   7.047 -0.1859  0.0432  0.0997
   12SAPS   H6R 1510   3.751   6.823   7.097 -0.0607  1.4741  0.3039
   12SAPS   C27 1511   3.966   6.804   7.149 -0.2792  0.2415  0.3619
   12SAPS   H7R 1512   3.985   6.906   7.187 -0.3606  0.0927  0.8077
   12SAPS   H7S 1513   4.063   6.788   7.098  0.8276  0.0466  2.4378
   12SAPS   C28 1514   3.936   6.690   7.257  1.0478  0.2349  1.2112
   12SAPS   H8R 1515   3.917   6.588   7.219  1.0298  0.6048  0.2092
   12SAPS   C29 1516   3.952   6.708   7.389  0.3770 -0.4103  0.1768
   12SAPS   H9R 1517   3.902   6.636   7.457 -0.0374 -0.2712  0.0193
   12SAPS  C210 1518   3.991   6.833   7.459 -0.4174  0.2739 -0.4656
   12SAPS  H10R 1519   3.901   6.868   7.513 -1.1404  1.1908 -2.2482
   12SAPS  H10S 1520   4.030   6.909   7.388 -0.6416 -0.4977 -1.4308
   12SAPS  C211 1521   4.098   6.796   7.565  0.0250 -0.5167 -0.2279
   12SAPS  H11R 1522   4.201   6.812   7.531  1.9441 -2.4510  4.3528
   12SAPS  C212 1523   4.090   6.753   7.689  0.5586 -0.1685 -0.0304
   12SAPS  H12R 1524   4.183   6.740   7.744  1.7187 -0.8158 -2.0800
   12SAPS  C213 1525   3.961   6.731   7.758 -0.5079  0.0872  0.6115
   12SAPS  H13R 1526   3.953   6.636   7.814 -0.4441 -1.4152 -1.8594
   12SAPS  H13S 1527   3.890   6.720   7.673 -0.4391  0.1029  0.5514
   12SAPS  C214 1528   3.910   6.849   7.834  0.2015 -0.2432  0.4693
   12SAPS  H14R 1529   3.900   6.944   7.778  1.3922 -0.5828 -0.3321
   12SAPS  C215 1530   3.888   6.859   7.965 -0.6062 -0.2837  0.1450
   12SAPS  H15R 1531   3.852   6.953   8.010  2.1336  0.5543  0.6551
   12SAPS  C216 1532   3.903   6.755   8.073 -0.2068 -0.1269 -0.1266
   12SAPS  H16R 1533   3.977   6.675   8.054  0.5938 -0.0233  2.2954
   12SAPS  H16S 1534   3.802   6.716   8.100 -0.3708  0.9453  0.8944
   12SAPS  C217 1535   3.951   6.831   8.199  0.5227  1.1032 -1.3483
   12SAPS  H17R 1536   3.941   6.761   8.284 -0.2908  1.4317 -1.1674
   12SAPS  H17S 1537   3.886   6.918   8.222  1.2519  1.5984 -1.1137
   12SAPS  C218 1538   4.100   6.865   8.211  0.1209 -0.7321  0.3545
   12SAPS  H18R 1539   4.122   6.938   8.292  1.0813  1.8071 -2.1279
   12SAPS  H18S 1540   4.146   6.901   8.117  1.7561 -0.5860  1.2055
   12SAPS  C219 1541   4.188   6.744   8.236  0.8193  0.3840 -0.1912
   12SAPS  H19R 1542   4.176   6.683   8.144  1.7369  1.7552 -1.2335
   12SAPS  H19S 1543   4.146   6.680   8.317  0.3297  2.7339  1.4653
   12SAPS  C220 1544   4.334   6.774   8.276 -0.7776  0.3066  0.2964
   12SAPS  H20R 1545   4.391   6.683   8.306 -0.5197  0.2819 -0.2874
   12SAPS  H20S 1546   4.331   6.848   8.359  1.8622  0.4356  0.3030
   12SAPS  H20T 1547   4.377   6.830   8.191  0.7245 -2.7891 -1.0678
   12SAPS   C33 1548   4.305   7.281   6.755 -0.2899 -0.0940 -0.3222
   12SAPS   H3X 1549   4.282   7.390   6.748  0.5846  0.1077 -0.0398
   12SAPS   H3Y 1550   4.410   7.260   6.784 -0.2737 -0.0722 -0.3651
   12SAPS   C34 1551   4.217   7.221   6.859  0.7802  0.4640 -0.2943
   12SAPS   H4X 1552   4.207   7.110   6.858  0.3061  0.5046 -2.3792
   12SAPS   H4Y 1553   4.121   7.265   6.827  0.1414  0.8703  2.0899
   12SAPS   C35 1554   4.249   7.270   6.999 -0.8987 -0.0804  0.0760
   12SAPS   H5X 1555   4.234   7.379   7.017 -3.8544 -0.6526  1.3337
   12SAPS   H5Y 1556   4.350   7.227   7.017 -0.7207  0.6893  0.9956
   12SAPS   C36 1557   4.162   7.221   7.112  0.5053  0.4197 -0.4422
   12SAPS   H6X 1558   4.154   7.110   7.109 -1.7326  0.5019  1.3001
   12SAPS   H6Y 1559   4.059   7.254   7.088  0.5299  0.7425 -0.1056
   12SAPS   C37 1560   4.213   7.271   7.248 -0.0219  0.9999  0.5821
   12SAPS   H7X 1561   4.201   7.381   7.255 -2.3980  0.6366  2.9308
   12SAPS   H7Y 1562   4.322   7.255   7.264 -0.1139  1.3827  1.6542
   12SAPS   C38 1563   4.143   7.211   7.374  0.3251 -0.3210 -0.2832
   12SAPS   H8X 1564   4.165   7.103   7.374  1.8255 -0.0177  0.1339
   12SAPS   H8Y 1565   4.033   7.213   7.355  0.1428 -0.8856  0.6932
   12SAPS   C39 1566   4.177   7.270   7.511 -0.8194  0.8318 -0.2331
   12SAPS   H9X 1567   4.129   7.368   7.531 -0.2042  0.7419  1.7980
   12SAPS   H9Y 1568   4.288   7.274   7.519 -0.8551  1.0023  0.1391
   12SAPS  C310 1569   4.130   7.179   7.620  0.2940 -0.6512 -0.3579
   12SAPS  H10X 1570   4.176   7.080   7.603  2.8332  0.4923 -0.3930
   12SAPS  H10Y 1571   4.020   7.172   7.600  0.2949 -1.2278 -0.1747
   12SAPS  C311 1572   4.157   7.243   7.754  0.0205 -0.5161 -0.6116
   12SAPS  H11X 1573   4.118   7.347   7.765  2.0656  0.0175  2.4924
   12SAPS  H11Y 1574   4.266   7.262   7.751 -0.1234  0.4021 -0.2903
   12SAPS  C312 1575   4.125   7.158   7.869  0.0095  0.3304 -0.7310
   12SAPS  H12X 1576   4.146   7.052   7.848  0.9749  1.4796 -6.1170
   12SAPS  H12Y 1577   4.018   7.151   7.899  0.5200 -0.5053  0.9864
   12SAPS  C313 1578   4.210   7.191   8.004  0.5640  0.0857 -0.2693
   12SAPS  H13X 1579   4.316   7.214   7.978 -0.0551  1.2991 -1.7691
   12SAPS  H13Y 1580   4.208   7.103   8.072  0.3995  1.7602  1.9676
   12SAPS  C314 1581   4.156   7.319   8.074 -0.6696 -0.2057  0.7616
   12SAPS  H14X 1582   4.055   7.302   8.117 -1.4120  2.0561 -0.0478
   12SAPS  H14Y 1583   4.152   7.395   7.993 -1.3621  2.6670  3.3938
   12SAPS  C315 1584   4.250   7.375   8.185  1.1672  0.4189  0.1348
   12SAPS  H15X 1585   4.355   7.363   8.151  0.6567 -2.0640 -0.7450
   12SAPS  H15Y 1586   4.232   7.298   8.263  1.2714  1.2018  0.9343
   12SAPS  C316 1587   4.220   7.516   8.235  1.1313 -0.4028 -0.3561
   12SAPS  H16X 1588   4.122   7.517   8.287  1.8175  3.0563  1.0065
   12SAPS  H16Y 1589   4.224   7.589   8.152  0.2945 -0.3413 -0.3421
   12SAPS  C317 1590   4.317   7.564   8.342 -0.9729 -0.0598 -0.1395
   12SAPS  H17X 1591   4.316   7.497   8.431 -0.5893 -1.4528 -1.1620
   12SAPS  H17Y 1592   4.279   7.664   8.372  0.5939 -0.3264  3.0059
   12SAPS  C318 1593   4.458   7.586   8.280  0.0265 -0.6858  0.0420
   12SAPS  H18X 1594   4.453   7.645   8.186 -3.4406  0.0682  0.6212
   12SAPS  H18Y 1595   4.506   7.487   8.266  0.6863 -0.4985  0.9357
   12SAPS  H18Z 1596   4.519   7.652   8.346  2.4968  1.3635 -4.1291
   13SAPS     N 1597   4.399   4.326   6.372 -0.1970 -0.3654  0.1959
   13SAPS   HN1 1598   4.313   4.274   6.343  1.1861 -3.8820  2.0116
   13SAPS   HN2 1599   4.461   4.263   6.427 -1.5069 -2.1005 -0.2547
   13SAPS   HN3 1600   4.374   4.407   6.431  0.4904 -1.4836  2.0863
   13SAPS   C12 1601   4.463   4.378   6.249  0.4155 -0.3880 -0.2250
   13SAPS  H12A 1602   4.543   4.448   6.272 -0.6379  0.6374  0.3781
   13SAPS   C13 1603   4.514   4.265   6.151  0.4494  0.5501 -0.5134
   13SAPS  O13A 1604   4.506   4.140   6.175 -0.2136  0.2637  0.7647
   13SAPS  O13B 1605   4.586   4.302   6.057  0.2718 -0.2753  0.2470
   13SAPS   C11 1606   4.358   4.469   6.173  0.1713 -0.9493 -0.2594
   13SAPS  H11A 1607   4.282   4.398   6.133  1.8040 -1.6674 -2.1823
   13SAPS  H11B 1608   4.408   4.514   6.085 -1.6308  0.5403 -0.5427
   13SAPS     P 1609   4.155   4.620   6.257 -0.0664 -0.3397  0.1747
   13SAPS   O13 1610   4.100   4.610   6.124  0.0031 -0.2639 -0.1698
   13SAPS   O14 1611   4.081   4.542   6.358  0.0186  0.7343 -0.2314
   13SAPS   O12 1612   4.307   4.572   6.256  0.3048  0.6241 -0.0781
   13SAPS   O11 1613   4.150   4.771   6.302  0.5491 -0.1343  0.1562
   13SAPS    C1 1614   4.243   4.842   6.389  0.4856 -1.1460 -0.2468
   13SAPS    HA 1615   4.315   4.897   6.325 -1.1567  0.8541 -0.4336
   13SAPS    HB 1616   4.190   4.914   6.456 -0.7349 -1.4515 -0.8670
   13SAPS    C2 1617   4.310   4.754   6.495  0.6568  0.0295 -0.2617
   13SAPS    HS 1618   4.375   4.677   6.449  0.0230 -1.0218  0.5967
   13SAPS   O21 1619   4.206   4.698   6.585 -0.2190  0.3093 -0.0351
   13SAPS   C21 1620   4.232   4.570   6.616 -0.0135 -0.2917 -0.5799
   13SAPS   O22 1621   4.326   4.507   6.572  0.0377  0.4978  0.0906
   13SAPS   C22 1622   4.135   4.504   6.710 -0.6477  0.1672 -0.0034
   13SAPS   H2R 1623   4.055   4.459   6.647  1.3338  0.5369 -2.8897
   13SAPS   H2S 1624   4.188   4.426   6.769  1.5380  1.1068 -0.7111
   13SAPS    C3 1625   4.411   4.828   6.587  0.3344  0.1560  0.8989
   13SAPS    HX 1626   4.358   4.908   6.643  3.3527  1.8896  1.3632
   13SAPS    HY 1627   4.486   4.874   6.519  0.2302  0.1636  0.7889
   13SAPS   O31 1628   4.468   4.732   6.677  0.1935 -0.1317 -0.0567
   13SAPS   C31 1629   4.570   4.670   6.630  0.1060 -0.2246  0.5341
   13SAPS   O32 1630   4.628   4.698   6.525 -0.6913  0.1962 -0.5168
   13SAPS   C32 1631   4.606   4.566   6.735  0.2504  0.4754  0.1381
   13SAPS   H2X 1632   4.717   4.567   6.731  0.2509  2.2556  0.2325
   13SAPS   H2Y 1633   4.563   4.467   6.711  2.3680  0.1143 -2.4668
   13SAPS   C23 1634   4.048   4.607   6.788 -0.7844 -0.4984  0.7119
   13SAPS   H3R 1635   3.961   4.556   6.835 -0.8326  0.3611  1.5726
   13SAPS   H3S 1636   4.010   4.686   6.720 -0.5726 -2.8564 -2.2795
   13SAPS   C24 1637   4.134   4.665   6.915 -0.1156  0.2223 -0.0690
   13SAPS   H4R 1638   4.228   4.701   6.868  0.2727  0.1900  0.6885
   13SAPS   H4S 1639   4.158   4.574   6.975  0.3504 -0.0709 -0.6851
   13SAPS   C25 1640   4.043   4.769   6.984 -0.0020 -0.1374 -0.0932
   13SAPS   H5R 1641   3.999   4.838   6.910 -0.8621  1.8184  2.1610
   13SAPS   C26 1642   4.019   4.775   7.112 -0.4447  0.4243 -0.8228
   13SAPS   H6R 1643   3.944   4.850   7.139 -0.9413 -0.3212 -0.1234
   13SAPS   C27 1644   4.066   4.696   7.232  0.2176 -0.9836 -0.5957
   13SAPS   H7R 1645   4.077   4.589   7.206 -1.0105 -1.5449  1.1227
   13SAPS   H7S 1646   3.991   4.697   7.314 -1.8704  1.3735 -2.4585
   13SAPS   C28 1647   4.192   4.751   7.295 -0.0461 -0.5024 -0.2499
   13SAPS   H8R 1648   4.291   4.741   7.249  1.0722  2.0895  1.4620
   13SAPS   C29 1649   4.195   4.802   7.414  0.3816 -0.4769  0.1112
   13SAPS   H9R 1650   4.296   4.818   7.454  0.1583  2.0564 -0.2356
   13SAPS  C210 1651   4.085   4.831   7.516  0.4498  0.1438 -0.3055
   13SAPS  H10R 1652   4.070   4.729   7.557  0.1642 -2.1591 -5.7589
   13SAPS  H10S 1653   3.993   4.855   7.460  1.4390  0.1550 -1.9420
   13SAPS  C211 1654   4.119   4.941   7.608  0.6584  0.4214  0.4959
   13SAPS  H11R 1655   4.126   5.042   7.565 -1.5732  0.7879  0.9320
   13SAPS  C212 1656   4.129   4.933   7.739 -0.0845 -0.0061  0.1208
   13SAPS  H12R 1657   4.134   5.025   7.800 -1.0326 -1.2059  2.0858
   13SAPS  C213 1658   4.103   4.811   7.818  0.4092 -0.0882 -0.9923
   13SAPS  H13R 1659   4.200   4.775   7.858  1.0748  2.6106 -0.0684
   13SAPS  H13S 1660   4.065   4.724   7.759 -0.1698 -1.1634  0.9126
   13SAPS  C214 1661   4.007   4.826   7.926  0.3364 -0.0995  0.4463
   13SAPS  H14R 1662   3.904   4.789   7.911  0.4316 -0.7342  1.2915
   13SAPS  C215 1663   4.040   4.878   8.047 -0.3133  0.1887 -0.5861
   13SAPS  H15R 1664   3.963   4.902   8.122  0.3753  0.7278 -0.0579
   13SAPS  C216 1665   4.178   4.933   8.089 -0.2803  0.4450  0.4430
   13SAPS  H16R 1666   4.175   5.031   8.141 -1.2718  1.6346 -1.7891
   13SAPS  H16S 1667   4.245   4.943   8.001  2.3315  0.5586  2.3854
   13SAPS  C217 1668   4.240   4.845   8.202 -0.4878 -0.0315 -0.0803
   13SAPS  H17R 1669   4.349   4.862   8.212  0.1237 -2.7144 -1.6474
   13SAPS  H17S 1670   4.225   4.739   8.173  1.3849  0.4136 -2.7706
   13SAPS  C218 1671   4.180   4.881   8.344 -0.0985  0.4165 -0.3626
   13SAPS  H18R 1672   4.075   4.846   8.349  0.0003 -0.2572 -2.3357
   13SAPS  H18S 1673   4.174   4.992   8.349  0.2070  0.3639  1.3266
   13SAPS  C219 1674   4.261   4.830   8.457  0.2973  0.3965  0.5478
   13SAPS  H19R 1675   4.236   4.885   8.550 -0.1641 -1.6446  1.6541
   13SAPS  H19S 1676   4.369   4.832   8.435  0.6562 -1.1086  2.1214
   13SAPS  C220 1677   4.236   4.679   8.478 -0.2237  0.0561  0.0020
   13SAPS  H20R 1678   4.301   4.634   8.556  1.1080 -0.7329 -1.5427
   13SAPS  H20S 1679   4.270   4.633   8.383  2.8419 -1.0712  1.5577
   13SAPS  H20T 1680   4.128   4.658   8.493 -0.1613 -1.3129 -1.3328
   13SAPS   C33 1681   4.558   4.605   6.877  0.2765  0.4202  0.2399
   13SAPS   H3X 1682   4.449   4.624   6.888  0.3134  0.9013 -0.2159
   13SAPS   H3Y 1683   4.609   4.698   6.910 -0.5171  0.9590 -0.0163
   13SAPS   C34 1684   4.608   4.507   6.977  0.4742 -0.3129  0.4083
   13SAPS   H4X 1685   4.718   4.491   6.980  0.5447  0.5643  3.4775
   13SAPS   H4Y 1686   4.566   4.406   6.957  1.9687 -0.7890 -0.4256
   13SAPS   C35 1687   4.567   4.539   7.121  0.0708 -0.2982 -0.1136
   13SAPS   H5X 1688   4.606   4.450   7.177  0.4098 -0.0172  0.0982
   13SAPS   H5Y 1689   4.458   4.537   7.140  0.0094 -0.9270 -0.5187
   13SAPS   C36 1690   4.627   4.664   7.181  0.3274 -0.0837  0.0648
   13SAPS   H6X 1691   4.569   4.749   7.138  0.8003  0.2243  0.0244
   13SAPS   H6Y 1692   4.734   4.672   7.153  0.3504 -1.5548 -0.3094
   13SAPS   C37 1693   4.613   4.672   7.332  0.4911 -0.2677  0.0897
   13SAPS   H7X 1694   4.690   4.603   7.372 -0.5828 -1.5163  0.0353
   13SAPS   H7Y 1695   4.516   4.625   7.359  0.8480 -0.3714  1.2327
   13SAPS   C38 1696   4.629   4.812   7.379  0.2387  0.0199 -0.3273
   13SAPS   H8X 1697   4.566   4.876   7.314  1.0248 -0.9298 -2.0386
   13SAPS   H8Y 1698   4.736   4.840   7.367  0.4323 -0.8934 -0.7424
   13SAPS   C39 1699   4.590   4.845   7.518 -0.6433 -0.1485  0.1629
   13SAPS   H9X 1700   4.483   4.821   7.537 -0.9026  0.6317 -0.2597
   13SAPS   H9Y 1701   4.606   4.955   7.522 -0.5809 -0.0970 -1.3500
   13SAPS  C310 1702   4.676   4.782   7.622  0.7241  1.2032  0.2514
   13SAPS  H10X 1703   4.782   4.805   7.600  0.3044  0.5645 -2.5777
   13SAPS  H10Y 1704   4.654   4.673   7.616 -0.3020  1.3688  0.8082
   13SAPS  C311 1705   4.636   4.819   7.763  0.5233 -0.2066  0.0012
   13SAPS  H11X 1706   4.671   4.748   7.841  1.9066 -0.5470 -0.9061
   13SAPS  H11Y 1707   4.526   4.806   7.775  0.5374 -0.2789  0.0473
   13SAPS  C312 1708   4.682   4.960   7.797  0.5937 -0.1087 -0.7849
   13SAPS  H12X 1709   4.637   5.021   7.715  0.0825  1.3900  0.6061
   13SAPS  H12Y 1710   4.791   4.982   7.794  0.4191  1.4300  2.5019
   13SAPS  C313 1711   4.618   5.022   7.927  0.7431  0.5171  0.0603
   13SAPS  H13X 1712   4.514   4.983   7.936  0.6569  1.0621  1.4159
   13SAPS  H13Y 1713   4.611   5.132   7.914 -0.1218  0.4706  0.0786
   13SAPS  C314 1714   4.685   4.986   8.057  0.7212 -0.4263  0.9117
   13SAPS  H14X 1715   4.658   4.880   8.076  0.9921 -0.8660 -1.0279
   13SAPS  H14Y 1716   4.645   5.045   8.143  1.2610  3.5226 -1.3960
   13SAPS  C315 1717   4.848   4.997   8.054  0.5265 -0.3294  1.0286
   13SAPS  H15X 1718   4.895   4.937   7.973 -1.8162 -1.1790  0.2265
   13SAPS  H15Y 1719   4.877   4.950   8.150  2.3056 -3.0052 -0.7477
   13SAPS  C316 1720   4.895   5.143   8.053  0.1631 -0.2091  0.0056
   13SAPS  H16X 1721   4.830   5.205   8.118 -0.4484 -1.5153  0.6562
   13SAPS  H16Y 1722   4.884   5.185   7.950 -0.4518 -0.3911 -0.0059
   13SAPS  C317 1723   5.037   5.170   8.094 -0.0885 -0.6219 -0.2512
   13SAPS  H17X 1724   5.086   5.139   8.000 -2.0352 -1.5967 -0.9580
   13SAPS  H17Y 1725   5.067   5.103   8.178 -0.6534 -0.9218 -0.2880
   13SAPS  C318 1726   5.061   5.319   8.116  0.1951 -0.0026  0.7916
   13SAPS  H18X 1727   5.008   5.364   8.202 -2.1416 -0.9612 -0.1198
   13SAPS  H18Y 1728   5.037   5.385   8.031  1.9763 -0.0374  0.2269
   13SAPS  H18Z 1729   5.165   5.335   8.154 -0.3581 -0.2007  2.4446
   14SAPS     N 1730   3.990   5.582   5.985 -0.6232 -0.0403  0.1379
   14SAPS   HN1 1731   3.983   5.622   6.081  0.8338  0.2506  0.1365
   14SAPS   HN2 1732   3.925   5.633   5.921 -0.6529  1.5581  1.3935
   14SAPS   HN3 1733   3.985   5.478   5.986 -2.6671  0.0025 -1.4781
   14SAPS   C12 1734   4.119   5.620   5.920  0.6770  0.6995  0.2434
   14SAPS  H12A 1735   4.191   5.544   5.947 -0.1893 -0.0938  0.3208
   14SAPS   C13 1736   4.098   5.615   5.763 -0.2720 -0.0909 -0.1027
   14SAPS  O13A 1737   3.987   5.587   5.716 -0.0732 -0.0824 -0.3175
   14SAPS  O13B 1738   4.202   5.632   5.691  0.0999 -0.1739  0.3359
   14SAPS   C11 1739   4.174   5.757   5.971 -0.0953 -0.4839 -0.0293
   14SAPS  H11A 1740   4.203   5.753   6.078 -1.7685 -0.2573  0.4454
   14SAPS  H11B 1741   4.088   5.826   5.974  1.0180  1.0130 -1.7077
   14SAPS     P 1742   4.419   5.816   5.926  0.1797 -0.1835 -0.3867
   14SAPS   O13 1743   4.464   5.678   5.951 -0.2274 -0.1922  0.1159
   14SAPS   O14 1744   4.498   5.895   5.830  0.1164 -0.0463 -0.0783
   14SAPS   O12 1745   4.271   5.818   5.885 -0.9442 -0.0368 -0.0983
   14SAPS   O11 1746   4.413   5.892   6.063  0.0465 -0.5413  0.0580
   14SAPS    C1 1747   4.343   6.016   6.079  0.5588 -0.3594  0.5721
   14SAPS    HA 1748   4.424   6.091   6.065 -1.8553  2.4996  1.4567
   14SAPS    HB 1749   4.271   6.039   5.998 -0.5042  1.8304  2.1157
   14SAPS    C2 1750   4.283   6.037   6.225 -0.3678  0.0296 -0.2906
   14SAPS    HS 1751   4.176   6.007   6.230 -1.0053  2.1202 -0.8272
   14SAPS   O21 1752   4.295   6.175   6.270  0.1453 -0.4673 -0.1263
   14SAPS   C21 1753   4.222   6.256   6.201 -0.3665  0.3906 -0.5860
   14SAPS   O22 1754   4.145   6.224   6.116  0.5652 -0.3080 -0.7125
   14SAPS   C22 1755   4.246   6.399   6.247  0.1783  0.4338 -0.5139
   14SAPS   H2R 1756   4.354   6.426   6.243  0.4918 -0.8409 -1.0643
   14SAPS   H2S 1757   4.186   6.458   6.175  2.1995  2.8260 -0.3022
   14SAPS    C3 1758   4.356   5.952   6.327  0.0612  0.4804 -1.0394
   14SAPS    HX 1759   4.466   5.966   6.330 -0.0341  0.9551  2.3365
   14SAPS    HY 1760   4.329   5.847   6.306 -1.8801  0.7580  0.0263
   14SAPS   O31 1761   4.322   5.979   6.465 -0.2297 -0.0160 -0.0988
   14SAPS   C31 1762   4.209   5.923   6.509 -0.6856  0.3251 -0.5618
   14SAPS   O32 1763   4.140   5.844   6.447  0.2232 -0.0218  0.8994
   14SAPS   C32 1764   4.193   5.976   6.650 -0.0913 -0.5481  0.1259
   14SAPS   H2X 1765   4.292   6.008   6.688 -0.2086  2.3009 -1.8068
   14SAPS   H2Y 1766   4.157   5.894   6.715  0.9507 -0.7394  0.4740
   14SAPS   C23 1767   4.197   6.427   6.395  0.0189 -0.7651  0.5611
   14SAPS   H3R 1768   4.248   6.350   6.457  1.7141 -0.1553 -0.0463
   14SAPS   H3S 1769   4.089   6.419   6.420 -0.0462  0.3688  0.6715
   14SAPS   C24 1770   4.248   6.567   6.451 -0.2851 -0.0345  0.7811
   14SAPS   H4R 1771   4.208   6.644   6.382  0.7302 -0.9274 -0.8140
   14SAPS   H4S 1772   4.358   6.558   6.449 -0.2395  0.8017 -0.9199
   14SAPS   C25 1773   4.194   6.584   6.593  0.2262 -0.0639  0.2852
   14SAPS   H5R 1774   4.086   6.562   6.599  0.3966 -0.9034  0.3647
   14SAPS   C26 1775   4.256   6.621   6.707 -0.3844 -0.3617  0.2840
   14SAPS   H6R 1776   4.195   6.622   6.799 -0.4724  1.7670  0.2397
   14SAPS   C27 1777   4.403   6.661   6.731 -0.0766  0.6801 -0.7432
   14SAPS   H7R 1778   4.473   6.610   6.662  1.0220  0.9022  0.1843
   14SAPS   H7S 1779   4.439   6.631   6.832 -0.5072  1.4889 -0.3486
   14SAPS   C28 1780   4.421   6.811   6.697 -0.3216  0.3712 -0.0373
   14SAPS   H8R 1781   4.434   6.841   6.592  0.2799  0.7403  0.1399
   14SAPS   C29 1782   4.415   6.911   6.790  0.6603 -0.1566 -0.4199
   14SAPS   H9R 1783   4.428   7.015   6.756 -1.3019  1.0502  2.3081
   14SAPS  C210 1784   4.388   6.900   6.935 -0.3543  0.1866 -0.4083
   14SAPS  H10R 1785   4.359   6.795   6.958 -1.1514  0.7091  1.0382
   14SAPS  H10S 1786   4.304   6.965   6.967  2.1394  2.6930  1.2007
   14SAPS  C211 1787   4.514   6.938   7.011  0.1385  0.1705  0.5742
   14SAPS  H11R 1788   4.601   6.943   6.943 -1.4223  0.8141 -1.4149
   14SAPS  C212 1789   4.531   6.937   7.148 -0.2300  0.5374  1.0512
   14SAPS  H12R 1790   4.628   6.976   7.181  0.3912 -0.3464  0.2961
   14SAPS  C213 1791   4.431   6.900   7.254 -0.2809 -0.8386  0.4526
   14SAPS  H13R 1792   4.337   6.860   7.210  1.5303 -3.5296 -1.0958
   14SAPS  H13S 1793   4.392   6.999   7.286  0.3147 -0.3031 -0.4394
   14SAPS  C214 1794   4.477   6.818   7.376  0.1337 -0.0896 -0.7062
   14SAPS  H14R 1795   4.512   6.717   7.349 -2.0534 -1.1724  0.4207
   14SAPS  C215 1796   4.491   6.856   7.501 -0.1664 -0.0610 -0.7048
   14SAPS  H15R 1797   4.552   6.790   7.564 -0.8631 -1.1714 -1.1826
   14SAPS  C216 1798   4.460   6.992   7.566  1.0122 -0.0098 -0.3134
   14SAPS  H16R 1799   4.363   6.984   7.621  2.2265  1.7033  2.2023
   14SAPS  H16S 1800   4.441   7.071   7.491  1.1387  0.1924 -0.1314
   14SAPS  C217 1801   4.565   7.032   7.663 -0.3063 -0.3442 -0.1658
   14SAPS  H17R 1802   4.661   7.060   7.613 -0.7326  0.1354 -0.7191
   14SAPS  H17S 1803   4.587   6.951   7.735 -2.1252  0.0150  0.8126
   14SAPS  C218 1804   4.530   7.149   7.755 -0.1304 -0.6796  0.0610
   14SAPS  H18R 1805   4.441   7.115   7.813  0.4494  0.1688  1.5011
   14SAPS  H18S 1806   4.507   7.235   7.689  1.8827  2.7520  3.5554
   14SAPS  C219 1807   4.637   7.186   7.861  0.2215 -0.1884  0.2961
   14SAPS  H19R 1808   4.720   7.202   7.789  0.1351 -1.6349 -0.1338
   14SAPS  H19S 1809   4.652   7.094   7.922  1.9348 -0.0754  0.0627
   14SAPS  C220 1810   4.607   7.312   7.940  0.4504  0.0102 -0.3239
   14SAPS  H20R 1811   4.701   7.360   7.974  0.1935 -1.4650  2.5746
   14SAPS  H20S 1812   4.545   7.300   8.031  2.3406  0.2815  1.0163
   14SAPS  H20T 1813   4.548   7.375   7.869 -0.2520  1.6496  1.6779
   14SAPS   C33 1814   4.108   6.104   6.655  0.2171  0.3258 -0.2408
   14SAPS   H3X 1815   4.014   6.089   6.598  1.3427 -1.1756 -1.7437
   14SAPS   H3Y 1816   4.164   6.193   6.619  1.8044 -0.2712  0.7093
   14SAPS   C34 1817   4.089   6.150   6.803 -0.9103 -0.3518  0.6711
   14SAPS   H4X 1818   4.182   6.154   6.865 -0.9289  2.3391  0.5823
   14SAPS   H4Y 1819   4.034   6.063   6.845  1.4468 -1.9096  0.6559
   14SAPS   C35 1820   4.028   6.292   6.823 -0.4480  0.0494 -0.4411
   14SAPS   H5X 1821   3.928   6.304   6.776 -0.2405  1.2937 -0.5709
   14SAPS   H5Y 1822   4.105   6.365   6.790  0.1399 -0.2080  0.3487
   14SAPS   C36 1823   4.026   6.309   6.975 -0.2325  0.8002 -0.2598
   14SAPS   H6X 1824   3.993   6.414   6.994 -0.3413  1.0739 -1.9024
   14SAPS   H6Y 1825   4.127   6.299   7.019  0.3459 -0.1107 -1.7647
   14SAPS   C37 1826   3.929   6.217   7.047  0.1882  0.5225 -0.1903
   14SAPS   H7X 1827   3.957   6.110   7.057  1.8064  0.7933 -1.5118
   14SAPS   H7Y 1828   3.841   6.208   6.979 -0.8988 -1.2134  1.4063
   14SAPS   C38 1829   3.878   6.273   7.179 -0.2185  0.0140 -0.2689
   14SAPS   H8X 1830   3.807   6.199   7.221 -0.0093 -0.1094 -0.1297
   14SAPS   H8Y 1831   3.826   6.371   7.169 -1.2028 -0.3048  1.5534
   14SAPS   C39 1832   3.987   6.302   7.278 -0.3262  0.2239 -0.1468
   14SAPS   H9X 1833   4.029   6.400   7.249 -1.2258  0.4299 -0.7884
   14SAPS   H9Y 1834   4.070   6.229   7.268 -1.0050 -0.7462  1.0813
   14SAPS  C310 1835   3.943   6.303   7.419  0.5278 -0.5279  0.5625
   14SAPS  H10X 1836   3.907   6.201   7.443  1.6952 -0.8829  0.8019
   14SAPS  H10Y 1837   3.863   6.379   7.439 -1.1109 -2.2362  0.6547
   14SAPS  C311 1838   4.058   6.327   7.514  0.2164 -0.6680 -0.0180
   14SAPS  H11X 1839   4.113   6.422   7.500  0.0846 -0.2927  1.8347
   14SAPS  H11Y 1840   4.140   6.257   7.484 -0.2363 -0.9619 -0.5634
   14SAPS  C312 1841   4.029   6.307   7.662  0.8198  0.2007  0.0294
   14SAPS  H12X 1842   3.990   6.208   7.693  2.3035 -0.1720  0.7284
   14SAPS  H12Y 1843   3.939   6.371   7.677 -1.3654 -1.8623 -3.4120
   14SAPS  C313 1844   4.140   6.367   7.746 -0.1589 -0.0806  0.1988
   14SAPS  H13X 1845   4.158   6.475   7.729 -1.3212 -0.1000 -1.2242
   14SAPS  H13Y 1846   4.232   6.311   7.719  1.1165  3.3832 -2.9814
   14SAPS  C314 1847   4.100   6.347   7.898  0.1989  0.7633  0.6116
   14SAPS  H14X 1848   4.079   6.238   7.898 -1.9865  1.1647  0.0501
   14SAPS  H14Y 1849   4.005   6.390   7.934 -2.5705 -3.1943 -1.5943
   14SAPS  C315 1850   4.220   6.380   7.991  0.5168 -0.1100 -0.0094
   14SAPS  H15X 1851   4.268   6.476   7.963  0.6822 -0.1770  0.0425
   14SAPS  H15Y 1852   4.293   6.296   7.995 -1.0551 -1.4474  1.2007
   14SAPS  C316 1853   4.178   6.377   8.142  0.8194  0.0258  0.1384
   14SAPS  H16X 1854   4.120   6.284   8.164  1.7783 -0.8484 -0.9836
   14SAPS  H16Y 1855   4.111   6.464   8.157 -0.4646 -1.1923  1.7584
   14SAPS  C317 1856   4.299   6.376   8.235  0.1302 -0.4798  0.1653
   14SAPS  H17X 1857   4.364   6.465   8.219 -0.9014  0.3549  0.6081
   14SAPS  H17Y 1858   4.338   6.275   8.210 -0.8214 -0.8600  0.1995
   14SAPS  C318 1859   4.266   6.385   8.385  0.1262 -0.2079 -0.0089
   14SAPS  H18X 1860   4.172   6.333   8.413 -0.9958  2.0602  0.5513
   14SAPS  H18Y 1861   4.250   6.491   8.413 -1.0344 -0.6131  0.9318
   14SAPS  H18Z 1862   4.347   6.343   8.448  0.2794  0.6532  0.3650
   15SAPS     N 1863   5.196   6.424   5.696  0.1306  0.8861 -0.1693
   15SAPS   HN1 1864   5.105   6.388   5.733  1.3048 -2.6245 -0.5653
   15SAPS   HN2 1865   5.182   6.497   5.624 -0.7287  0.0222 -0.8936
   15SAPS   HN3 1866   5.243   6.340   5.657 -0.1749 -0.2953  1.8799
   15SAPS   C12 1867   5.283   6.467   5.804  0.0165  0.8831  0.7812
   15SAPS  H12A 1868   5.294   6.387   5.876  1.6537 -1.7470 -2.2553
   15SAPS   C13 1869   5.430   6.505   5.758  0.4568  0.6466  0.1807
   15SAPS  O13A 1870   5.450   6.516   5.633 -0.1486  0.1963  0.2786
   15SAPS  O13B 1871   5.522   6.533   5.838 -0.6629 -0.4245  0.2764
   15SAPS   C11 1872   5.224   6.595   5.864  0.9503  0.3573 -0.1477
   15SAPS  H11A 1873   5.301   6.655   5.917  0.7168  1.5990 -1.1820
   15SAPS  H11B 1874   5.152   6.574   5.946  1.8428 -1.7526  0.1155
   15SAPS     P 1875   5.097   6.811   5.803  0.4432  0.1955  0.0085
   15SAPS   O13 1876   5.132   6.899   5.688 -0.4817 -0.0121  0.0926
   15SAPS   O14 1877   4.949   6.801   5.823 -0.3428 -0.1237  0.3875
   15SAPS   O12 1878   5.161   6.674   5.762  0.0915  0.2216  0.0644
   15SAPS   O11 1879   5.171   6.859   5.933 -0.0439 -0.0129  0.3648
   15SAPS    C1 1880   5.112   6.959   6.020 -0.7791  0.9347 -0.7386
   15SAPS    HA 1881   5.126   7.061   5.977  2.3623  0.5863 -0.7086
   15SAPS    HB 1882   5.008   6.932   6.048 -0.2910 -1.4196 -1.1079
   15SAPS    C2 1883   5.188   6.968   6.160  0.0663 -0.4389 -0.3524
   15SAPS    HS 1884   5.163   6.882   6.226  3.2628 -0.5943  0.7146
   15SAPS   O21 1885   5.164   7.092   6.220  0.4694 -0.4678 -0.4137
   15SAPS   C21 1886   5.046   7.107   6.283 -0.7435 -0.2067  0.4190
   15SAPS   O22 1887   4.959   7.027   6.289 -0.6112 -0.9301  0.2043
   15SAPS   C22 1888   5.056   7.237   6.364 -0.4464 -0.0138 -0.0713
   15SAPS   H2R 1889   5.153   7.231   6.419 -0.9105 -1.1733  0.6491
   15SAPS   H2S 1890   5.050   7.316   6.287  2.1929 -2.3797 -2.8463
   15SAPS    C3 1891   5.344   6.955   6.137  0.5896  0.3634  0.0061
   15SAPS    HX 1892   5.369   7.031   6.060 -0.5253 -0.8616 -1.5949
   15SAPS    HY 1893   5.360   6.858   6.085 -0.2031  1.0145 -1.4603
   15SAPS   O31 1894   5.430   6.971   6.248  0.4001 -0.0617 -0.2013
   15SAPS   C31 1895   5.423   6.878   6.339 -0.0758  0.4835 -0.2723
   15SAPS   O32 1896   5.346   6.781   6.343 -0.1990  0.5900 -0.3023
   15SAPS   C32 1897   5.517   6.925   6.453  0.2971 -0.5409 -0.1449
   15SAPS   H2X 1898   5.490   7.030   6.476  2.1806 -0.4310  1.7594
   15SAPS   H2Y 1899   5.619   6.912   6.412 -0.7185 -2.6046 -2.1222
   15SAPS   C23 1900   4.955   7.258   6.474 -0.2447  0.5663 -0.7682
   15SAPS   H3R 1901   4.855   7.255   6.426 -0.1772 -0.1482 -0.8631
   15SAPS   H3S 1902   4.967   7.361   6.516 -0.6209 -0.2088  1.3266
   15SAPS   C24 1903   4.942   7.143   6.580 -0.5927  0.6436 -0.2028
   15SAPS   H4R 1904   4.935   7.046   6.527  1.3344  0.2966  0.1388
   15SAPS   H4S 1905   4.847   7.162   6.635 -0.7056 -0.1636 -0.1205
   15SAPS   C25 1906   5.069   7.145   6.665  0.2808  0.1055  0.0079
   15SAPS   H5R 1907   5.164   7.165   6.614  0.0581  1.0882 -0.0325
   15SAPS   C26 1908   5.075   7.129   6.796 -0.6399  0.4451  0.3928
   15SAPS   H6R 1909   5.176   7.138   6.839 -0.8008  0.0202  0.8530
   15SAPS   C27 1910   4.960   7.107   6.889 -0.0042 -0.5543  0.4876
   15SAPS   H7R 1911   4.979   7.013   6.944  2.1287 -0.5559 -0.1846
   15SAPS   H7S 1912   4.859   7.097   6.844 -0.0218 -1.9702  0.8382
   15SAPS   C28 1913   4.947   7.224   6.992 -0.4391  0.0769  0.2577
   15SAPS   H8R 1914   4.949   7.322   6.942  1.0837 -0.4087 -0.6955
   15SAPS   C29 1915   4.942   7.232   7.126  0.0501  0.8779 -0.0064
   15SAPS   H9R 1916   4.912   7.329   7.168 -2.2390 -0.1098  0.7393
   15SAPS  C210 1917   4.936   7.103   7.208  0.2039 -0.6643  0.4527
   15SAPS  H10R 1918   5.046   7.089   7.220  0.3999  0.2894 -0.1211
   15SAPS  H10S 1919   4.890   7.014   7.160 -2.5619  0.6369  0.6314
   15SAPS  C211 1920   4.870   7.138   7.343  0.3124 -0.1275  1.3347
   15SAPS  H11R 1921   4.779   7.077   7.349  1.7976 -2.4388  0.7006
   15SAPS  C212 1922   4.911   7.218   7.451 -0.1278  0.4346  0.1501
   15SAPS  H12R 1923   4.864   7.209   7.550  3.1152  0.8461  1.8131
   15SAPS  C213 1924   5.044   7.298   7.447 -0.7026 -0.3969 -0.5155
   15SAPS  H13R 1925   5.010   7.404   7.452 -0.9617 -0.3667 -2.2968
   15SAPS  H13S 1926   5.099   7.289   7.351 -0.6422 -1.0901 -0.4164
   15SAPS  C214 1927   5.132   7.264   7.563 -0.3283 -0.1027  0.0549
   15SAPS  H14R 1928   5.158   7.157   7.565  0.0171 -0.0768 -1.9359
   15SAPS  C215 1929   5.190   7.342   7.654 -0.1886  0.2321 -0.6835
   15SAPS  H15R 1930   5.254   7.293   7.728 -0.4509 -0.1490 -0.7053
   15SAPS  C216 1931   5.177   7.493   7.674 -0.2698 -0.2441 -0.1809
   15SAPS  H16R 1932   5.152   7.538   7.576  1.0114  0.5621 -0.1520
   15SAPS  H16S 1933   5.278   7.526   7.706 -0.1082  1.7685 -2.6526
   15SAPS  C217 1934   5.085   7.543   7.776  0.1742  0.0890 -0.3068
   15SAPS  H17R 1935   5.109   7.492   7.872 -0.4523  2.0710  0.9528
   15SAPS  H17S 1936   4.983   7.509   7.751  0.0762 -0.2117  0.4704
   15SAPS  C218 1937   5.097   7.700   7.811 -0.2087 -0.7464  0.5563
   15SAPS  H18R 1938   5.060   7.764   7.728  1.1362 -0.4441  0.1809
   15SAPS  H18S 1939   5.202   7.727   7.835 -0.4400 -0.8211  1.7085
   15SAPS  C219 1940   5.005   7.740   7.931 -0.1359 -0.2817 -0.6269
   15SAPS  H19R 1941   5.028   7.661   8.005 -3.8818 -0.3750  0.5383
   15SAPS  H19S 1942   4.904   7.711   7.895 -0.6357 -0.1012  0.6278
   15SAPS  C220 1943   5.017   7.881   7.975 -0.3381 -0.7203  0.0677
   15SAPS  H20R 1944   5.121   7.902   8.007 -0.2463 -2.0043  0.6598
   15SAPS  H20S 1945   4.940   7.917   8.047  0.9961 -0.1573  1.2429
   15SAPS  H20T 1946   5.010   7.946   7.885  1.0882 -0.4796  0.1147
   15SAPS   C33 1947   5.508   6.838   6.583 -0.7344 -0.0530  0.8079
   15SAPS   H3X 1948   5.586   6.876   6.654  0.0155 -1.3864  0.7073
   15SAPS   H3Y 1949   5.518   6.729   6.570 -0.6732  0.2940 -2.2578
   15SAPS   C34 1950   5.371   6.858   6.656 -0.0496  0.8372  0.3863
   15SAPS   H4X 1951   5.293   6.806   6.596  0.3815  0.1005  0.4549
   15SAPS   H4Y 1952   5.358   6.966   6.676  0.7863  1.0823 -0.3587
   15SAPS   C35 1953   5.380   6.787   6.795 -0.2232  0.1906 -0.4081
   15SAPS   H5X 1954   5.452   6.854   6.846  0.7964 -1.3656  0.2283
   15SAPS   H5Y 1955   5.418   6.687   6.766 -1.6964 -0.5923  0.3174
   15SAPS   C36 1956   5.240   6.779   6.853 -0.5844 -0.3847 -0.1853
   15SAPS   H6X 1957   5.178   6.721   6.782  0.7979 -2.4342  0.2388
   15SAPS   H6Y 1958   5.199   6.882   6.855  0.7990  0.1965 -0.9896
   15SAPS   C37 1959   5.240   6.722   6.996  0.1747  0.5178 -0.3251
   15SAPS   H7X 1960   5.297   6.627   6.996 -0.9675 -0.1780  0.5810
   15SAPS   H7Y 1961   5.135   6.708   7.027  0.3489 -0.3247 -0.1019
   15SAPS   C38 1962   5.300   6.821   7.096  0.5555  0.2037  0.6411
   15SAPS   H8X 1963   5.224   6.902   7.105 -0.8401 -0.8877 -0.9109
   15SAPS   H8Y 1964   5.394   6.873   7.067  1.3373 -1.3214  0.4139
   15SAPS   C39 1965   5.327   6.751   7.232 -0.0802  0.2438 -0.2274
   15SAPS   H9X 1966   5.433   6.719   7.225 -0.2368  0.1124 -2.3472
   15SAPS   H9Y 1967   5.255   6.667   7.236  0.7406 -0.4473  0.0091
   15SAPS  C310 1968   5.308   6.842   7.349 -0.0594 -0.8821 -0.0428
   15SAPS  H10X 1969   5.202   6.872   7.357  0.2382 -0.3913  2.4487
   15SAPS  H10Y 1970   5.373   6.931   7.338  0.4244 -0.7760  3.1571
   15SAPS  C311 1971   5.344   6.768   7.476 -0.1321 -0.4159  0.2791
   15SAPS  H11X 1972   5.432   6.702   7.465 -0.3401 -0.7081  0.3567
   15SAPS  H11Y 1973   5.255   6.708   7.505 -0.2704 -0.1838  0.3332
   15SAPS  C312 1974   5.361   6.864   7.590 -0.2773  0.0212 -0.1057
   15SAPS  H12X 1975   5.276   6.935   7.597 -0.5951 -0.5375  2.0708
   15SAPS  H12Y 1976   5.460   6.912   7.571 -0.1851  0.5623  1.6647
   15SAPS  C313 1977   5.387   6.797   7.729  0.1884 -1.1258 -0.2338
   15SAPS  H13X 1978   5.477   6.732   7.718  0.7156 -0.5115  0.4369
   15SAPS  H13Y 1979   5.295   6.744   7.763  1.0811 -2.3707  0.2965
   15SAPS  C314 1980   5.422   6.910   7.825  0.5404 -0.3467  0.0646
   15SAPS  H14X 1981   5.336   6.979   7.821  1.2136  0.4507 -0.8917
   15SAPS  H14Y 1982   5.511   6.967   7.789  0.3373 -0.5630 -0.7948
   15SAPS  C315 1983   5.466   6.861   7.963 -0.0766 -0.0313  0.5581
   15SAPS  H15X 1984   5.571   6.827   7.972  0.6289  1.6467 -1.0700
   15SAPS  H15Y 1985   5.405   6.770   7.983  2.5754 -2.1456 -0.7537
   15SAPS  C316 1986   5.457   6.971   8.068 -0.6635  0.1007 -0.3161
   15SAPS  H16X 1987   5.350   6.992   8.089 -0.8004 -1.5360  0.7034
   15SAPS  H16Y 1988   5.495   7.065   8.023  1.1607 -0.9520 -1.0691
   15SAPS  C317 1989   5.527   6.930   8.206  0.0088  0.3541  0.0063
   15SAPS  H17X 1990   5.635   6.911   8.187  0.2996  1.8125  0.0974
   15SAPS  H17Y 1991   5.477   6.837   8.239  0.9036 -0.3272 -0.5582
   15SAPS  C318 1992   5.542   7.046   8.308  0.3723  0.1425  0.7061
   15SAPS  H18X 1993   5.589   7.137   8.265  1.1132 -1.3838 -1.8165
   15SAPS  H18Y 1994   5.622   7.008   8.376  0.7808 -1.1780 -0.4928
   15SAPS  H18Z 1995   5.446   7.056   8.362 -0.2641 -0.9928 -0.1920
   16SAPS     N 1996   6.739   1.673   6.231  0.0947  0.1186 -0.0179
   16SAPS   HN1 1997   6.654   1.618   6.255  2.4904 -2.6861  2.4014
   16SAPS   HN2 1998   6.722   1.774   6.249 -0.1615  0.3122 -1.2699
   16SAPS   HN3 1999   6.765   1.663   6.131  0.8314 -0.9896  0.2811
   16SAPS   C12 2000   6.846   1.629   6.332  0.1896 -0.9112 -0.1864
   16SAPS  H12A 2001   6.806   1.589   6.424  0.6202 -2.0122 -0.4624
   16SAPS   C13 2002   6.931   1.519   6.262 -0.1863 -0.5980  0.3072
   16SAPS  O13A 2003   6.909   1.486   6.143 -0.4334  0.1750  0.0499
   16SAPS  O13B 2004   7.034   1.484   6.323 -0.6773 -0.0386 -0.0609
   16SAPS   C11 2005   6.924   1.751   6.385  0.5531  0.1387  0.2810
   16SAPS  H11A 2006   6.982   1.802   6.305  0.7863  0.1365  0.4470
   16SAPS  H11B 2007   6.996   1.706   6.457 -0.6121 -1.8426  0.2605
   16SAPS     P 2008   6.785   1.972   6.410 -0.5332  0.1931  0.3803
   16SAPS   O13 2009   6.901   2.061   6.382 -0.3915  0.4120  0.0290
   16SAPS   O14 2010   6.692   1.943   6.300 -0.8143  0.2233  0.2806
   16SAPS   O12 2011   6.836   1.830   6.467 -0.0043  0.1149  0.7379
   16SAPS   O11 2012   6.704   2.031   6.521  0.3099  0.1728  0.1075
   16SAPS    C1 2013   6.604   1.951   6.581 -0.2711 -0.2200 -0.0221
   16SAPS    HA 2014   6.512   1.954   6.519  0.4503 -0.6907 -1.1323
   16SAPS    HB 2015   6.638   1.846   6.595 -0.3396 -0.1677  0.5548
   16SAPS    C2 2016   6.555   2.010   6.714 -1.1261  0.3584 -0.0146
   16SAPS    HS 2017   6.515   2.113   6.697  0.2957  0.7782 -0.9456
   16SAPS   O21 2018   6.672   2.021   6.798 -0.3731 -0.0053  0.6422
   16SAPS   C21 2019   6.668   2.120   6.880 -0.2616  0.0912 -0.4338
   16SAPS   O22 2020   6.584   2.207   6.887  0.2381 -0.1934 -0.6600
   16SAPS   C22 2021   6.801   2.127   6.959  0.7704  0.5060 -0.1293
   16SAPS   H2R 2022   6.832   2.023   6.983 -0.6418  0.6117  2.3177
   16SAPS   H2S 2023   6.883   2.168   6.896  0.8012 -1.5788 -1.4770
   16SAPS    C3 2024   6.434   1.927   6.780  0.0070 -0.4854  0.3690
   16SAPS    HX 2025   6.474   1.825   6.799  0.6084 -0.5848 -1.3978
   16SAPS    HY 2026   6.350   1.913   6.710 -0.8680  1.4794  1.0171
   16SAPS   O31 2027   6.390   1.969   6.914  0.3097  0.3544 -0.3491
   16SAPS   C31 2028   6.292   2.057   6.910  0.4111  0.1940 -0.3536
   16SAPS   O32 2029   6.252   2.110   6.803 -0.2553  0.9368 -0.3759
   16SAPS   C32 2030   6.235   2.090   7.052 -0.0311 -0.1411  0.0873
   16SAPS   H2X 2031   6.153   2.018   7.072 -0.5744  0.2159 -0.7906
   16SAPS   H2Y 2032   6.192   2.192   7.043 -0.7703 -0.6646 -3.2221
   16SAPS   C23 2033   6.793   2.222   7.084  0.3415 -0.6937  0.4945
   16SAPS   H3R 2034   6.746   2.316   7.048  1.3108 -0.8649 -1.3167
   16SAPS   H3S 2035   6.887   2.265   7.125  0.4523 -2.1561  1.8054
   16SAPS   C24 2036   6.710   2.166   7.203 -0.0805 -0.8455 -0.4853
   16SAPS   H4R 2037   6.608   2.136   7.170 -1.3768  1.4385  1.3285
   16SAPS   H4S 2038   6.697   2.240   7.284  2.7978 -1.7002  0.8518
   16SAPS   C25 2039   6.776   2.049   7.270 -0.6475  0.1237  0.6525
   16SAPS   H5R 2040   6.769   1.962   7.203 -1.1383  1.3940 -0.9785
   16SAPS   C26 2041   6.844   2.041   7.389 -0.5627 -0.3398 -0.0791
   16SAPS   H6R 2042   6.884   1.943   7.420 -0.6643 -0.6922 -1.0446
   16SAPS   C27 2043   6.854   2.141   7.496 -0.5108  0.1445  0.8878
   16SAPS   H7R 2044   6.821   2.094   7.591 -3.0104  1.5091  0.7471
   16SAPS   H7S 2045   6.788   2.227   7.473 -0.9778 -0.1975  0.9425
   16SAPS   C28 2046   6.998   2.191   7.517 -0.0807 -0.4371 -0.2433
   16SAPS   H8R 2047   7.044   2.255   7.440  0.2875  0.3432  0.6211
   16SAPS   C29 2048   7.074   2.160   7.626 -1.0196  0.6482  0.0214
   16SAPS   H9R 2049   7.180   2.190   7.624 -0.8205 -0.0529 -0.0759
   16SAPS  C210 2050   7.039   2.075   7.743  0.7251 -0.2233 -0.6497
   16SAPS  H10R 2051   7.010   1.974   7.706 -1.3169 -0.2127  0.8347
   16SAPS  H10S 2052   6.952   2.117   7.797  2.1433  1.5210  0.3328
   16SAPS  C211 2053   7.153   2.074   7.837 -0.0570  0.1083  0.8493
   16SAPS  H11R 2054   7.240   2.016   7.803  0.3372 -0.6780  3.1348
   16SAPS  C212 2055   7.165   2.142   7.956  0.1292 -0.3355 -0.2492
   16SAPS  H12R 2056   7.259   2.138   8.013  0.1847  0.8447 -0.2497
   16SAPS  C213 2057   7.062   2.235   8.013  0.4230 -0.2332  0.2034
   16SAPS  H13R 2058   6.968   2.237   7.952 -0.2945  2.1407  1.3197
   16SAPS  H13S 2059   7.101   2.338   8.008 -1.6732  0.5787 -0.1968
   16SAPS  C214 2060   7.010   2.201   8.151  0.1237  0.9318 -0.1306
   16SAPS  H14R 2061   6.977   2.096   8.163  0.2074  0.9884  0.6109
   16SAPS  C215 2062   7.007   2.281   8.259 -0.1183  0.7077  1.0955
   16SAPS  H15R 2063   6.964   2.235   8.349 -0.1877 -1.6838 -0.1061
   16SAPS  C216 2064   7.057   2.426   8.262  0.1482 -0.0150  0.6161
   16SAPS  H16R 2065   7.015   2.490   8.181  1.4436 -0.0692 -0.1062
   16SAPS  H16S 2066   7.166   2.422   8.243  0.0118  2.7591 -1.0700
   16SAPS  C217 2067   7.033   2.483   8.399 -0.3702 -0.6101 -0.1090
   16SAPS  H17R 2068   7.084   2.427   8.480 -0.4610 -1.7401 -0.8263
   16SAPS  H17S 2069   6.924   2.486   8.418  0.3676  1.1249  4.5692
   16SAPS  C218 2070   7.087   2.625   8.408 -0.4651 -0.0353  0.1807
   16SAPS  H18R 2071   7.180   2.636   8.349 -0.1437 -1.9126  0.2848
   16SAPS  H18S 2072   7.119   2.646   8.512  2.4279  0.5581 -0.7886
   16SAPS  C219 2073   6.986   2.721   8.354 -0.4039  0.0981 -0.2164
   16SAPS  H19R 2074   6.906   2.728   8.431  0.8363  1.5801  0.9717
   16SAPS  H19S 2075   6.942   2.685   8.259 -0.2720  2.1579 -1.0891
   16SAPS  C220 2076   7.033   2.864   8.316  0.2485  0.1843 -0.5103
   16SAPS  H20R 2077   6.943   2.920   8.282  0.5007  0.0036 -1.4685
   16SAPS  H20S 2078   7.098   2.853   8.227 -1.1559  1.0014 -1.6644
   16SAPS  H20T 2079   7.099   2.905   8.395 -0.8288  0.0603  0.4904
   16SAPS   C33 2080   6.337   2.078   7.163  0.2661  0.5222 -0.1146
   16SAPS   H3X 2081   6.421   2.148   7.142 -0.9270  2.0796  0.1871
   16SAPS   H3Y 2082   6.383   1.977   7.164  0.0200  0.3937 -1.0357
   16SAPS   C34 2083   6.297   2.116   7.310 -0.0468  0.2749  0.0543
   16SAPS   H4X 2084   6.215   2.046   7.336  1.7286 -1.6872  0.5129
   16SAPS   H4Y 2085   6.268   2.224   7.316  0.6806  0.3891  1.6166
   16SAPS   C35 2086   6.415   2.099   7.404  0.1680 -0.0255  0.3590
   16SAPS   H5X 2087   6.489   2.176   7.373  0.3236  0.0942  1.0302
   16SAPS   H5Y 2088   6.459   1.999   7.380 -1.5628 -0.9055  0.7417
   16SAPS   C36 2089   6.386   2.098   7.550 -0.5442  0.4607 -0.1415
   16SAPS   H6X 2090   6.328   2.005   7.570 -1.1503  1.3511  2.4733
   16SAPS   H6Y 2091   6.322   2.184   7.579 -1.5039 -0.0207 -0.7925
   16SAPS   C37 2092   6.518   2.085   7.635 -0.6704 -0.8940  0.2125
   16SAPS   H7X 2093   6.579   2.177   7.620 -3.3342  1.5842  3.8058
   16SAPS   H7Y 2094   6.593   2.003   7.630  1.1553  0.7382 -0.0486
   16SAPS   C38 2095   6.486   2.094   7.788 -0.0237  0.6161 -0.9865
   16SAPS   H8X 2096   6.429   2.006   7.824  1.3361  1.2184  2.9296
   16SAPS   H8Y 2097   6.418   2.181   7.794  3.1882  3.2009 -0.5064
   16SAPS   C39 2098   6.601   2.126   7.884  0.2293 -0.1301  0.0320
   16SAPS   H9X 2099   6.666   2.210   7.852  0.3127 -0.5626 -0.9378
   16SAPS   H9Y 2100   6.675   2.044   7.895 -0.7245 -1.4184 -2.7132
   16SAPS  C310 2101   6.548   2.191   8.015 -0.4831  0.2691  0.3848
   16SAPS  H10X 2102   6.468   2.134   8.067 -1.6049  2.2518  0.8671
   16SAPS  H10Y 2103   6.511   2.289   7.978  0.1810 -0.0877 -1.2556
   16SAPS  C311 2104   6.654   2.226   8.123  1.0078 -0.6193 -0.5703
   16SAPS  H11X 2105   6.714   2.309   8.079 -0.2527  0.7336  0.2166
   16SAPS  H11Y 2106   6.712   2.135   8.149  0.2183 -0.0151  3.6530
   16SAPS  C312 2107   6.591   2.277   8.253 -0.1336 -1.1758 -0.3270
   16SAPS  H12X 2108   6.644   2.236   8.342 -0.1605 -1.8431 -0.6160
   16SAPS  H12Y 2109   6.483   2.253   8.245 -0.2027 -0.5166 -1.3640
   16SAPS  C313 2110   6.587   2.432   8.260  0.4881 -0.1777  0.2040
   16SAPS  H13X 2111   6.531   2.467   8.171  0.8236  3.8159  1.4720
   16SAPS  H13Y 2112   6.685   2.485   8.259 -0.3913  1.4750 -1.5913
   16SAPS  C314 2113   6.501   2.486   8.374 -0.4912  0.3000 -0.9811
   16SAPS  H14X 2114   6.421   2.410   8.383 -0.4410  0.6417  3.7275
   16SAPS  H14Y 2115   6.458   2.585   8.348 -1.2879  0.9624  2.6426
   16SAPS  C315 2116   6.572   2.492   8.504  0.4971 -0.7333 -0.5277
   16SAPS  H15X 2117   6.650   2.571   8.497 -1.5466  1.2645 -1.5325
   16SAPS  H15Y 2118   6.631   2.404   8.536  2.3854  1.4282  2.2107
   16SAPS  C316 2119   6.476   2.555   8.611 -0.1281 -0.0431  0.1429
   16SAPS  H16X 2120   6.417   2.637   8.566 -0.9840 -0.5788  0.2774
   16SAPS  H16Y 2121   6.543   2.582   8.695 -1.7794  0.0501  1.4517
   16SAPS  C317 2122   6.376   2.463   8.685 -0.5971  0.3197 -0.3148
   16SAPS  H17X 2123   6.417   2.362   8.706 -1.9099 -0.0376  0.5758
   16SAPS  H17Y 2124   6.294   2.435   8.616 -1.8835  2.7532  0.1919
   16SAPS  C318 2125   6.342   2.524   8.819 -0.4544 -0.1847  0.2537
   16SAPS  H18X 2126   6.300   2.626   8.810 -0.2985 -0.0857  0.6043
   16SAPS  H18Y 2127   6.438   2.533   8.876 -0.7468  0.2463  0.6864
   16SAPS  H18Z 2128   6.270   2.470   8.884  0.4380  1.6085  2.8484
   17SAPC     N 2129   4.105   4.645  10.457 -0.2871 -0.0127 -0.4568
   17SAPC   C12 2130   4.088   4.583  10.323 -0.5962 -0.0577  0.6895
   17SAPC  H12A 2131   4.177   4.604  10.266 -0.5009 -1.0850  0.4462
   17SAPC  H12B 2132   3.999   4.619  10.272  0.9396  0.0149 -2.0232
   17SAPC   C13 2133   4.217   4.576  10.529  0.2806  0.6578  0.3345
   17SAPC  H13A 2134   4.212   4.604  10.634 -0.9605 -0.9448  0.7248
   17SAPC  H13B 2135   4.202   4.469  10.528 -0.8664  0.8040  0.5339
   17SAPC  H13C 2136   4.313   4.581  10.480  0.2148  1.0436  0.2449
   17SAPC   C14 2137   4.159   4.787  10.453  0.5424 -0.4078  0.3494
   17SAPC  H14A 2138   4.083   4.857  10.421  1.8588  0.9939  0.2539
   17SAPC  H14B 2139   4.186   4.813  10.554  1.4960 -1.6181  0.4238
   17SAPC  H14C 2140   4.247   4.797  10.391 -0.5171  2.3183 -0.8137
   17SAPC   C15 2141   3.978   4.642  10.546 -0.2868 -1.0372  0.9682
   17SAPC  H15A 2142   3.995   4.675  10.648  1.1746 -2.3708  1.1657
   17SAPC  H15B 2143   3.897   4.699  10.503  0.8167  1.0537  1.6097
   17SAPC  H15C 2144   3.936   4.543  10.557  0.2155 -1.4639 -0.8505
   17SAPC   C11 2145   4.070   4.425  10.329  0.1292  0.3473  0.4417
   17SAPC  H11A 2146   4.022   4.389  10.236  0.6899  0.8827 -0.0560
   17SAPC  H11B 2147   3.987   4.401  10.399  0.4310  0.6758  0.9210
   17SAPC     P 2148   4.312   4.344  10.266 -0.0881 -0.1924 -0.1367
   17SAPC   O13 2149   4.421   4.432  10.322  0.2769 -0.5297 -0.1955
   17SAPC   O14 2150   4.354   4.207  10.246 -0.1508 -0.0455  0.8705
   17SAPC   O12 2151   4.182   4.345  10.364  0.0852 -0.0235  0.5489
   17SAPC   O11 2152   4.257   4.399  10.134  0.2199  0.1497 -0.3396
   17SAPC    C1 2153   4.220   4.321  10.019 -0.2509  0.3054 -0.5572
   17SAPC    HA 2154   4.176   4.223  10.048 -1.8728  1.3284  0.5073
   17SAPC    HB 2155   4.140   4.373   9.961  1.0885  1.5767 -1.3117
   17SAPC    C2 2156   4.340   4.294   9.935  0.0835 -0.0796  0.4589
   17SAPC    HS 2157   4.424   4.265  10.002  0.0572 -2.1467 -0.3678
   17SAPC   O21 2158   4.380   4.401   9.845  0.2146 -0.0619 -0.0423
   17SAPC   C21 2159   4.514   4.408   9.825  0.0810 -0.6162 -0.7124
   17SAPC   O22 2160   4.595   4.336   9.881 -0.0618 -0.4503 -0.6316
   17SAPC   C22 2161   4.540   4.528   9.744  0.0346 -0.1939  0.2095
   17SAPC   H2R 2162   4.547   4.510   9.634 -2.4112 -3.0543  0.4925
   17SAPC   H2S 2163   4.456   4.600   9.755  0.9226  1.1038 -1.1580
   17SAPC    C3 2164   4.305   4.165   9.853 -0.3930  0.2719  0.1991
   17SAPC    HX 2165   4.221   4.195   9.787  1.6372  0.1593 -2.5552
   17SAPC    HY 2166   4.259   4.090   9.920 -0.9536  0.7468  0.3535
   17SAPC   O31 2167   4.412   4.128   9.768 -0.0892  0.0402  0.1132
   17SAPC   C31 2168   4.441   3.994   9.762 -0.6887  0.4234 -0.9675
   17SAPC   O32 2169   4.375   3.905   9.814 -0.0667 -0.8264 -0.4647
   17SAPC   C32 2170   4.576   3.974   9.692 -0.9344 -0.0360  0.4982
   17SAPC   H2X 2171   4.575   3.890   9.619  2.2329 -0.0717  0.4297
   17SAPC   H2Y 2172   4.654   3.936   9.760  1.8958  0.9983 -2.0380
   17SAPC   C23 2173   4.671   4.603   9.785 -0.8352 -0.9722  0.6676
   17SAPC   H3R 2174   4.763   4.552   9.750  0.0571  1.3002 -0.3357
   17SAPC   H3S 2175   4.677   4.602   9.896 -0.9808  3.7348  0.8065
   17SAPC   C24 2176   4.681   4.752   9.748  0.4183 -0.5178  0.3453
   17SAPC   H4R 2177   4.680   4.749   9.637 -0.9955 -0.6300  0.3572
   17SAPC   H4S 2178   4.778   4.802   9.767  0.2056  0.7596 -1.6898
   17SAPC   C25 2179   4.574   4.843   9.803  0.2698 -0.9726  0.1766
   17SAPC   H5R 2180   4.574   4.856   9.912  0.1850  1.5014 -0.0974
   17SAPC   C26 2181   4.466   4.897   9.743 -0.3215 -0.3041 -0.1766
   17SAPC   H6R 2182   4.399   4.956   9.807 -2.5416 -1.8309 -1.0553
   17SAPC   C27 2183   4.423   4.887   9.595  0.2742 -0.5390 -0.3225
   17SAPC   H7R 2184   4.457   4.788   9.558 -1.3971 -1.2496 -0.0235
   17SAPC   H7S 2185   4.478   4.961   9.535 -0.6007  1.3425  1.1348
   17SAPC   C28 2186   4.273   4.889   9.587  0.4578 -0.2992 -0.5650
   17SAPC   H8R 2187   4.210   4.879   9.676 -0.4286  1.7963 -0.9459
   17SAPC   C29 2188   4.209   4.903   9.466 -0.4177 -0.5572  0.4369
   17SAPC   H9R 2189   4.101   4.925   9.455 -0.1840  0.4104  0.0024
   17SAPC  C210 2190   4.291   4.916   9.337 -0.0716  0.0763  0.3292
   17SAPC  H10R 2191   4.230   4.860   9.263  1.2468 -0.7505 -0.1666
   17SAPC  H10S 2192   4.385   4.857   9.342  0.0594  0.0949 -1.4417
   17SAPC  C211 2193   4.326   5.056   9.292  0.6473 -0.2127  0.3233
   17SAPC  H11R 2194   4.328   5.138   9.365 -0.4551 -1.9959  2.4187
   17SAPC  C212 2195   4.346   5.087   9.161  0.2419 -0.2489 -0.3611
   17SAPC  H12R 2196   4.401   5.179   9.137 -1.1577  0.1953 -1.9478
   17SAPC  C213 2197   4.337   4.987   9.047 -0.1104 -0.1834  0.5125
   17SAPC  H13R 2198   4.232   4.962   9.021  0.3422 -1.6124  0.0169
   17SAPC  H13S 2199   4.379   4.891   9.084  0.2933 -0.1412  0.1551
   17SAPC  C214 2200   4.413   5.020   8.922  0.0398 -0.0843  0.1871
   17SAPC  H14R 2201   4.518   4.987   8.919  0.2285  0.3571  1.5557
   17SAPC  C215 2202   4.368   5.075   8.812  0.2587 -0.6361 -0.1842
   17SAPC  H15R 2203   4.445   5.110   8.742 -2.0247  1.3122 -1.8204
   17SAPC  C216 2204   4.226   5.117   8.776 -0.3484  0.5017 -0.7674
   17SAPC  H16R 2205   4.169   5.110   8.871  1.5312 -1.8212  0.2381
   17SAPC  H16S 2206   4.165   5.054   8.708  0.0760 -0.3815 -0.3288
   17SAPC  C217 2207   4.224   5.259   8.729 -0.5991 -0.0214  0.4132
   17SAPC  H17R 2208   4.288   5.271   8.639  3.8886  0.1141  3.4931
   17SAPC  H17S 2209   4.266   5.321   8.810  1.1314 -2.2684  1.2769
   17SAPC  C218 2210   4.072   5.297   8.718  0.5519  0.1150  0.2237
   17SAPC  H18R 2211   4.017   5.261   8.808  1.0556  0.3639  0.6387
   17SAPC  H18S 2212   4.022   5.224   8.651 -0.2146 -0.6670  1.6205
   17SAPC  C219 2213   4.049   5.440   8.665 -0.2595 -0.4384  0.2911
   17SAPC  H19R 2214   3.946   5.449   8.625 -0.5216 -1.4280  0.7349
   17SAPC  H19S 2215   4.120   5.459   8.581 -1.5719  0.1978 -0.7022
   17SAPC  C220 2216   4.077   5.552   8.767  0.0467 -0.5347 -0.0412
   17SAPC  H20R 2217   4.039   5.521   8.867 -1.0746 -2.6694 -1.0694
   17SAPC  H20S 2218   4.016   5.637   8.728 -1.9868 -0.5613  2.9070
   17SAPC  H20T 2219   4.182   5.585   8.768 -0.0531 -0.2326  0.4635
   17SAPC   C33 2220   4.641   4.103   9.622 -0.4837 -0.0015 -0.5772
   17SAPC   H3X 2221   4.741   4.074   9.585 -0.2155 -1.4098  1.1567
   17SAPC   H3Y 2222   4.667   4.179   9.699 -0.0149 -0.6484 -0.0975
   17SAPC   C34 2223   4.567   4.179   9.513  0.4578  0.4259  0.5183
   17SAPC   H4X 2224   4.474   4.218   9.561  0.0724 -0.5784  0.5960
   17SAPC   H4Y 2225   4.535   4.114   9.429  0.6008  3.1573 -1.7375
   17SAPC   C35 2226   4.645   4.301   9.454 -0.0448  0.1943  0.1469
   17SAPC   H5X 2227   4.736   4.264   9.403  0.4463  2.2079 -0.4672
   17SAPC   H5Y 2228   4.682   4.352   9.545  3.2443 -2.1668  0.2144
   17SAPC   C36 2229   4.563   4.379   9.350 -0.0211 -0.1364  0.1246
   17SAPC   H6X 2230   4.463   4.394   9.397 -0.0214 -2.4762  0.9442
   17SAPC   H6Y 2231   4.546   4.315   9.261  1.0941  2.0069 -1.6725
   17SAPC   C37 2232   4.627   4.512   9.304  0.1038 -0.1729  0.7989
   17SAPC   H7X 2233   4.736   4.502   9.284 -0.6991 -0.4217 -4.0747
   17SAPC   H7Y 2234   4.600   4.578   9.389 -3.3124  1.3987 -1.4295
   17SAPC   C38 2235   4.557   4.580   9.183  0.2507 -0.2148  0.6463
   17SAPC   H8X 2236   4.448   4.569   9.204  0.3640 -1.4063  0.6546
   17SAPC   H8Y 2237   4.582   4.525   9.090  1.9344  2.0884 -0.2958
   17SAPC   C39 2238   4.600   4.732   9.165  0.8318  0.6312 -0.4215
   17SAPC   H9X 2239   4.549   4.787   9.247 -1.6280 -2.8894  0.5650
   17SAPC   H9Y 2240   4.558   4.779   9.074 -1.5015 -0.4264  0.0586
   17SAPC  C310 2241   4.748   4.760   9.195  0.1835  0.0661 -0.5798
   17SAPC  H10X 2242   4.809   4.708   9.118  2.3590  0.3826  0.8887
   17SAPC  H10Y 2243   4.775   4.704   9.287  1.2248 -0.4184 -1.1767
   17SAPC  C311 2244   4.784   4.914   9.195 -0.8251  0.0427  0.1887
   17SAPC  H11X 2245   4.878   4.917   9.254  0.0089 -0.8344 -1.0964
   17SAPC  H11Y 2246   4.713   4.969   9.261  1.6539  3.2246  0.3054
   17SAPC  C312 2247   4.804   4.979   9.065 -0.5486 -0.0474 -0.5247
   17SAPC  H12X 2248   4.715   4.962   9.002 -1.1983 -1.4714  0.7592
   17SAPC  H12Y 2249   4.895   4.946   9.011  0.9930  0.4604  1.6689
   17SAPC  C313 2250   4.810   5.132   9.079 -0.0362  0.1865  0.0980
   17SAPC  H13X 2251   4.901   5.157   9.139 -1.5631  0.6831  2.2602
   17SAPC  H13Y 2252   4.715   5.174   9.119  0.6290  0.0088  1.9056
   17SAPC  C314 2253   4.821   5.214   8.941  0.5224  0.0138 -0.1146
   17SAPC  H14X 2254   4.734   5.188   8.877  0.6488 -1.1335  0.1688
   17SAPC  H14Y 2255   4.914   5.176   8.894 -1.1628 -1.9650 -1.9207
   17SAPC  C315 2256   4.815   5.357   8.969 -0.0306 -0.0100  0.2516
   17SAPC  H15X 2257   4.896   5.398   9.034 -1.4181  1.7110  0.9421
   17SAPC  H15Y 2258   4.723   5.374   9.029  1.4874  0.1295  2.6449
   17SAPC  C316 2259   4.800   5.451   8.853 -0.1315  0.7819 -0.3192
   17SAPC  H16X 2260   4.776   5.547   8.903 -2.9443 -0.9892  1.9457
   17SAPC  H16Y 2261   4.709   5.430   8.793 -1.0728  0.8801  1.0535
   17SAPC  C317 2262   4.928   5.457   8.772 -0.5055 -0.1615  0.7402
   17SAPC  H17X 2263   4.912   5.542   8.703  4.0823  1.4686  1.5500
   17SAPC  H17Y 2264   4.938   5.357   8.725  1.0550  0.8238 -1.0793
   17SAPC  C318 2265   5.065   5.484   8.835  0.0573 -0.4718  0.0009
   17SAPC  H18X 2266   5.145   5.501   8.760  0.5449  2.7546  1.1851
   17SAPC  H18Y 2267   5.062   5.576   8.897 -1.7638 -0.5135 -0.0015
   17SAPC  H18Z 2268   5.095   5.391   8.888 -0.1828 -0.0948  0.8103
   18SAPC     N 2269   5.262   4.895  10.470 -0.1483  0.2699 -0.0726
   18SAPC   C12 2270   5.229   4.798  10.587 -0.4183 -0.1094 -0.3532
   18SAPC  H12A 2271   5.213   4.870  10.667  0.2392 -0.7713  0.3871
   18SAPC  H12B 2272   5.310   4.733  10.616 -1.4486 -0.3978  2.0168
   18SAPC   C13 2273   5.275   4.821  10.340 -0.0792  0.1415 -0.7088
   18SAPC  H13A 2274   5.363   4.760  10.351 -1.1635 -1.4799 -0.8246
   18SAPC  H13B 2275   5.197   4.751  10.315 -0.4699  0.9089 -1.6459
   18SAPC  H13C 2276   5.282   4.893  10.260  2.4086  2.0059  1.0791
   18SAPC   C14 2277   5.162   5.011  10.458  0.1112  0.4970  0.8156
   18SAPC  H14A 2278   5.198   5.086  10.389 -0.2231  1.0640  1.2524
   18SAPC  H14B 2279   5.064   4.975  10.428  0.8330 -0.5626 -0.3277
   18SAPC  H14C 2280   5.137   5.053  10.554 -2.7818 -0.4853  0.5415
   18SAPC   C15 2281   5.399   4.959  10.512 -0.5658 -0.3042  0.1300
   18SAPC  H15A 2282   5.424   5.024  10.429  1.1728  0.8580  1.5258
   18SAPC  H15B 2283   5.391   5.014  10.604  0.7207  1.1573 -0.6089
   18SAPC  H15C 2284   5.480   4.887  10.512 -1.3660 -1.2945 -3.0849
   18SAPC   C11 2285   5.107   4.709  10.559  0.6594 -0.0902 -0.2063
   18SAPC  H11A 2286   5.031   4.784  10.528  1.0599  0.4173  0.0083
   18SAPC  H11B 2287   5.076   4.673  10.660  0.4587  2.1942  0.5815
   18SAPC     P 2288   5.003   4.497  10.457 -0.2501  0.0649  0.0066
   18SAPC   O13 2289   4.975   4.452  10.597  0.2750 -0.3009  0.5517
   18SAPC   O14 2290   4.888   4.554  10.385  0.5974  0.1687  0.6861
   18SAPC   O12 2291   5.119   4.608  10.460 -0.1338 -0.5730 -0.6713
   18SAPC   O11 2292   5.059   4.371  10.378 -0.1741 -0.3565 -0.0059
   18SAPC    C1 2293   5.190   4.318  10.370  0.2245  0.3726 -0.6069
   18SAPC    HA 2294   5.250   4.326  10.464 -0.6187 -0.3498  0.0022
   18SAPC    HB 2295   5.186   4.208  10.350  0.6725  0.0621  0.9114
   18SAPC    C2 2296   5.266   4.391  10.257  0.0421 -0.5557 -0.5992
   18SAPC    HS 2297   5.272   4.497  10.291 -1.3102  0.1874 -2.6215
   18SAPC   O21 2298   5.191   4.383  10.134 -0.7946  0.5728 -0.5516
   18SAPC   C21 2299   5.222   4.480  10.046 -0.0862  0.6684 -0.1185
   18SAPC   O22 2300   5.317   4.556  10.061 -0.1368  0.2655  0.2815
   18SAPC   C22 2301   5.144   4.459   9.924 -0.0841 -0.7022 -0.1262
   18SAPC   H2R 2302   5.040   4.500   9.923  0.8922  1.9088  0.0704
   18SAPC   H2S 2303   5.202   4.515   9.848  0.1290  2.3792  2.1855
   18SAPC    C3 2304   5.411   4.332  10.246 -0.8530  0.0163  0.3591
   18SAPC    HX 2305   5.480   4.377  10.320 -1.4044  2.5393 -0.6392
   18SAPC    HY 2306   5.446   4.370  10.148 -1.3505 -0.5776 -0.0581
   18SAPC   O31 2307   5.414   4.191  10.242 -0.3178  0.3619 -0.2311
   18SAPC   C31 2308   5.459   4.113  10.340  0.0972  0.1744 -0.9363
   18SAPC   O32 2309   5.511   4.158  10.441  0.4459 -0.4415  0.9647
   18SAPC   C32 2310   5.447   3.967  10.309  0.2595  0.8917 -0.3707
   18SAPC   H2X 2311   5.378   3.924  10.384  1.0400 -0.0403 -0.1643
   18SAPC   H2Y 2312   5.547   3.921  10.324 -0.2971 -0.1357  0.1988
   18SAPC   C23 2313   5.129   4.310   9.883 -0.4801  0.0694  1.1671
   18SAPC   H3R 2314   5.054   4.259   9.947 -0.4268 -0.2293  0.9933
   18SAPC   H3S 2315   5.227   4.257   9.882  0.6780  2.1724  0.4403
   18SAPC   C24 2316   5.085   4.301   9.733 -0.1164  0.0822 -0.2579
   18SAPC   H4R 2317   5.058   4.193   9.724  1.7541 -0.4457  0.2519
   18SAPC   H4S 2318   5.179   4.324   9.679  0.5553 -2.7323 -0.3698
   18SAPC   C25 2319   4.968   4.388   9.690  0.4462 -0.0185 -0.5186
   18SAPC   H5R 2320   4.905   4.431   9.769  0.6440  2.2579 -1.5760
   18SAPC   C26 2321   4.956   4.436   9.565  0.4378 -0.3465 -0.3489
   18SAPC   H6R 2322   4.866   4.492   9.536 -0.3891 -0.9796  0.9488
   18SAPC   C27 2323   5.041   4.382   9.454 -0.1826  0.8143  0.5035
   18SAPC   H7R 2324   4.980   4.362   9.364  0.3314 -3.6677  1.0518
   18SAPC   H7S 2325   5.085   4.283   9.475 -0.4923  0.4900 -0.3661
   18SAPC   C28 2326   5.157   4.478   9.422  0.0543  0.4474 -1.2000
   18SAPC   H8R 2327   5.240   4.474   9.495 -1.6339  0.5486  0.7769
   18SAPC   C29 2328   5.171   4.560   9.314 -0.1131  0.7904 -0.4623
   18SAPC   H9R 2329   5.267   4.612   9.305  1.2604 -1.2162  1.6259
   18SAPC  C210 2330   5.073   4.576   9.205 -0.0983 -0.2287 -0.6794
   18SAPC  H10R 2331   5.045   4.683   9.192  0.3202  0.3293  2.5924
   18SAPC  H10S 2332   4.975   4.527   9.221  0.3189 -0.7821  0.2393
   18SAPC  C211 2333   5.130   4.507   9.085 -0.3663  0.7664 -0.4142
   18SAPC  H11R 2334   5.101   4.401   9.082 -1.5689  1.0960 -0.6910
   18SAPC  C212 2335   5.220   4.557   9.000  0.2303  0.2784 -0.9472
   18SAPC  H12R 2336   5.271   4.502   8.920  0.0908 -1.9470  0.4544
   18SAPC  C213 2337   5.259   4.705   9.009  0.1370 -0.6137 -0.7779
   18SAPC  H13R 2338   5.337   4.706   9.089 -1.0978 -1.3351  0.4549
   18SAPC  H13S 2339   5.171   4.767   9.038  0.8552  0.7236 -1.4053
   18SAPC  C214 2340   5.316   4.764   8.883 -0.1671 -0.2999  0.1679
   18SAPC  H14R 2341   5.425   4.775   8.898 -0.0472 -0.7337 -0.3486
   18SAPC  C215 2342   5.255   4.800   8.769  0.4236 -0.4336  0.0487
   18SAPC  H15R 2343   5.309   4.850   8.687 -1.4238  0.1022 -0.8605
   18SAPC  C216 2344   5.105   4.788   8.744 -0.1420  0.0151 -0.6188
   18SAPC  H16R 2345   5.060   4.721   8.820  5.0233 -0.4320  2.2398
   18SAPC  H16S 2346   5.085   4.742   8.644 -3.0181 -0.1800 -0.0212
   18SAPC  C217 2347   5.038   4.926   8.757 -0.4168 -0.9999 -0.3481
   18SAPC  H17R 2348   5.095   4.995   8.823 -0.0735 -1.1338 -0.5058
   18SAPC  H17S 2349   4.933   4.913   8.792 -1.0059  1.5051 -1.0868
   18SAPC  C218 2350   5.033   5.005   8.626 -0.4293  0.2177 -0.4070
   18SAPC  H18R 2351   5.042   4.923   8.551 -0.8405 -1.4620  1.3168
   18SAPC  H18S 2352   5.127   5.063   8.615 -0.2249 -0.5100 -2.7074
   18SAPC  C219 2353   4.915   5.094   8.603  0.1619 -0.4064  0.0298
   18SAPC  H19R 2354   4.891   5.147   8.697 -0.8859 -2.3587  0.9027
   18SAPC  H19S 2355   4.823   5.032   8.598 -2.1295  2.7346  2.1087
   18SAPC  C220 2356   4.912   5.182   8.475 -0.1616  0.6172 -0.0244
   18SAPC  H20R 2357   4.822   5.246   8.472 -0.8093 -0.3246 -0.9104
   18SAPC  H20S 2358   4.924   5.123   8.382  0.9056  1.0261 -0.1586
   18SAPC  H20T 2359   4.999   5.252   8.479  0.4171  0.0991 -2.6046
   18SAPC   C33 2360   5.391   3.925  10.168 -0.5191 -0.1055  0.9481
   18SAPC   H3X 2361   5.295   3.979  10.149 -1.2171 -1.0615  1.6667
   18SAPC   H3Y 2362   5.373   3.815  10.160  0.3394 -0.1429 -0.6995
   18SAPC   C34 2363   5.471   3.959  10.037 -0.0049 -0.2775  0.1471
   18SAPC   H4X 2364   5.560   3.893  10.042  0.4710  0.4266  1.1058
   18SAPC   H4Y 2365   5.502   4.064  10.051  2.5063 -1.0555  0.7498
   18SAPC   C35 2366   5.395   3.930   9.907  0.0720 -0.3794  0.3349
   18SAPC   H5X 2367   5.301   3.990   9.909  1.3166  1.5915  2.3558
   18SAPC   H5Y 2368   5.360   3.826   9.890 -1.1285 -0.1550  1.3205
   18SAPC   C36 2369   5.473   3.962   9.788  0.2936  0.6214  0.6788
   18SAPC   H6X 2370   5.547   3.887   9.751 -0.3692  0.0781  0.4533
   18SAPC   H6Y 2371   5.531   4.055   9.802  0.8534  0.2945  0.5724
   18SAPC   C37 2372   5.366   3.994   9.676  0.0743  0.0055 -0.3284
   18SAPC   H7X 2373   5.287   4.065   9.707 -2.8179 -2.8423 -0.9710
   18SAPC   H7Y 2374   5.315   3.902   9.641 -1.7860  1.9045 -2.7842
   18SAPC   C38 2375   5.443   4.064   9.561  0.0565 -0.7882  0.2752
   18SAPC   H8X 2376   5.537   4.008   9.539  0.5204  0.1441 -0.1266
   18SAPC   H8Y 2377   5.475   4.164   9.597 -2.8726  0.4229 -0.4169
   18SAPC   C39 2378   5.355   4.059   9.429 -0.2082  0.2474 -0.0559
   18SAPC   H9X 2379   5.252   4.096   9.446 -0.3980  0.1937 -1.1051
   18SAPC   H9Y 2380   5.353   3.954   9.392 -2.0835  0.3420 -0.2772
   18SAPC  C310 2381   5.415   4.134   9.301 -0.2183  0.0715 -0.1397
   18SAPC  H10X 2382   5.510   4.082   9.275 -1.1382 -1.0857 -1.2903
   18SAPC  H10Y 2383   5.440   4.233   9.343 -0.9652 -0.5525  1.8527
   18SAPC  C311 2384   5.329   4.127   9.178 -0.0106 -0.0984 -0.0366
   18SAPC  H11X 2385   5.226   4.167   9.190  0.3154  0.5818  0.5701
   18SAPC  H11Y 2386   5.326   4.019   9.150  1.8526 -0.0952 -0.2690
   18SAPC  C312 2387   5.383   4.202   9.048 -0.2263 -0.3786  0.1236
   18SAPC  H12X 2388   5.483   4.160   9.021  0.2917  0.8967  0.0167
   18SAPC  H12Y 2389   5.390   4.309   9.077 -2.7802 -0.3199  0.5558
   18SAPC  C313 2390   5.279   4.197   8.937 -0.7664 -0.3480 -0.3912
   18SAPC  H13X 2391   5.315   4.265   8.857 -0.4817 -0.7984 -0.6543
   18SAPC  H13Y 2392   5.180   4.233   8.971  0.1026  0.1249  1.7190
   18SAPC  C314 2393   5.257   4.056   8.883 -1.1749  0.5054  0.0884
   18SAPC  H14X 2394   5.177   4.007   8.942  0.7481 -2.5817  0.2426
   18SAPC  H14Y 2395   5.345   3.991   8.902 -0.6036  0.5442 -2.1709
   18SAPC  C315 2396   5.251   4.057   8.727  0.1008  0.0897  0.1829
   18SAPC  H15X 2397   5.179   4.135   8.696 -3.4521 -2.6922  1.0171
   18SAPC  H15Y 2398   5.228   3.954   8.690 -2.4795  0.5712  0.3299
   18SAPC  C316 2399   5.383   4.099   8.670 -0.3665 -0.2197  0.5443
   18SAPC  H16X 2400   5.464   4.072   8.742  2.8206  2.6227 -1.8033
   18SAPC  H16Y 2401   5.400   4.207   8.651  1.5744 -0.1934  2.2452
   18SAPC  C317 2402   5.407   4.039   8.527  0.4089 -0.2298 -0.5309
   18SAPC  H17X 2403   5.330   4.079   8.458 -1.4963 -1.0793  1.0561
   18SAPC  H17Y 2404   5.384   3.931   8.532  0.4730 -0.1956  0.8503
   18SAPC  C318 2405   5.545   4.060   8.463  0.3301 -0.2056  0.2337
   18SAPC  H18X 2406   5.629   4.028   8.528  0.5408 -2.9066 -1.2855
   18SAPC  H18Y 2407   5.564   4.168   8.447 -0.5750 -0.1954 -0.8695
   18SAPC  H18Z 2408   5.556   4.005   8.367  1.1172 -2.2299  1.4362
   19SAPC     N 2409   4.279   5.851  10.702  0.4862 -0.2211 -0.1872
   19SAPC   C12 2410   4.374   5.745  10.749 -0.4558  0.4544 -0.3592
   19SAPC  H12A 2411   4.457   5.786  10.806  0.5106 -1.3172 -0.4812
   19SAPC  H12B 2412   4.424   5.692  10.670 -0.0657 -0.1433  0.2835
   19SAPC   C13 2413   4.237   5.933  10.811 -0.5964  0.1055  0.2346
   19SAPC  H13A 2414   4.174   6.010  10.771  0.1438  0.2038 -0.7604
   19SAPC  H13B 2415   4.174   5.872  10.875 -1.2104 -0.4902 -0.9143
   19SAPC  H13C 2416   4.314   5.978  10.872  0.4934 -0.3580 -0.7769
   19SAPC   C14 2417   4.358   5.941  10.612 -0.4455 -0.0835 -0.2895
   19SAPC  H14A 2418   4.432   5.885  10.558 -0.5683 -0.0818 -0.4576
   19SAPC  H14B 2419   4.293   5.983  10.537 -0.3633  0.3427 -0.1257
   19SAPC  H14C 2420   4.417   6.010  10.671  1.2900 -3.0520  1.5401
   19SAPC   C15 2421   4.159   5.801  10.636  0.4093  0.3980  0.1435
   19SAPC  H15A 2422   4.086   5.760  10.703 -0.6716  1.0153 -0.6352
   19SAPC  H15B 2423   4.109   5.873  10.573 -0.1436  1.3322  1.6175
   19SAPC  H15C 2424   4.195   5.724  10.570 -2.0130  0.5489 -1.4459
   19SAPC   C11 2425   4.306   5.639  10.833  0.1598  0.0477 -0.8441
   19SAPC  H11A 2426   4.244   5.677  10.917 -0.2965 -3.0707  0.2745
   19SAPC  H11B 2427   4.381   5.578  10.888 -0.6743 -0.4611 -0.2736
   19SAPC     P 2428   4.279   5.450  10.648  0.6907  0.1613 -0.2727
   19SAPC   O13 2429   4.424   5.457  10.665 -1.1537 -0.4480  0.1966
   19SAPC   O14 2430   4.210   5.318  10.658 -0.0979  0.1960 -0.8015
   19SAPC   O12 2431   4.217   5.554  10.757  0.2187 -0.4276 -0.2908
   19SAPC   O11 2432   4.236   5.519  10.508  0.9101  0.4691  0.2527
   19SAPC    C1 2433   4.335   5.540  10.409 -0.7658 -0.0954 -0.5202
   19SAPC    HA 2434   4.439   5.551  10.444 -0.8965  1.8755 -0.6718
   19SAPC    HB 2435   4.348   5.455  10.339  1.2059  0.1411 -0.4521
   19SAPC    C2 2436   4.309   5.660  10.321 -0.5996  0.5294 -0.2458
   19SAPC    HS 2437   4.303   5.750  10.386 -1.3761 -0.7644  1.5283
   19SAPC   O21 2438   4.205   5.644  10.224  0.4818  0.8557 -0.5823
   19SAPC   C21 2439   4.133   5.747  10.200 -1.0415 -0.0059 -0.5990
   19SAPC   O22 2440   4.122   5.845  10.269 -0.6388 -0.1758 -0.3772
   19SAPC   C22 2441   4.066   5.725  10.066 -0.3111 -1.2391 -0.1065
   19SAPC   H2R 2442   4.142   5.709   9.986  0.5952  2.0428  0.0184
   19SAPC   H2S 2443   4.003   5.634  10.076  2.1078 -2.8708  0.7233
   19SAPC    C3 2444   4.444   5.692  10.237  0.5157 -0.3009  0.5259
   19SAPC    HX 2445   4.458   5.607  10.168 -0.4471  1.0811 -1.4434
   19SAPC    HY 2446   4.526   5.690  10.311  1.2142 -1.1285 -0.2736
   19SAPC   O31 2447   4.442   5.817  10.169  0.4235 -0.7408 -0.4382
   19SAPC   C31 2448   4.458   5.932  10.226 -0.3750 -0.0601 -0.2154
   19SAPC   O32 2449   4.484   5.954  10.347  0.0900 -0.0018 -0.1288
   19SAPC   C32 2450   4.466   6.041  10.123  0.1591  0.4351  0.3243
   19SAPC   H2X 2451   4.496   6.128  10.185  1.4982  1.0059 -1.0764
   19SAPC   H2Y 2452   4.365   6.061  10.082  0.5188 -0.0884 -0.8497
   19SAPC   C23 2453   3.973   5.847  10.044 -0.5483 -0.3360 -0.6684
   19SAPC   H3R 2454   4.042   5.927  10.012 -1.5092 -0.5209 -3.4083
   19SAPC   H3S 2455   3.917   5.869  10.137 -0.9588  1.6377 -1.3693
   19SAPC   C24 2456   3.865   5.826   9.932 -0.0715 -0.1363 -0.1769
   19SAPC   H4R 2457   3.789   5.907   9.944 -0.5049  0.1205 -3.9516
   19SAPC   H4S 2458   3.821   5.729   9.965 -0.5517  0.3205  0.5504
   19SAPC   C25 2459   3.917   5.811   9.792 -0.7774  0.0512  0.0654
   19SAPC   H5R 2460   4.026   5.806   9.789 -0.7740 -0.4211  0.8370
   19SAPC   C26 2461   3.846   5.811   9.680 -0.6953 -0.0754  0.5401
   19SAPC   H6R 2462   3.898   5.792   9.585  0.4102  1.4951  0.8099
   19SAPC   C27 2463   3.692   5.809   9.677 -0.8240  0.4268 -0.4180
   19SAPC   H7R 2464   3.664   5.884   9.600  0.2653  1.0306 -0.2405
   19SAPC   H7S 2465   3.656   5.848   9.774  1.0858  1.1397  0.0344
   19SAPC   C28 2466   3.637   5.671   9.659 -1.0652 -0.0763  0.8602
   19SAPC   H8R 2467   3.632   5.602   9.745  1.1189 -0.3690  0.7802
   19SAPC   C29 2468   3.630   5.622   9.530 -0.1296 -0.6066  0.1766
   19SAPC   H9R 2469   3.604   5.515   9.536 -2.5455 -0.0474  0.4939
   19SAPC  C210 2470   3.666   5.689   9.397 -0.0134  0.3607 -0.4845
   19SAPC  H10R 2471   3.752   5.756   9.417  0.4174  0.1690 -1.6675
   19SAPC  H10S 2472   3.585   5.761   9.373  0.0795  0.9028  0.7657
   19SAPC  C211 2473   3.696   5.589   9.291  0.3519 -0.7548  1.1139
   19SAPC  H11R 2474   3.706   5.483   9.318 -0.4424 -1.2570 -0.4855
   19SAPC  C212 2475   3.721   5.628   9.163  0.2323  0.1109  0.3344
   19SAPC  H12R 2476   3.740   5.549   9.088 -0.9775  0.0282  0.1037
   19SAPC  C213 2477   3.718   5.765   9.097 -0.3343 -0.0516  0.4262
   19SAPC  H13R 2478   3.718   5.846   9.172 -2.0618 -0.1565  0.5581
   19SAPC  H13S 2479   3.619   5.770   9.045 -0.9261  0.6066  1.6077
   19SAPC  C214 2480   3.824   5.791   8.991  0.5159  0.4057  0.6976
   19SAPC  H14R 2481   3.907   5.858   9.017  0.4302  1.3170 -1.3084
   19SAPC  C215 2482   3.822   5.737   8.872  0.5086  0.4612  0.4889
   19SAPC  H15R 2483   3.891   5.784   8.800 -0.7056  2.8624  0.8229
   19SAPC  C216 2484   3.705   5.653   8.814  0.0511  1.0762 -0.6269
   19SAPC  H16R 2485   3.616   5.643   8.881  0.4354 -1.1177 -0.4201
   19SAPC  H16S 2486   3.740   5.551   8.789  1.2302  1.8708 -2.2637
   19SAPC  C217 2487   3.655   5.705   8.674  0.1914 -0.1240 -0.0384
   19SAPC  H17R 2488   3.742   5.699   8.605  2.4815  0.4076  2.7614
   19SAPC  H17S 2489   3.623   5.811   8.675  1.6152  0.3082  2.5859
   19SAPC  C218 2490   3.555   5.609   8.601  0.4033 -0.3414 -0.5012
   19SAPC  H18R 2491   3.529   5.649   8.500  0.6688  0.6213 -0.2015
   19SAPC  H18S 2492   3.456   5.617   8.651  1.5362 -1.1573  1.9171
   19SAPC  C219 2493   3.588   5.459   8.587  0.0730 -0.1224 -0.1341
   19SAPC  H19R 2494   3.590   5.397   8.679  0.1420 -2.6902 -1.8220
   19SAPC  H19S 2495   3.687   5.446   8.537 -0.2996  0.4024 -1.0176
   19SAPC  C220 2496   3.491   5.399   8.484  0.0181 -0.0474  0.2015
   19SAPC  H20R 2497   3.382   5.403   8.507 -0.3554  2.6341 -1.8492
   19SAPC  H20S 2498   3.500   5.288   8.477  1.4766  0.0412  0.5395
   19SAPC  H20T 2499   3.511   5.443   8.384 -0.9631  0.9696  0.4423
   19SAPC   C33 2500   4.561   6.014   9.999  0.3532  0.2804  0.0521
   19SAPC   H3X 2501   4.550   5.910   9.962 -1.0928  1.4692 -2.9863
   19SAPC   H3Y 2502   4.667   6.021  10.032 -0.1007  0.5353  1.5168
   19SAPC   C34 2503   4.532   6.104   9.875 -0.2108 -0.2533 -0.5528
   19SAPC   H4X 2504   4.575   6.200   9.912 -1.1167 -0.8341  2.0852
   19SAPC   H4Y 2505   4.425   6.135   9.874 -0.3139 -0.6181 -0.8060
   19SAPC   C35 2506   4.587   6.042   9.752 -0.0333 -0.5249  0.1417
   19SAPC   H5X 2507   4.573   5.932   9.744 -0.6016 -0.2707 -3.1922
   19SAPC   H5Y 2508   4.697   6.036   9.755 -0.1876 -3.2442  1.8548
   19SAPC   C36 2509   4.528   6.116   9.634 -0.0612 -0.4876  0.6834
   19SAPC   H6X 2510   4.536   6.226   9.638  0.8038 -0.5115 -0.0355
   19SAPC   H6Y 2511   4.421   6.085   9.634  0.3829 -2.1324 -0.0688
   19SAPC   C37 2512   4.590   6.066   9.505  0.1113 -0.5365  0.3138
   19SAPC   H7X 2513   4.583   5.956   9.492 -0.7752 -0.3830 -0.5332
   19SAPC   H7Y 2514   4.700   6.086   9.502  0.2072 -1.0329  0.4094
   19SAPC   C38 2515   4.542   6.133   9.372 -0.3415 -0.1028  0.1930
   19SAPC   H8X 2516   4.579   6.236   9.389  3.3758 -1.3797  0.4558
   19SAPC   H8Y 2517   4.432   6.122   9.373 -0.3192 -0.3130  1.3233
   19SAPC   C39 2518   4.587   6.064   9.246  0.0894 -0.1893 -1.0588
   19SAPC   H9X 2519   4.521   5.979   9.218  0.3583  0.2140 -3.0193
   19SAPC   H9Y 2520   4.689   6.023   9.266 -0.2211 -0.8370 -0.7864
   19SAPC  C310 2521   4.597   6.140   9.115 -0.7077 -0.0163  0.1135
   19SAPC  H10X 2522   4.643   6.083   9.031 -3.0043 -0.6467 -0.7668
   19SAPC  H10Y 2523   4.653   6.236   9.116  0.0717 -0.4276 -1.4343
   19SAPC  C311 2524   4.454   6.178   9.061  0.9361  0.3756  0.2187
   19SAPC  H11X 2525   4.403   6.244   9.134 -2.0421 -2.1511  0.5444
   19SAPC  H11Y 2526   4.380   6.095   9.069  1.1067  0.0491 -1.4442
   19SAPC  C312 2527   4.452   6.242   8.921 -0.1050 -0.0980 -0.2227
   19SAPC  H12X 2528   4.472   6.166   8.842  0.1205  0.9365 -1.1695
   19SAPC  H12Y 2529   4.523   6.327   8.914 -0.1415  0.0201  0.8337
   19SAPC  C313 2530   4.313   6.302   8.877  0.5313 -0.2299 -0.0266
   19SAPC  H13X 2531   4.321   6.360   8.782  1.0432 -0.2252  0.0171
   19SAPC  H13Y 2532   4.281   6.368   8.960 -0.0003 -0.1290 -0.3132
   19SAPC  C314 2533   4.198   6.197   8.867 -0.0826 -0.4112  0.2132
   19SAPC  H14X 2534   4.176   6.154   8.967 -0.7252 -0.2220  0.1549
   19SAPC  H14Y 2535   4.240   6.116   8.803 -2.9700 -0.7534 -1.3311
   19SAPC  C315 2536   4.064   6.251   8.816 -0.5044 -0.3298 -0.3415
   19SAPC  H15X 2537   4.072   6.301   8.718  3.3661  0.8732  0.4911
   19SAPC  H15Y 2538   4.014   6.318   8.889 -0.0054 -2.0174  1.6092
   19SAPC  C316 2539   3.977   6.120   8.814  0.0896  0.2897 -0.4153
   19SAPC  H16X 2540   3.962   6.080   8.916  3.8784  0.6575  0.3541
   19SAPC  H16Y 2541   4.023   6.039   8.754  1.3036 -0.9514  2.1130
   19SAPC  C317 2542   3.841   6.148   8.755  0.5890  0.6433  0.0785
   19SAPC  H17X 2543   3.793   6.056   8.716 -0.7977  0.7172  1.5931
   19SAPC  H17Y 2544   3.856   6.223   8.674 -1.2109  3.6731  2.4452
   19SAPC  C318 2545   3.745   6.202   8.864 -0.0166  0.8612 -0.2765
   19SAPC  H18X 2546   3.636   6.196   8.842  0.1216  0.5487 -0.8945
   19SAPC  H18Y 2547   3.772   6.307   8.889 -0.5653  0.7794  0.6994
   19SAPC  H18Z 2548   3.755   6.143   8.958 -0.2977  0.7306 -0.3276
   20SAPC     N 2549   3.855   2.460  11.072  0.4043  0.2118 -0.2091
   20SAPC   C12 2550   3.868   2.560  10.961 -0.1635  0.5820  1.3830
   20SAPC  H12A 2551   3.973   2.576  10.941 -0.4529  2.5581  1.3509
   20SAPC  H12B 2552   3.837   2.656  10.998  1.0074  1.9586 -1.0838
   20SAPC   C13 2553   3.979   2.473  11.158 -0.2301  0.0742  0.1406
   20SAPC  H13A 2554   3.969   2.407  11.243 -0.4602  1.9600  1.6131
   20SAPC  H13B 2555   4.059   2.429  11.100 -0.5226  2.0139 -1.8315
   20SAPC  H13C 2556   4.019   2.571  11.178 -0.0540 -0.2423  1.3441
   20SAPC   C14 2557   3.727   2.484  11.153 -0.1206 -0.0691  0.2232
   20SAPC  H14A 2558   3.744   2.558  11.230  0.2717 -0.4467  0.5060
   20SAPC  H14B 2559   3.637   2.499  11.097 -0.5547  1.2418  1.2401
   20SAPC  H14C 2560   3.700   2.394  11.206  1.1336  0.5969  2.0661
   20SAPC   C15 2561   3.855   2.325  11.003  0.8033  0.1467  0.0012
   20SAPC  H15A 2562   3.843   2.244  11.074  0.0559 -1.3955 -1.8318
   20SAPC  H15B 2563   3.777   2.330  10.929 -0.1358  1.7500  1.0663
   20SAPC  H15C 2564   3.943   2.292  10.950  1.1840 -0.8806  1.2223
   20SAPC   C11 2565   3.795   2.534  10.824  0.1790  0.2538  0.1124
   20SAPC  H11A 2566   3.827   2.439  10.775 -1.3982  0.5188 -1.4871
   20SAPC  H11B 2567   3.826   2.618  10.758 -0.9339 -1.2494 -2.4136
   20SAPC     P 2568   3.558   2.652  10.818 -0.2281  0.3240  0.2271
   20SAPC   O13 2569   3.482   2.689  10.936 -0.2718  0.1587  0.0109
   20SAPC   O14 2570   3.635   2.760  10.755  0.0025  0.3509  0.0711
   20SAPC   O12 2571   3.649   2.532  10.847 -0.4122  0.0110 -0.1834
   20SAPC   O11 2572   3.458   2.595  10.707 -0.3385  0.5426 -0.6474
   20SAPC    C1 2573   3.513   2.537  10.587  0.5860  0.1267 -0.1104
   20SAPC    HA 2574   3.617   2.500  10.602  1.1791  1.7977 -0.0956
   20SAPC    HB 2575   3.469   2.436  10.569  0.3272  0.6571 -2.6045
   20SAPC    C2 2576   3.505   2.626  10.458 -0.1263 -0.5719  0.2075
   20SAPC    HS 2577   3.582   2.706  10.463  2.3773 -2.9691  1.0275
   20SAPC   O21 2578   3.369   2.684  10.453 -0.3574 -0.3565 -0.2369
   20SAPC   C21 2579   3.352   2.802  10.390 -0.3418  0.3568 -0.0634
   20SAPC   O22 2580   3.442   2.858  10.329 -0.0936 -0.9225 -0.2951
   20SAPC   C22 2581   3.216   2.866  10.413  0.1669  0.0966 -0.2492
   20SAPC   H2R 2582   3.147   2.780  10.430  0.1093 -0.0271 -1.0561
   20SAPC   H2S 2583   3.217   2.921  10.509  0.9170  3.0943 -1.9314
   20SAPC    C3 2584   3.524   2.541  10.335 -0.8603  0.7653 -0.6891
   20SAPC    HX 2585   3.439   2.470  10.340 -0.6264  0.5599  0.4098
   20SAPC    HY 2586   3.612   2.473  10.335 -0.0054  1.7944  2.0550
   20SAPC   O31 2587   3.510   2.609  10.207  0.7407 -0.8202 -0.1263
   20SAPC   C31 2588   3.625   2.661  10.165  0.8308  0.2255 -0.2314
   20SAPC   O32 2589   3.733   2.652  10.220 -0.5908 -0.4508  0.3271
   20SAPC   C32 2590   3.598   2.732  10.032  0.1266  0.1277  0.2319
   20SAPC   H2X 2591   3.660   2.825  10.030 -1.1955  1.0590  1.6063
   20SAPC   H2Y 2592   3.491   2.763  10.028 -0.1171 -0.7925 -0.4070
   20SAPC   C23 2593   3.162   2.954  10.300 -0.1584  0.0317 -0.3348
   20SAPC   H3R 2594   3.061   2.986  10.335 -0.7021 -0.6375 -1.2665
   20SAPC   H3S 2595   3.137   2.891  10.212  0.1421  2.5198 -2.2299
   20SAPC   C24 2596   3.236   3.077  10.253 -0.1943  0.4263 -0.1464
   20SAPC   H4R 2597   3.305   3.021  10.187  1.5843  1.9833  0.3380
   20SAPC   H4S 2598   3.299   3.132  10.326  0.6275 -1.2704  0.4506
   20SAPC   C25 2599   3.150   3.170  10.177  0.1571  0.0801 -0.4186
   20SAPC   H5R 2600   3.064   3.214  10.230  0.1070  0.7423 -1.0368
   20SAPC   C26 2601   3.161   3.196  10.045 -0.1781  0.2377  0.1580
   20SAPC   H6R 2602   3.100   3.272   9.996 -0.7695  0.9739  1.9786
   20SAPC   C27 2603   3.252   3.136   9.942  0.2995 -0.8491 -0.3928
   20SAPC   H7R 2604   3.351   3.122   9.991  1.3568 -0.9215 -2.4844
   20SAPC   H7S 2605   3.267   3.206   9.857 -2.0869  1.8080  1.2659
   20SAPC   C28 2606   3.185   3.006   9.895 -0.5940  0.0170 -0.2189
   20SAPC   H8R 2607   3.147   2.934   9.969 -0.3753  0.6785  0.5441
   20SAPC   C29 2608   3.175   2.969   9.767 -0.5443  0.1348 -0.6225
   20SAPC   H9R 2609   3.128   2.872   9.747  0.6823 -0.2417 -1.7482
   20SAPC  C210 2610   3.224   3.039   9.637  0.0168  0.2492 -0.1440
   20SAPC  H10R 2611   3.208   3.148   9.648 -0.5629  0.2448 -0.9512
   20SAPC  H10S 2612   3.166   3.011   9.547  2.1459  1.9901 -2.0929
   20SAPC  C211 2613   3.367   2.996   9.614  0.0503  0.2010 -0.4696
   20SAPC  H11R 2614   3.425   2.985   9.707 -2.9418  1.7334  1.6750
   20SAPC  C212 2615   3.429   3.009   9.491 -1.3279 -0.1122 -0.0135
   20SAPC  H12R 2616   3.536   2.983   9.493 -1.4312 -0.4836  0.4129
   20SAPC  C213 2617   3.371   3.045   9.358 -0.3380  0.7495  0.4906
   20SAPC  H13R 2618   3.393   3.151   9.335  1.3624  0.4217  0.5765
   20SAPC  H13S 2619   3.260   3.033   9.361 -0.1772 -0.9503  0.2320
   20SAPC  C214 2620   3.423   2.958   9.242 -0.1681  0.9414 -0.1065
   20SAPC  H14R 2621   3.485   2.871   9.268  1.5968  2.5720  1.2953
   20SAPC  C215 2622   3.412   2.996   9.112  0.2565  0.0891  0.0283
   20SAPC  H15R 2623   3.449   2.932   9.031  0.0737  1.6551 -1.3219
   20SAPC  C216 2624   3.347   3.127   9.061 -0.5119  0.2098 -0.6317
   20SAPC  H16R 2625   3.428   3.174   9.001  0.4559 -2.2462 -1.3531
   20SAPC  H16S 2626   3.305   3.193   9.140  2.5821  0.1650  1.1131
   20SAPC  C217 2627   3.235   3.085   8.955  0.6224 -0.2018 -0.2247
   20SAPC  H17R 2628   3.270   2.996   8.899  0.8198 -1.5920  2.0385
   20SAPC  H17S 2629   3.200   3.178   8.905 -0.1553  0.0112  0.7103
   20SAPC  C218 2630   3.108   3.025   9.020  0.3928 -0.1691 -0.2436
   20SAPC  H18R 2631   3.070   3.091   9.101  0.4046  0.3639 -0.6679
   20SAPC  H18S 2632   3.142   2.936   9.077 -0.2717  0.3769  1.0109
   20SAPC  C219 2633   3.010   2.980   8.919 -0.3695  0.1627 -0.6155
   20SAPC  H19R 2634   2.930   2.918   8.965 -0.7995  1.9417  1.0983
   20SAPC  H19S 2635   3.058   2.933   8.831 -2.7597 -1.4528 -1.1156
   20SAPC  C220 2636   2.946   3.095   8.844  0.2478  0.2197  0.0838
   20SAPC  H20R 2637   2.898   3.167   8.914  0.7323  1.1709 -0.5568
   20SAPC  H20S 2638   2.868   3.053   8.777 -0.0539 -1.1396  1.2621
   20SAPC  H20T 2639   3.026   3.144   8.784  0.2611 -0.9206 -0.8440
   20SAPC   C33 2640   3.640   2.627   9.923 -0.3928 -0.2826 -0.2690
   20SAPC   H3X 2641   3.587   2.530   9.927 -0.2103 -0.3250  1.4417
   20SAPC   H3Y 2642   3.746   2.598   9.938 -0.1353 -0.0459 -1.5557
   20SAPC   C34 2643   3.622   2.690   9.778  0.4084 -0.4223 -0.1640
   20SAPC   H4X 2644   3.677   2.787   9.784  3.2439 -1.7923 -2.8169
   20SAPC   H4Y 2645   3.516   2.720   9.766 -0.7905 -4.3011  0.1728
   20SAPC   C35 2646   3.657   2.600   9.662 -0.7634  0.6031 -0.5366
   20SAPC   H5X 2647   3.609   2.504   9.690 -2.0430  1.2013 -0.6432
   20SAPC   H5Y 2648   3.767   2.582   9.654 -0.3953  3.2368 -2.4266
   20SAPC   C36 2649   3.607   2.648   9.518 -0.1186  0.2953  0.5363
   20SAPC   H6X 2650   3.634   2.754   9.501  0.0099  0.0354 -0.9666
   20SAPC   H6Y 2651   3.497   2.641   9.531 -0.1958 -0.5162 -0.4836
   20SAPC   C37 2652   3.664   2.565   9.404 -0.3118 -0.4018  0.7902
   20SAPC   H7X 2653   3.633   2.458   9.404 -1.2182 -0.1760 -1.6786
   20SAPC   H7Y 2654   3.773   2.569   9.424  0.1473  0.8011 -1.7819
   20SAPC   C38 2655   3.634   2.614   9.260 -0.2487 -0.5788 -0.8263
   20SAPC   H8X 2656   3.655   2.723   9.254  0.9403 -0.8048 -0.8726
   20SAPC   H8Y 2657   3.526   2.594   9.242 -0.2457 -1.4112  0.0247
   20SAPC   C39 2658   3.718   2.552   9.148 -0.1951 -0.0869 -0.0500
   20SAPC   H9X 2659   3.695   2.444   9.137  3.8880 -1.1342  0.9490
   20SAPC   H9Y 2660   3.823   2.540   9.182  1.2766  4.1940 -2.5811
   20SAPC  C310 2661   3.710   2.625   9.016 -1.0969 -0.3701  0.1055
   20SAPC  H10X 2662   3.605   2.643   8.986 -0.5267  0.7374 -1.2617
   20SAPC  H10Y 2663   3.771   2.570   8.942  0.6917  1.4747  0.1756
   20SAPC  C311 2664   3.775   2.766   9.027  0.5174  1.1790  0.3779
   20SAPC  H11X 2665   3.871   2.748   9.081 -0.2905 -2.6390  0.6636
   20SAPC  H11Y 2666   3.708   2.830   9.088 -1.1883  0.3791 -0.6260
   20SAPC  C312 2667   3.800   2.839   8.888 -0.1581 -0.6147  0.9319
   20SAPC  H12X 2668   3.861   2.773   8.822 -1.3782 -2.0766  1.2326
   20SAPC  H12Y 2669   3.864   2.925   8.918  1.8775 -1.4319 -0.8418
   20SAPC  C313 2670   3.676   2.899   8.831  0.0099  1.0258 -0.0812
   20SAPC  H13X 2671   3.643   2.977   8.904  1.2121  1.3279  0.1474
   20SAPC  H13Y 2672   3.599   2.819   8.830 -0.3489  1.3707 -0.8374
   20SAPC  C314 2673   3.679   2.964   8.694  0.1208 -0.3823 -0.4307
   20SAPC  H14X 2674   3.714   2.886   8.623  0.8910  1.9376 -2.7012
   20SAPC  H14Y 2675   3.761   3.039   8.703 -0.5805  0.0841  2.7843
   20SAPC  C315 2676   3.546   3.030   8.667  0.1080  0.0265 -0.7803
   20SAPC  H15X 2677   3.524   3.113   8.737 -1.3158 -0.1063 -1.0516
   20SAPC  H15Y 2678   3.466   2.955   8.681  1.2878 -0.9463  0.8682
   20SAPC  C316 2679   3.543   3.081   8.520  0.0792  0.3660 -0.3121
   20SAPC  H16X 2680   3.556   2.992   8.455  0.4283 -0.3668  0.7528
   20SAPC  H16Y 2681   3.624   3.155   8.505 -0.6772  0.9014 -1.8965
   20SAPC  C317 2682   3.414   3.145   8.473  0.0521 -0.1738 -0.4438
   20SAPC  H17X 2683   3.341   3.061   8.473  0.9915 -1.0188 -2.2654
   20SAPC  H17Y 2684   3.431   3.179   8.369  1.6658  2.3476  0.5889
   20SAPC  C318 2685   3.367   3.254   8.571  0.1139 -0.5844  0.5616
   20SAPC  H18X 2686   3.323   3.218   8.667  0.8688 -2.1577  0.3424
   20SAPC  H18Y 2687   3.294   3.321   8.523  0.4072 -1.6949 -1.4932
   20SAPC  H18Z 2688   3.459   3.304   8.609 -0.8101  0.3869  1.5424
   21SAPC     N 2689   2.812   1.452  10.749 -0.0903 -0.2788 -0.2128
   21SAPC   C12 2690   2.911   1.499  10.644 -0.4149  0.3707  0.2127
   21SAPC  H12A 2691   2.888   1.452  10.549  0.8718  0.5789 -0.2234
   21SAPC  H12B 2692   3.007   1.458  10.673  0.0483  0.8183 -0.6610
   21SAPC   C13 2693   2.786   1.304  10.728  0.5560  0.3158  0.4569
   21SAPC  H13A 2694   2.769   1.288  10.622  3.1125  0.4691 -0.0171
   21SAPC  H13B 2695   2.884   1.262  10.745  0.6239 -0.4006 -1.4998
   21SAPC  H13C 2696   2.710   1.261  10.792 -0.6601 -0.5618 -1.5147
   21SAPC   C14 2697   2.863   1.457  10.887  0.5943 -0.1162  0.2039
   21SAPC  H14A 2698   2.943   1.386  10.901  1.2311  0.6003  0.2686
   21SAPC  H14B 2699   2.904   1.554  10.911  0.0309 -0.2983  1.9909
   21SAPC  H14C 2700   2.790   1.428  10.961  0.7097  2.3810  1.3640
   21SAPC   C15 2701   2.681   1.521  10.734  0.3401 -0.0000  0.1194
   21SAPC  H15A 2702   2.611   1.513  10.817 -0.6891  1.4752 -0.5819
   21SAPC  H15B 2703   2.690   1.626  10.710 -1.8404  0.0406 -0.6617
   21SAPC  H15C 2704   2.634   1.471  10.651  0.0959  0.9260 -0.3043
   21SAPC   C11 2705   2.938   1.643  10.628  0.5755 -0.5737 -0.2731
   21SAPC  H11A 2706   2.843   1.700  10.631  1.0668  0.2161  0.3182
   21SAPC  H11B 2707   2.998   1.673  10.539 -0.0168  2.9089  0.4542
   21SAPC     P 2708   3.172   1.667  10.765 -0.1035 -0.1339  0.0778
   21SAPC   O13 2709   3.201   1.739  10.890  0.0333 -0.2968 -0.3939
   21SAPC   O14 2710   3.217   1.527  10.750 -0.0635  0.1433  0.0693
   21SAPC   O12 2711   3.018   1.675  10.743 -0.7072  0.2805 -0.2680
   21SAPC   O11 2712   3.227   1.750  10.643 -0.3783 -0.4375  0.0030
   21SAPC    C1 2713   3.189   1.882  10.614  0.1985 -0.1962 -0.1583
   21SAPC    HA 2714   3.081   1.889  10.593  0.3187  0.7616 -0.4819
   21SAPC    HB 2715   3.214   1.945  10.702 -0.4927  3.1062 -2.2262
   21SAPC    C2 2716   3.267   1.939  10.497  0.1360  0.6869 -0.0227
   21SAPC    HS 2717   3.214   2.019  10.442 -0.6398 -1.2360 -2.1526
   21SAPC   O21 2718   3.293   1.829  10.402 -0.0077  0.6916  0.1048
   21SAPC   C21 2719   3.191   1.799  10.329  0.1025 -0.0533 -0.2211
   21SAPC   O22 2720   3.100   1.877  10.290  0.1924  0.7182  0.6008
   21SAPC   C22 2721   3.208   1.658  10.262 -0.3819 -0.6703  0.0041
   21SAPC   H2R 2722   3.227   1.588  10.346  2.2585  0.9896  0.8448
   21SAPC   H2S 2723   3.115   1.627  10.209 -1.3401  1.0559  0.6249
   21SAPC    C3 2724   3.402   1.987  10.550 -0.0804 -0.3444  0.0245
   21SAPC    HX 2725   3.444   1.915  10.623  1.7932  0.7174  0.0385
   21SAPC    HY 2726   3.386   2.081  10.609  1.0770 -1.1318  1.6303
   21SAPC   O31 2727   3.494   2.011  10.438 -0.9726  0.4031  0.0239
   21SAPC   C31 2728   3.466   2.109  10.355  0.3106  0.0784  0.2079
   21SAPC   O32 2729   3.382   2.192  10.371  0.2096  0.0369 -0.7210
   21SAPC   C32 2730   3.557   2.102  10.227 -0.0023  0.0483  0.4209
   21SAPC   H2X 2731   3.554   1.995  10.195 -0.6703  0.3410 -0.5053
   21SAPC   H2Y 2732   3.662   2.127  10.250  0.9424 -1.3389 -2.1527
   21SAPC   C23 2733   3.319   1.634  10.161 -0.1766  0.0555 -0.2655
   21SAPC   H3R 2734   3.320   1.524  10.150 -1.5854 -0.1028  1.0846
   21SAPC   H3S 2735   3.423   1.655  10.193 -0.5144  2.8119 -0.8429
   21SAPC   C24 2736   3.285   1.698  10.022  0.7462  0.0830  0.3261
   21SAPC   H4R 2737   3.180   1.667  10.010  1.1573 -2.1223  2.1475
   21SAPC   H4S 2738   3.341   1.646   9.941 -1.9071  0.8485 -2.1041
   21SAPC   C25 2739   3.308   1.845  10.002 -0.3772  0.3222  0.5055
   21SAPC   H5R 2740   3.339   1.895  10.095  2.4000 -1.7569  0.7711
   21SAPC   C26 2741   3.265   1.921   9.899 -0.2013  0.4906 -0.0560
   21SAPC   H6R 2742   3.298   2.026   9.894 -1.5677  1.0251  1.6393
   21SAPC   C27 2743   3.187   1.872   9.783 -0.3274  0.0021  0.0712
   21SAPC   H7R 2744   3.087   1.917   9.802  0.2893  1.5626 -0.2720
   21SAPC   H7S 2745   3.173   1.762   9.781  0.7538 -0.1340 -0.3833
   21SAPC   C28 2746   3.229   1.909   9.642 -0.4664 -0.2344  0.4492
   21SAPC   H8R 2747   3.191   2.010   9.619 -0.2608  0.0280  1.2326
   21SAPC   C29 2748   3.303   1.839   9.551  0.6076 -0.0417 -0.4184
   21SAPC   H9R 2749   3.354   1.896   9.471 -3.7509  1.6072 -2.1746
   21SAPC  C210 2750   3.353   1.703   9.582  0.0869 -0.1563 -0.1893
   21SAPC  H10R 2751   3.371   1.694   9.691 -0.1668  0.0186 -0.1339
   21SAPC  H10S 2752   3.451   1.695   9.530 -0.8231 -0.3831 -1.9212
   21SAPC  C211 2753   3.251   1.607   9.516 -0.3210  0.7896 -0.1591
   21SAPC  H11R 2754   3.161   1.591   9.577 -1.1656 -1.3027 -1.9078
   21SAPC  C212 2755   3.270   1.543   9.397  0.1351 -0.4118 -0.2310
   21SAPC  H12R 2756   3.196   1.468   9.366  0.5407  0.0587 -2.4309
   21SAPC  C213 2757   3.384   1.558   9.305 -0.0364  0.1970 -0.2135
   21SAPC  H13R 2758   3.462   1.480   9.320  0.5502  1.0678  1.4568
   21SAPC  H13S 2759   3.440   1.652   9.325  2.1775 -0.7080 -2.0120
   21SAPC  C214 2760   3.329   1.558   9.162 -0.2364  0.1280 -0.8431
   21SAPC  H14R 2761   3.286   1.461   9.130 -0.0162  0.2107 -1.3934
   21SAPC  C215 2762   3.314   1.663   9.087 -0.0810  0.8991 -0.2789
   21SAPC  H15R 2763   3.277   1.648   8.984 -1.8922 -1.1742  0.6158
   21SAPC  C216 2764   3.352   1.807   9.129 -0.1183 -0.3657 -0.2422
   21SAPC  H16R 2765   3.419   1.857   9.056 -1.3022  1.4180 -0.1332
   21SAPC  H16S 2766   3.391   1.810   9.233 -0.8923  0.0669  0.0329
   21SAPC  C217 2767   3.235   1.908   9.145 -0.0978 -0.0202  0.1714
   21SAPC  H17R 2768   3.277   2.009   9.160 -1.2005  0.5433 -0.4700
   21SAPC  H17S 2769   3.181   1.870   9.235 -1.3551  1.2743 -0.0307
   21SAPC  C218 2770   3.156   1.929   9.016  0.2286  0.1907 -0.9998
   21SAPC  H18R 2771   3.085   1.844   9.003 -0.8536  1.0447 -0.8305
   21SAPC  H18S 2772   3.212   1.926   8.920  1.0295 -1.6934 -0.4783
   21SAPC  C219 2773   3.071   2.065   9.017 -0.0719 -0.4325 -0.1150
   21SAPC  H19R 2774   3.155   2.136   9.037  0.0788 -0.2955 -1.2072
   21SAPC  H19S 2775   3.009   2.069   9.109  0.7631 -0.3320  0.4510
   21SAPC  C220 2776   2.994   2.099   8.892 -0.6979 -0.1712 -0.3300
   21SAPC  H20R 2777   2.904   2.036   8.875  0.1137 -1.3494 -0.3486
   21SAPC  H20S 2778   3.060   2.076   8.805  0.1373  0.2517  0.1881
   21SAPC  H20T 2779   2.960   2.204   8.894  1.3506  0.4789  1.3674
   21SAPC   C33 2780   3.498   2.180  10.103 -0.4050 -0.4552  0.3390
   21SAPC   H3X 2781   3.501   2.288  10.125 -0.5647  0.2913 -3.0173
   21SAPC   H3Y 2782   3.390   2.164  10.088 -0.3756  1.1407 -1.8179
   21SAPC   C34 2783   3.568   2.130   9.974  0.1256 -0.8281 -0.0822
   21SAPC   H4X 2784   3.549   2.021   9.963 -1.2806 -0.5340 -0.7275
   21SAPC   H4Y 2785   3.676   2.153   9.970  0.2452 -1.6874 -2.3174
   21SAPC   C35 2786   3.514   2.205   9.853 -0.0324 -0.1628 -0.6226
   21SAPC   H5X 2787   3.539   2.313   9.866  1.2231 -0.6222  1.0437
   21SAPC   H5Y 2788   3.405   2.189   9.840  0.0189 -0.1189 -1.0961
   21SAPC   C36 2789   3.568   2.151   9.715 -0.1925  0.2238  0.0421
   21SAPC   H6X 2790   3.549   2.043   9.733 -1.0471  0.3122 -0.3406
   21SAPC   H6Y 2791   3.674   2.186   9.712  0.1292 -0.7935 -0.4816
   21SAPC   C37 2792   3.482   2.198   9.599  0.2650 -0.1319  0.2548
   21SAPC   H7X 2793   3.497   2.307   9.579  0.4393 -0.3817 -1.0578
   21SAPC   H7Y 2794   3.376   2.169   9.613 -0.0348  0.7551 -0.0943
   21SAPC   C38 2795   3.541   2.139   9.464 -0.0330 -0.0143  0.5929
   21SAPC   H8X 2796   3.529   2.028   9.466  0.8696 -0.1374 -0.3133
   21SAPC   H8Y 2797   3.651   2.157   9.459 -0.0969  0.5042  1.0837
   21SAPC   C39 2798   3.460   2.190   9.338 -0.1735 -0.4576 -0.1395
   21SAPC   H9X 2799   3.456   2.301   9.338  0.2582 -0.4393  0.3362
   21SAPC   H9Y 2800   3.360   2.147   9.357 -0.8894  1.5206  0.6644
   21SAPC  C310 2801   3.520   2.142   9.203  0.0765 -0.1416  0.0311
   21SAPC  H10X 2802   3.498   2.035   9.183 -1.2326 -0.1763  1.5677
   21SAPC  H10Y 2803   3.631   2.152   9.209  0.1706 -1.4302  0.5329
   21SAPC  C311 2804   3.483   2.224   9.077 -0.3592 -0.0362 -0.2083
   21SAPC  H11X 2805   3.518   2.328   9.096  1.4870 -0.5897 -0.4388
   21SAPC  H11Y 2806   3.379   2.233   9.040 -0.6794 -3.5012 -0.2683
   21SAPC  C312 2807   3.571   2.171   8.951 -0.6433  0.2679 -0.8118
   21SAPC  H12X 2808   3.525   2.080   8.907 -1.0416 -0.0671  0.3034
   21SAPC  H12Y 2809   3.676   2.156   8.985 -1.5002 -0.3730  1.6545
   21SAPC  C313 2810   3.577   2.294   8.851  0.1963  0.2888 -0.0375
   21SAPC  H13X 2811   3.619   2.380   8.907 -2.1460  1.9941 -0.8017
   21SAPC  H13Y 2812   3.470   2.322   8.841 -0.3202 -1.4557  0.5943
   21SAPC  C314 2813   3.624   2.269   8.711 -0.5674 -0.3226  0.1441
   21SAPC  H14X 2814   3.571   2.180   8.670 -0.3253  0.1272 -1.1762
   21SAPC  H14Y 2815   3.731   2.240   8.723  0.3165  2.1093 -1.4306
   21SAPC  C315 2816   3.614   2.389   8.607 -0.2251  0.0882 -0.7268
   21SAPC  H15X 2817   3.659   2.482   8.647  0.7218 -0.2522 -0.9822
   21SAPC  H15Y 2818   3.505   2.410   8.600 -0.5103 -1.9225 -3.2443
   21SAPC  C316 2819   3.662   2.357   8.473  0.4597 -0.1406 -0.0554
   21SAPC  H16X 2820   3.632   2.432   8.397  0.6362  1.6497  1.6177
   21SAPC  H16Y 2821   3.612   2.263   8.440  1.2662 -0.9945  1.1188
   21SAPC  C317 2822   3.819   2.333   8.460 -0.2872 -0.0431  0.6968
   21SAPC  H17X 2823   3.840   2.318   8.352  0.7213  0.5540  0.8066
   21SAPC  H17Y 2824   3.840   2.245   8.525  1.2358 -0.0498  0.2071
   21SAPC  C318 2825   3.896   2.449   8.510 -0.3264  0.1833 -0.4966
   21SAPC  H18X 2826   3.875   2.464   8.618  0.2052 -0.5266 -0.2909
   21SAPC  H18Y 2827   3.875   2.548   8.464  0.8105  1.5658  1.8759
   21SAPC  H18Z 2828   4.004   2.428   8.496 -0.7771 -2.2130 -0.5425
   22SAPC     N 2829   3.176   5.797  10.727 -0.0394 -0.3272 -0.5827
   22SAPC   C12 2830   3.214   5.927  10.662  0.0403 -0.1913 -0.4649
   22SAPC  H12A 2831   3.120   5.967  10.628  0.3895  2.7178  1.7566
   22SAPC  H12B 2832   3.273   5.895  10.578  3.8282 -1.6257  2.5588
   22SAPC   C13 2833   3.084   5.821  10.844  0.5788  0.0256 -0.3115
   22SAPC  H13A 2834   3.052   5.737  10.903 -0.6493 -0.7621 -2.0471
   22SAPC  H13B 2835   3.137   5.878  10.919  0.7764 -0.5094 -0.0467
   22SAPC  H13C 2836   2.994   5.875  10.819  0.8205 -0.0315 -1.3219
   22SAPC   C14 2837   3.108   5.715  10.623  0.0495  0.3325  1.2969
   22SAPC  H14A 2838   3.175   5.689  10.543 -2.3047 -0.5015 -0.4847
   22SAPC  H14B 2839   3.071   5.623  10.668 -0.8346  0.2664  0.4527
   22SAPC  H14C 2840   3.024   5.751  10.565 -0.3527 -1.1470  0.9471
   22SAPC   C15 2841   3.297   5.719  10.773  0.1770  0.4222  0.0063
   22SAPC  H15A 2842   3.338   5.759  10.864  1.8577  1.5265 -1.1878
   22SAPC  H15B 2843   3.263   5.621  10.800  0.9925  0.0294 -0.3763
   22SAPC  H15C 2844   3.375   5.718  10.698 -0.0727 -0.1064 -0.2448
   22SAPC   C11 2845   3.285   6.035  10.746 -0.4597  0.1943 -0.4355
   22SAPC  H11A 2846   3.210   6.057  10.826  1.4178  0.8446  1.1886
   22SAPC  H11B 2847   3.301   6.129  10.688  0.3726 -0.5155 -1.3771
   22SAPC     P 2848   3.529   5.970  10.714 -0.1234  0.1889  0.1290
   22SAPC   O13 2849   3.638   6.042  10.774  0.4380 -0.9296 -0.0402
   22SAPC   O14 2850   3.558   5.828  10.686 -0.2528  0.0388  0.2741
   22SAPC   O12 2851   3.402   5.987  10.799  0.0288 -0.0142 -0.3183
   22SAPC   O11 2852   3.503   6.039  10.573 -0.4859 -0.0887 -0.5836
   22SAPC    C1 2853   3.588   5.994  10.467  0.3400 -0.0943 -0.4962
   22SAPC    HA 2854   3.693   6.026  10.480 -0.6346  2.4035  1.6512
   22SAPC    HB 2855   3.591   5.884  10.454  0.0511 -0.1211 -0.3580
   22SAPC    C2 2856   3.534   6.042  10.333  0.5024  0.8178  0.1219
   22SAPC    HS 2857   3.542   6.152  10.323 -2.9223  1.0434 -0.4073
   22SAPC   O21 2858   3.395   5.995  10.301 -0.1258  0.3871 -0.0570
   22SAPC   C21 2859   3.320   6.092  10.247  0.3011  1.2659  0.1666
   22SAPC   O22 2860   3.355   6.203  10.211  0.2492 -0.0427 -0.2386
   22SAPC   C22 2861   3.179   6.035  10.237 -0.1593  0.8647 -0.4879
   22SAPC   H2R 2862   3.175   5.932  10.194  0.3984  1.2651 -1.5216
   22SAPC   H2S 2863   3.135   6.032  10.339  1.2211  0.2294  0.0951
   22SAPC    C3 2864   3.647   6.002  10.228 -0.0707  0.1339 -0.6846
   22SAPC    HX 2865   3.684   5.901  10.253  0.2666  0.1341 -1.1652
   22SAPC    HY 2866   3.733   6.070  10.251 -0.1363 -0.5295  1.5479
   22SAPC   O31 2867   3.601   6.014  10.098 -0.0601  0.1002 -0.7675
   22SAPC   C31 2868   3.601   6.143  10.041 -0.7292  0.6108  0.0403
   22SAPC   O32 2869   3.660   6.241  10.083  0.3981 -0.0757 -0.0294
   22SAPC   C32 2870   3.545   6.129   9.906  0.0247 -0.1151 -0.1721
   22SAPC   H2X 2871   3.434   6.127   9.913  0.1556  0.0457  2.6869
   22SAPC   H2Y 2872   3.583   6.038   9.855 -0.7294 -0.5938  0.1160
   22SAPC   C23 2873   3.094   6.121  10.137 -0.2437 -0.0555  0.2173
   22SAPC   H3R 2874   3.165   6.148  10.055  0.5959 -1.8768  0.3105
   22SAPC   H3S 2875   3.072   6.213  10.195  0.0821 -0.8839  1.6750
   22SAPC   C24 2876   2.971   6.046  10.085  0.0020 -0.1357  0.3832
   22SAPC   H4R 2877   2.914   5.999  10.168  0.3026  0.5136  0.9615
   22SAPC   H4S 2878   3.012   5.969  10.017  0.5298  1.6675 -1.4026
   22SAPC   C25 2879   2.881   6.137  10.001  0.1657 -0.1107 -0.1618
   22SAPC   H5R 2880   2.881   6.241  10.037  0.9812 -0.9107  2.2474
   22SAPC   C26 2881   2.805   6.093   9.900 -0.1694  0.0201 -0.2575
   22SAPC   H6R 2882   2.739   6.161   9.844  2.4196  3.0165  0.2244
   22SAPC   C27 2883   2.792   5.950   9.852 -0.0922 -0.1939  0.5797
   22SAPC   H7R 2884   2.827   5.876   9.927  0.8049 -0.1323  0.2199
   22SAPC   H7S 2885   2.858   5.945   9.763 -0.0835 -1.6112  0.6570
   22SAPC   C28 2886   2.650   5.922   9.815 -0.1847  0.2888  0.2931
   22SAPC   H8R 2887   2.596   5.875   9.899  1.6184 -1.4961  0.4812
   22SAPC   C29 2888   2.588   5.960   9.703 -0.0714  0.0894 -0.0463
   22SAPC   H9R 2889   2.483   5.931   9.687 -0.8890  1.6558  2.1793
   22SAPC  C210 2890   2.654   6.034   9.588  0.4459  0.6563  0.5126
   22SAPC  H10R 2891   2.675   5.962   9.505 -0.4325  2.2412 -1.1304
   22SAPC  H10S 2892   2.750   6.083   9.614  0.4671  0.2880  1.1173
   22SAPC  C211 2893   2.565   6.149   9.540 -0.9945  0.1157 -0.2959
   22SAPC  H11R 2894   2.557   6.235   9.609 -0.4449  1.2170 -1.5762
   22SAPC  C212 2895   2.492   6.164   9.428  0.0763  0.1058  0.4526
   22SAPC  H12R 2896   2.420   6.246   9.416  0.2957  0.0342 -1.5252
   22SAPC  C213 2897   2.485   6.061   9.325  0.0615 -0.7040 -0.1041
   22SAPC  H13R 2898   2.586   6.015   9.323 -0.0169 -0.8484 -0.8654
   22SAPC  H13S 2899   2.495   6.109   9.225 -0.5455 -1.0072 -0.3141
   22SAPC  C214 2900   2.379   5.956   9.324 -0.0956  0.2024  0.5298
   22SAPC  H14R 2901   2.372   5.909   9.422 -0.5836  0.1147  0.4542
   22SAPC  C215 2902   2.297   5.916   9.225 -0.5218  0.0525  0.1579
   22SAPC  H15R 2903   2.214   5.849   9.252 -1.3604  2.2804  3.3585
   22SAPC  C216 2904   2.272   5.961   9.086  0.0365  0.2495  0.1893
   22SAPC  H16R 2905   2.256   5.867   9.029 -2.9006  0.9629 -0.2155
   22SAPC  H16S 2906   2.364   6.012   9.049  0.2375 -1.5584 -1.9051
   22SAPC  C217 2907   2.153   6.058   9.078  0.4990  0.2224  0.1664
   22SAPC  H17R 2908   2.153   6.139   9.155  0.3344 -1.4369  1.9381
   22SAPC  H17S 2909   2.055   6.010   9.097 -1.0111  2.9690 -0.3889
   22SAPC  C218 2910   2.147   6.113   8.928 -0.2681  0.6996 -0.6031
   22SAPC  H18R 2911   2.241   6.170   8.919 -0.4200  0.5470 -3.5526
   22SAPC  H18S 2912   2.073   6.196   8.930 -1.4719 -0.3058 -1.9625
   22SAPC  C219 2913   2.119   6.016   8.816 -0.3216  0.1643  0.0986
   22SAPC  H19R 2914   2.202   5.943   8.809 -0.2552  0.4219 -2.1982
   22SAPC  H19S 2915   2.127   6.071   8.719  1.6757  1.8138  1.1784
   22SAPC  C220 2916   1.984   5.950   8.833  0.1486  0.5495  0.0659
   22SAPC  H20R 2917   1.904   6.017   8.795 -0.1566 -0.5419 -1.2910
   22SAPC  H20S 2918   1.960   5.925   8.939 -0.5075  1.3786  0.1179
   22SAPC  H20T 2919   1.983   5.853   8.778 -1.0724 -1.2968  3.2019
   22SAPC   C33 2920   3.582   6.251   9.817  0.8028  0.3369 -0.4625
   22SAPC   H3X 2921   3.691   6.239   9.797  0.6570 -1.4798 -0.2176
   22SAPC   H3Y 2922   3.562   6.340   9.880  1.2069  1.8425 -2.3799
   22SAPC   C34 2923   3.513   6.261   9.681  0.0725  0.1957 -0.1303
   22SAPC   H4X 2924   3.521   6.359   9.629  0.8599  0.4215  0.4101
   22SAPC   H4Y 2925   3.404   6.239   9.692  0.2041 -2.0251 -2.6985
   22SAPC   C35 2926   3.562   6.148   9.590  0.0359  0.7005 -0.3404
   22SAPC   H5X 2927   3.555   6.050   9.642 -1.3548  0.0032 -1.8124
   22SAPC   H5Y 2928   3.668   6.172   9.566 -0.3032  1.8119 -0.7626
   22SAPC   C36 2929   3.496   6.157   9.455  0.1640 -0.2791  0.5673
   22SAPC   H6X 2930   3.520   6.254   9.406 -0.1043 -0.6404 -0.2994
   22SAPC   H6Y 2931   3.386   6.141   9.467  0.7914 -4.4784  1.3940
   22SAPC   C37 2932   3.548   6.065   9.348  0.0506  0.1210  0.5370
   22SAPC   H7X 2933   3.498   5.966   9.361 -0.2925 -0.0759 -2.0652
   22SAPC   H7Y 2934   3.656   6.042   9.362  0.0862 -1.6683 -2.2083
   22SAPC   C38 2935   3.520   6.116   9.206  0.2932 -0.2783  0.0513
   22SAPC   H8X 2936   3.534   6.028   9.140  1.2301 -0.2504  0.2106
   22SAPC   H8Y 2937   3.594   6.188   9.166 -1.8299  1.7976 -0.2214
   22SAPC   C39 2938   3.381   6.162   9.176  0.5880  0.5967 -0.3648
   22SAPC   H9X 2939   3.360   6.262   9.221  0.0474  0.2049  0.2668
   22SAPC   H9Y 2940   3.317   6.091   9.233  2.7532 -0.9562  0.1965
   22SAPC  C310 2941   3.343   6.164   9.028 -0.4713 -0.3887  0.2573
   22SAPC  H10X 2942   3.374   6.070   8.977  2.0783 -1.2580  3.2861
   22SAPC  H10Y 2943   3.424   6.228   8.988 -3.1134  1.3790 -2.5385
   22SAPC  C311 2944   3.209   6.231   9.000  0.1127 -0.3402 -0.0675
   22SAPC  H11X 2945   3.190   6.324   9.058  0.6068 -0.3590  0.1234
   22SAPC  H11Y 2946   3.130   6.165   9.041 -0.5315  0.2631 -0.3116
   22SAPC  C312 2947   3.182   6.252   8.849  0.6258 -0.1097  0.1732
   22SAPC  H12X 2948   3.076   6.268   8.820  0.8362  0.6953 -0.1561
   22SAPC  H12Y 2949   3.202   6.154   8.801 -1.1703 -0.7533  0.6740
   22SAPC  C313 2950   3.261   6.372   8.793  0.2890 -0.4949 -0.4990
   22SAPC  H13X 2951   3.360   6.340   8.755  0.1061 -1.1789 -0.4250
   22SAPC  H13Y 2952   3.290   6.437   8.877  0.7591 -0.8094 -0.4160
   22SAPC  C314 2953   3.180   6.461   8.697 -0.3988  0.6865 -0.6718
   22SAPC  H14X 2954   3.138   6.404   8.611 -0.0307 -2.0372  0.9046
   22SAPC  H14Y 2955   3.248   6.535   8.649  1.3654  0.2325  1.0534
   22SAPC  C315 2956   3.064   6.543   8.757 -0.4021  0.1455  0.1942
   22SAPC  H15X 2957   3.096   6.599   8.847 -3.4457  0.1472  1.3443
   22SAPC  H15Y 2958   2.996   6.468   8.803 -0.0201 -1.3637 -1.6613
   22SAPC  C316 2959   2.977   6.626   8.657 -0.5966  0.7705 -0.3211
   22SAPC  H16X 2960   2.894   6.675   8.713 -1.0468  0.9269 -1.1217
   22SAPC  H16Y 2961   2.929   6.556   8.585 -0.3026  1.3838 -1.1148
   22SAPC  C317 2962   3.054   6.728   8.578  0.0850  0.0848 -0.2410
   22SAPC  H17X 2963   2.988   6.779   8.504 -0.3831  1.3626  1.0240
   22SAPC  H17Y 2964   3.131   6.663   8.531 -0.7450 -1.2377  0.2279
   22SAPC  C318 2965   3.129   6.826   8.675 -0.2629 -0.6079  0.2316
   22SAPC  H18X 2966   3.193   6.777   8.751  2.0007 -2.3557 -2.6862
   22SAPC  H18Y 2967   3.053   6.888   8.727 -0.4761 -0.9933  0.3824
   22SAPC  H18Z 2968   3.204   6.887   8.620  0.7782 -0.2870  1.9539
   23SAPC     N 2969   4.940   1.141  11.089  0.1720  0.0316 -0.2941
   23SAPC   C12 2970   4.923   1.230  10.964 -0.2550  0.6353 -0.1684
   23SAPC  H12A 2971   5.026   1.242  10.934 -0.1268 -0.6002 -0.2560
   23SAPC  H12B 2972   4.875   1.320  10.998 -0.7347  1.1427 -2.0751
   23SAPC   C13 2973   5.014   1.219  11.197 -0.2332  0.0836 -0.2344
   23SAPC  H13A 2974   4.961   1.313  11.194  0.7954  0.6303 -2.6877
   23SAPC  H13B 2975   5.026   1.155  11.282 -1.4581 -0.7623 -0.6789
   23SAPC  H13C 2976   5.119   1.235  11.179  0.1297 -0.4331  1.4005
   23SAPC   C14 2977   4.812   1.105  11.147 -0.3437 -0.8925  0.0169
   23SAPC  H14A 2978   4.741   1.061  11.078 -3.0810  1.8516  0.9703
   23SAPC  H14B 2979   4.824   1.034  11.227 -1.7170 -1.3382 -0.1567
   23SAPC  H14C 2980   4.757   1.191  11.182 -1.6128 -1.8287  0.3697
   23SAPC   C15 2981   5.012   1.013  11.056 -0.4751  0.3407 -0.1060
   23SAPC  H15A 2982   5.118   1.034  11.044 -0.5333  0.6095 -0.1634
   23SAPC  H15B 2983   5.011   0.946  11.141  0.7319 -1.1320 -1.2174
   23SAPC  H15C 2984   4.986   0.962  10.964 -1.2683  2.8450 -1.3197
   23SAPC   C11 2985   4.838   1.169  10.845 -0.9169 -0.1810 -0.7809
   23SAPC  H11A 2986   4.894   1.075  10.826 -0.9075 -0.3466  0.0548
   23SAPC  H11B 2987   4.853   1.224  10.750  1.4732  2.4291  1.0264
   23SAPC     P 2988   4.599   1.264  10.882 -0.0771 -0.1262 -0.1699
   23SAPC   O13 2989   4.469   1.204  10.930 -0.2828 -0.0405 -0.2910
   23SAPC   O14 2990   4.661   1.370  10.968 -0.1367 -0.6728  0.0190
   23SAPC   O12 2991   4.703   1.146  10.873 -0.3035  0.4813  0.1666
   23SAPC   O11 2992   4.574   1.316  10.734  0.4585 -0.0172 -0.2881
   23SAPC    C1 2993   4.518   1.222  10.645  0.3060 -0.4890  0.6777
   23SAPC    HA 2994   4.534   1.113  10.661 -0.9869 -1.0448 -1.5036
   23SAPC    HB 2995   4.410   1.240  10.628  0.2385 -0.2289  1.3655
   23SAPC    C2 2996   4.591   1.250  10.511  0.5524 -0.7856  0.4616
   23SAPC    HS 2997   4.546   1.341  10.464  0.1003 -0.0546  2.2491
   23SAPC   O21 2998   4.592   1.142  10.427  0.1323  0.0430 -0.4768
   23SAPC   C21 2999   4.502   1.135  10.337  0.0864  0.3712 -0.2644
   23SAPC   O22 3000   4.411   1.215  10.319  0.0951 -0.4374 -0.2874
   23SAPC   C22 3001   4.529   1.027  10.240  0.3031 -0.7512 -0.0414
   23SAPC   H2R 3002   4.589   1.067  10.156  0.5597  0.0202  0.5041
   23SAPC   H2S 3003   4.590   0.945  10.284  0.3898 -0.1054  1.0561
   23SAPC    C3 3004   4.743   1.292  10.515 -0.3048  0.0076  0.1813
   23SAPC    HX 3005   4.788   1.200  10.557 -0.3641  0.3608  1.0208
   23SAPC    HY 3006   4.754   1.381  10.581 -1.3246 -0.7193  1.3468
   23SAPC   O31 3007   4.782   1.336  10.379 -0.8306 -0.0152 -0.2892
   23SAPC   C31 3008   4.921   1.335  10.369 -0.1064  0.6750  0.1829
   23SAPC   O32 3009   4.995   1.292  10.456 -0.6712 -0.1801  0.3685
   23SAPC   C32 3010   4.955   1.394  10.232  0.1011  0.4949 -0.2974
   23SAPC   H2X 3011   4.967   1.504  10.243 -1.5218  0.4965  1.7054
   23SAPC   H2Y 3012   4.868   1.385  10.163 -2.3176 -0.1708  2.7013
   23SAPC   C23 3013   4.395   0.966  10.191  0.1977  0.3437 -0.3376
   23SAPC   H3R 3014   4.341   1.047  10.136  3.0288  1.6261 -1.3756
   23SAPC   H3S 3015   4.336   0.930  10.277  2.2201  2.1037  1.8845
   23SAPC   C24 3016   4.423   0.854  10.092 -0.2781  0.4834 -0.5297
   23SAPC   H4R 3017   4.487   0.777  10.141 -1.1922  0.0325 -0.0446
   23SAPC   H4S 3018   4.496   0.889  10.015  0.2808 -2.2215 -1.3053
   23SAPC   C25 3019   4.304   0.785  10.046 -0.2058 -0.3968  0.3740
   23SAPC   H5R 3020   4.261   0.724  10.126  1.6978 -1.1191  0.8756
   23SAPC   C26 3021   4.259   0.774   9.920 -0.3733  0.6252 -0.7244
   23SAPC   H6R 3022   4.167   0.717   9.900 -1.8115  3.1268 -1.5256
   23SAPC   C27 3023   4.318   0.845   9.804 -0.5752  0.1014  0.4426
   23SAPC   H7R 3024   4.364   0.942   9.832  0.7777 -0.5070  0.3493
   23SAPC   H7S 3025   4.234   0.878   9.739  0.5566  2.2888  0.0461
   23SAPC   C28 3026   4.423   0.773   9.730  0.2236 -0.2795 -0.1002
   23SAPC   H8R 3027   4.506   0.740   9.794 -0.1903  0.5605  0.8877
   23SAPC   C29 3028   4.430   0.753   9.598 -0.7703 -0.0406 -0.4003
   23SAPC   H9R 3029   4.523   0.708   9.559 -1.3301 -1.0076 -0.6593
   23SAPC  C210 3030   4.332   0.805   9.494  0.3443  0.9094  0.5991
   23SAPC  H10R 3031   4.251   0.870   9.534 -1.4978  0.3856 -2.1726
   23SAPC  H10S 3032   4.296   0.719   9.434  1.1662  0.8513  0.1723
   23SAPC  C211 3033   4.411   0.907   9.410  0.7329 -0.8300  0.3018
   23SAPC  H11R 3034   4.448   0.994   9.465 -1.1211 -0.2161  0.6206
   23SAPC  C212 3035   4.432   0.902   9.278 -0.2612  0.8829 -0.1857
   23SAPC  H12R 3036   4.508   0.970   9.237 -0.5624  1.2381 -0.1547
   23SAPC  C213 3037   4.374   0.801   9.176  0.3236 -0.1083  0.5770
   23SAPC  H13R 3038   4.311   0.730   9.234  1.4197  0.8924  3.0627
   23SAPC  H13S 3039   4.450   0.745   9.118 -0.6776 -0.7488 -0.1302
   23SAPC  C214 3040   4.268   0.880   9.096 -0.4678  0.1005 -0.4168
   23SAPC  H14R 3041   4.244   0.977   9.142 -0.0472 -0.6545  1.4506
   23SAPC  C215 3042   4.216   0.850   8.978 -0.8279 -0.0985 -0.2517
   23SAPC  H15R 3043   4.154   0.925   8.928 -0.1308  0.5263 -0.1919
   23SAPC  C216 3044   4.260   0.722   8.911  0.0697 -0.3741  0.0199
   23SAPC  H16R 3045   4.178   0.648   8.922 -0.6562  0.5468  1.0602
   23SAPC  H16S 3046   4.351   0.670   8.947 -1.0299 -1.7760  0.8340
   23SAPC  C217 3047   4.267   0.745   8.758  0.1651  0.5253 -0.0459
   23SAPC  H17R 3048   4.306   0.652   8.712 -2.8111 -1.6991  1.7376
   23SAPC  H17S 3049   4.337   0.826   8.729 -0.8807  2.3267  2.2346
   23SAPC  C218 3050   4.133   0.781   8.689 -0.5140 -0.3168 -0.0284
   23SAPC  H18R 3051   4.162   0.843   8.601 -0.4965  0.6138  0.6226
   23SAPC  H18S 3052   4.056   0.833   8.750 -0.5509 -0.0918 -0.2654
   23SAPC  C219 3053   4.071   0.653   8.640  0.3931 -0.6335 -0.1743
   23SAPC  H19R 3054   4.030   0.598   8.727 -0.3650  0.0064 -0.1269
   23SAPC  H19S 3055   4.140   0.593   8.576 -0.9144 -0.0998 -2.1555
   23SAPC  C220 3056   3.952   0.675   8.541  0.7873  0.1732 -0.7447
   23SAPC  H20R 3057   3.992   0.728   8.452 -0.1811  0.7885 -0.8179
   23SAPC  H20S 3058   3.870   0.728   8.593 -0.3662 -2.0580 -0.2082
   23SAPC  H20T 3059   3.907   0.577   8.514 -3.3910  1.8078 -0.1152
   23SAPC   C33 3060   5.067   1.337  10.144 -0.1576  1.0245  0.4735
   23SAPC   H3X 3061   5.065   1.226  10.151  3.6720  0.9565  1.2381
   23SAPC   H3Y 3062   5.171   1.373  10.157  0.3206 -0.1375 -0.0421
   23SAPC   C34 3063   5.045   1.364   9.989 -0.1335  0.2093  0.0684
   23SAPC   H4X 3064   5.027   1.473   9.980 -2.5137 -0.4718 -4.8080
   23SAPC   H4Y 3065   4.952   1.307   9.968 -1.6973  1.6639  2.8184
   23SAPC   C35 3066   5.150   1.315   9.900 -0.1264 -0.0787  0.3550
   23SAPC   H5X 3067   5.144   1.204   9.904  2.8567 -0.3059 -0.5739
   23SAPC   H5Y 3068   5.247   1.344   9.946 -0.0368  0.7221 -0.3322
   23SAPC   C36 3069   5.119   1.366   9.754  0.7267  0.6254 -0.1438
   23SAPC   H6X 3070   5.155   1.470   9.737  0.8446  0.7563  0.8645
   23SAPC   H6Y 3071   5.011   1.345   9.740  1.2012 -2.5927  0.6453
   23SAPC   C37 3072   5.190   1.287   9.636  0.6837  0.8657 -0.1571
   23SAPC   H7X 3073   5.185   1.177   9.654 -0.2955  0.9946  0.3674
   23SAPC   H7Y 3074   5.296   1.320   9.640  0.2819  2.0277  1.2014
   23SAPC   C38 3075   5.145   1.314   9.497  0.3733  0.1246  0.0397
   23SAPC   H8X 3076   5.150   1.423   9.477 -1.6780  0.5079  1.4399
   23SAPC   H8Y 3077   5.036   1.293   9.484  0.2878  1.4943 -1.5688
   23SAPC   C39 3078   5.229   1.242   9.397 -0.7903  0.0974  0.7936
   23SAPC   H9X 3079   5.231   1.137   9.434 -1.0539 -0.1639  0.0680
   23SAPC   H9Y 3080   5.335   1.277   9.398 -1.3847  1.9899 -0.3238
   23SAPC  C310 3081   5.181   1.253   9.251  0.1068 -0.6614 -0.0008
   23SAPC  H10X 3082   5.208   1.354   9.214 -2.7700  0.4192  0.6729
   23SAPC  H10Y 3083   5.070   1.251   9.243  0.0870  0.9760 -0.3305
   23SAPC  C311 3084   5.245   1.148   9.159  0.5796  0.1354 -0.5170
   23SAPC  H11X 3085   5.206   1.053   9.201 -1.6957  0.6642 -1.3707
   23SAPC  H11Y 3086   5.355   1.163   9.160  0.7647 -1.2190 -0.2292
   23SAPC  C312 3087   5.201   1.156   9.014 -0.1226  0.0627  0.5771
   23SAPC  H12X 3088   5.211   1.260   8.977 -1.6043  0.6748  1.8764
   23SAPC  H12Y 3089   5.094   1.128   9.005 -0.1139  0.3628 -0.5389
   23SAPC  C313 3090   5.273   1.059   8.920 -0.1188 -0.0917  0.3371
   23SAPC  H13X 3091   5.272   0.957   8.964 -0.4412  0.9828  2.8862
   23SAPC  H13Y 3092   5.381   1.081   8.916  0.0312 -0.9926 -1.1670
   23SAPC  C314 3093   5.216   1.052   8.778  0.6393 -0.4826  0.5315
   23SAPC  H14X 3094   5.180   1.154   8.752  0.7012 -0.8353 -0.9958
   23SAPC  H14Y 3095   5.131   0.981   8.771  0.6822 -0.3950 -0.8929
   23SAPC  C315 3096   5.319   1.036   8.661  0.6733  0.6245  0.0638
   23SAPC  H15X 3097   5.365   0.937   8.678  1.1057  0.4959 -1.6774
   23SAPC  H15Y 3098   5.399   1.111   8.678  0.5076  0.8969 -0.3241
   23SAPC  C316 3099   5.254   1.038   8.517  0.3287  0.9474 -1.0123
   23SAPC  H16X 3100   5.333   1.055   8.441  1.2293  2.9943  0.3420
   23SAPC  H16Y 3101   5.177   1.119   8.513 -0.1199  0.4904 -1.6157
   23SAPC  C317 3102   5.186   0.906   8.484 -0.0609 -0.2577 -0.2089
   23SAPC  H17X 3103   5.111   0.885   8.564  0.4911  0.2084  0.4291
   23SAPC  H17Y 3104   5.270   0.833   8.483  0.5288  0.4179 -0.2323
   23SAPC  C318 3105   5.114   0.930   8.341 -0.6218  0.1999 -0.7977
   23SAPC  H18X 3106   5.193   0.964   8.270 -0.8724  0.3521 -1.0072
   23SAPC  H18Y 3107   5.031   1.003   8.347  0.0111  0.8008  1.0709
   23SAPC  H18Z 3108   5.073   0.833   8.305 -2.2103  0.1818  1.0455
   24SAPC     N 3109   0.309   1.315  11.222  0.0493  0.0387  0.7836
   24SAPC   C12 3110   0.397   1.253  11.122  0.2380  0.5715  0.5780
   24SAPC  H12A 3111   0.411   1.148  11.142 -0.5531  0.3494 -0.0325
   24SAPC  H12B 3112   0.493   1.303  11.133 -0.3268  0.8758  4.9890
   24SAPC   C13 3113   0.331   1.467  11.218  0.0029  0.4331  0.2575
   24SAPC  H13A 3114   0.259   1.503  11.289  0.2664  0.5688  0.4562
   24SAPC  H13B 3115   0.425   1.497  11.262 -0.2718 -0.4376  1.4527
   24SAPC  H13C 3116   0.318   1.500  11.116 -2.7535  2.6274  1.2717
   24SAPC   C14 3117   0.163   1.297  11.186 -0.3225  0.3231  0.2249
   24SAPC  H14A 3118   0.104   1.343  11.264  3.1597 -0.8774  3.7330
   24SAPC  H14B 3119   0.154   1.347  11.090  2.1531 -2.2753 -1.4630
   24SAPC  H14C 3120   0.132   1.194  11.185 -0.1342  0.2654  0.3803
   24SAPC   C15 3121   0.342   1.255  11.350 -0.3724 -0.8424 -0.2429
   24SAPC  H15A 3122   0.287   1.303  11.430 -1.2993 -1.6262 -0.4086
   24SAPC  H15B 3123   0.321   1.150  11.360 -0.7339 -0.9203 -1.7504
   24SAPC  H15C 3124   0.440   1.273  11.390 -0.2935  0.0974 -0.8421
   24SAPC   C11 3125   0.367   1.271  10.971  0.2138  0.7998  0.3260
   24SAPC  H11A 3126   0.269   1.220  10.957  1.0533 -1.2986  1.9033
   24SAPC  H11B 3127   0.431   1.221  10.895 -2.5337 -2.5156  0.0588
   24SAPC     P 3128   0.468   1.494  10.880 -0.0611 -0.0372  0.0325
   24SAPC   O13 3129   0.416   1.634  10.885  0.1593  0.1505  0.4182
   24SAPC   O14 3130   0.593   1.465  10.949 -0.2139 -0.0594 -0.2934
   24SAPC   O12 3131   0.348   1.411  10.932 -0.0764 -0.4337 -0.1532
   24SAPC   O11 3132   0.490   1.445  10.728  0.7986 -0.1402  0.3056
   24SAPC    C1 3133   0.379   1.421  10.642  0.3845  0.2771  0.0581
   24SAPC    HA 3134   0.415   1.366  10.552 -1.0323 -0.7027  0.0695
   24SAPC    HB 3135   0.295   1.371  10.695 -0.6570  1.0390 -0.8197
   24SAPC    C2 3136   0.314   1.547  10.585 -0.4716  0.7546 -0.1827
   24SAPC    HS 3137   0.260   1.607  10.662  0.7113  0.3614  0.9640
   24SAPC   O21 3138   0.219   1.510  10.484  0.3927  0.1757 -0.1399
   24SAPC   C21 3139   0.116   1.589  10.474 -0.0832 -0.0693  0.7696
   24SAPC   O22 3140   0.092   1.690  10.543 -0.3603  0.1923 -0.2413
   24SAPC   C22 3141   0.027   1.541  10.361 -0.1884 -0.0974 -0.4663
   24SAPC   H2R 3142   0.088   1.531  10.269  2.7841 -0.4245  1.4672
   24SAPC   H2S 3143  -0.001   1.435  10.379  1.7333 -0.8875 -1.9819
   24SAPC    C3 3144   0.424   1.642  10.519  0.1867  0.3461  0.4231
   24SAPC    HX 3145   0.459   1.585  10.430  1.0421  2.2059 -0.4739
   24SAPC    HY 3146   0.516   1.651  10.581  0.1176 -2.0387  0.8881
   24SAPC   O31 3147   0.364   1.766  10.471  0.1641 -0.2470 -0.1044
   24SAPC   C31 3148   0.359   1.871  10.551  0.1456  1.0361  0.5569
   24SAPC   O32 3149   0.400   1.881  10.665  0.1939 -0.0743  0.0807
   24SAPC   C32 3150   0.277   1.985  10.472 -0.2882 -1.3269  0.9780
   24SAPC   H2X 3151   0.178   1.994  10.522 -1.1171 -0.1588 -0.8370
   24SAPC   H2Y 3152   0.264   1.938  10.373  1.3684  0.2043 -0.0044
   24SAPC   C23 3153  -0.083   1.638  10.328 -0.4889 -0.0984  0.4025
   24SAPC   H3R 3154  -0.034   1.737  10.328  1.0210 -0.8296  0.5056
   24SAPC   H3S 3155  -0.149   1.649  10.416  0.2767  0.9763  0.8481
   24SAPC   C24 3156  -0.171   1.603  10.204 -0.0010  0.6119  0.7919
   24SAPC   H4R 3157  -0.218   1.504  10.221  0.7050 -0.5283 -3.2082
   24SAPC   H4S 3158  -0.099   1.596  10.120 -1.6000  0.3112 -0.5954
   24SAPC   C25 3159  -0.284   1.700  10.182  0.8658  0.1343 -0.1340
   24SAPC   H5R 3160  -0.333   1.731  10.275  0.7945 -0.0311 -0.1172
   24SAPC   C26 3161  -0.327   1.750  10.063 -0.3768 -0.0203  0.3313
   24SAPC   H6R 3162  -0.421   1.807  10.057 -1.3491 -1.5341  0.8507
   24SAPC   C27 3163  -0.269   1.730   9.927  0.1654 -0.2355 -0.0899
   24SAPC   H7R 3164  -0.169   1.683   9.924  0.1317 -0.2942 -0.2895
   24SAPC   H7S 3165  -0.246   1.830   9.884 -0.2187  0.3010  0.9325
   24SAPC   C28 3166  -0.360   1.647   9.840 -0.4364  0.2130 -0.0626
   24SAPC   H8R 3167  -0.404   1.562   9.894 -1.5002  0.8384  0.0672
   24SAPC   C29 3168  -0.403   1.678   9.713  0.1891 -0.6988 -0.3190
   24SAPC   H9R 3169  -0.457   1.600   9.657 -1.0741 -0.4681  0.5534
   24SAPC  C210 3170  -0.369   1.799   9.638 -0.4077 -0.4701 -0.4241
   24SAPC  H10R 3171  -0.351   1.889   9.701  2.9268 -2.0084  0.9379
   24SAPC  H10S 3172  -0.453   1.827   9.572 -1.5738 -1.6396  0.5378
   24SAPC  C211 3173  -0.240   1.774   9.555  0.2723  0.2898 -0.0050
   24SAPC  H11R 3174  -0.166   1.708   9.604  0.1313 -0.4096 -0.7251
   24SAPC  C212 3175  -0.215   1.832   9.436  0.6969  0.5617  0.7452
   24SAPC  H12R 3176  -0.116   1.804   9.396  0.4049 -1.1053  1.1710
   24SAPC  C213 3177  -0.294   1.936   9.358  0.7811  0.2627  0.3499
   24SAPC  H13R 3178  -0.389   1.957   9.412  0.7617  2.8662 -0.6018
   24SAPC  H13S 3179  -0.317   1.884   9.262  1.2427  0.9933 -0.1687
   24SAPC  C214 3180  -0.234   2.077   9.341  0.2924 -0.0946 -0.8969
   24SAPC  H14R 3181  -0.203   2.129   9.433  0.0341  0.3705 -1.0750
   24SAPC  C215 3182  -0.222   2.148   9.225  0.4384  0.4687 -0.9760
   24SAPC  H15R 3183  -0.180   2.250   9.219  1.8770 -0.1242 -1.0624
   24SAPC  C216 3184  -0.271   2.099   9.095  0.0514 -0.3624  0.0195
   24SAPC  H16R 3185  -0.365   2.151   9.067 -0.2093  0.2645  1.9754
   24SAPC  H16S 3186  -0.283   1.989   9.094 -1.0145 -0.2516 -1.0817
   24SAPC  C217 3187  -0.163   2.121   8.988  0.0940  0.8122 -0.2171
   24SAPC  H17R 3188  -0.179   2.058   8.899 -0.3909 -0.1561  0.5464
   24SAPC  H17S 3189  -0.060   2.102   9.026  0.9784  0.6398 -2.6500
   24SAPC  C218 3190  -0.158   2.264   8.930 -0.0566  0.8262 -0.4852
   24SAPC  H18R 3191  -0.151   2.349   9.001  1.6197  0.5534 -0.2995
   24SAPC  H18S 3192  -0.262   2.284   8.899  0.1868  1.4659 -0.9013
   24SAPC  C219 3193  -0.057   2.300   8.815 -0.1716  0.4916 -0.2515
   24SAPC  H19R 3194   0.048   2.290   8.850 -0.1891 -1.8056 -0.7607
   24SAPC  H19S 3195  -0.081   2.408   8.805 -2.9462 -0.1961 -1.5377
   24SAPC  C220 3196  -0.082   2.212   8.689 -0.2439 -0.6628 -0.3927
   24SAPC  H20R 3197  -0.186   2.225   8.651 -0.7493  0.7747  1.4112
   24SAPC  H20S 3198  -0.079   2.106   8.720 -1.9655  0.2792  3.1790
   24SAPC  H20T 3199  -0.010   2.232   8.607  0.4095 -0.9260  0.1153
   24SAPC   C33 3200   0.354   2.119  10.461 -0.8501  0.6662 -0.3490
   24SAPC   H3X 3201   0.367   2.168  10.560  0.1464 -0.6489  0.1888
   24SAPC   H3Y 3202   0.296   2.194  10.404  1.0921  2.5179  0.0627
   24SAPC   C34 3203   0.486   2.108  10.377  0.4512 -0.8104 -0.4575
   24SAPC   H4X 3204   0.550   2.043  10.439 -1.4702 -0.6902  1.6965
   24SAPC   H4Y 3205   0.538   2.206  10.373 -0.1153 -0.5123 -0.6396
   24SAPC   C35 3206   0.459   2.080  10.230 -0.8974  0.4954 -0.0017
   24SAPC   H5X 3207   0.371   2.141  10.200  0.2387  1.2292 -1.9451
   24SAPC   H5Y 3208   0.448   1.972  10.207  0.7639  0.7143 -1.9506
   24SAPC   C36 3209   0.581   2.134  10.142 -0.3478  0.6793 -0.4728
   24SAPC   H6X 3210   0.666   2.073  10.180 -0.9365 -1.3604 -2.3213
   24SAPC   H6Y 3211   0.601   2.240  10.172 -0.5714  0.4073  0.6732
   24SAPC   C37 3212   0.574   2.122   9.993 -0.1253 -0.8874 -0.3920
   24SAPC   H7X 3213   0.486   2.184   9.966  0.7511 -0.1354 -1.5961
   24SAPC   H7Y 3214   0.560   2.013   9.975 -0.5903 -0.8226 -0.4141
   24SAPC   C38 3215   0.701   2.160   9.923 -0.4360 -0.1988  0.8499
   24SAPC   H8X 3216   0.786   2.096   9.954  0.1850 -0.1406 -0.7171
   24SAPC   H8Y 3217   0.733   2.259   9.961 -0.1236  0.2393 -0.5416
   24SAPC   C39 3218   0.677   2.159   9.769  0.6439  0.2983 -0.5234
   24SAPC   H9X 3219   0.753   2.224   9.720 -1.0775  1.5522 -1.5931
   24SAPC   H9Y 3220   0.576   2.198   9.745 -0.0501 -1.8628 -1.2661
   24SAPC  C310 3221   0.698   2.025   9.694 -0.1103  0.2368  0.2310
   24SAPC  H10X 3222   0.631   1.944   9.728  0.6906 -1.7088 -2.6425
   24SAPC  H10Y 3223   0.803   1.992   9.714 -0.4194 -0.0478  1.4243
   24SAPC  C311 3224   0.675   2.045   9.546 -0.1649 -0.0338  0.0944
   24SAPC  H11X 3225   0.725   2.139   9.513  0.4836 -1.2617 -2.5198
   24SAPC  H11Y 3226   0.565   2.063   9.539  0.1373  1.0542 -2.3365
   24SAPC  C312 3227   0.724   1.923   9.466 -0.1158  0.5663  0.0556
   24SAPC  H12X 3228   0.683   1.836   9.521  0.9259  0.5175  0.7637
   24SAPC  H12Y 3229   0.835   1.929   9.473  0.0010 -1.7476  0.7324
   24SAPC  C313 3230   0.677   1.925   9.322 -0.0387  0.1115 -0.4780
   24SAPC  H13X 3231   0.694   2.020   9.267  1.5270 -1.1848 -2.2730
   24SAPC  H13Y 3232   0.568   1.907   9.333  0.0334 -1.0880 -1.5688
   24SAPC  C314 3233   0.736   1.793   9.257  0.6226 -0.0040 -0.1986
   24SAPC  H14X 3234   0.747   1.714   9.334 -0.6157  0.2001  0.2048
   24SAPC  H14Y 3235   0.835   1.820   9.216 -0.3860  2.5227 -1.0930
   24SAPC  C315 3236   0.655   1.746   9.134 -0.2409  0.3454  0.4865
   24SAPC  H15X 3237   0.548   1.729   9.158 -0.6039  1.0292 -0.5910
   24SAPC  H15Y 3238   0.690   1.649   9.093 -0.2982  0.6401 -0.2757
   24SAPC  C316 3239   0.658   1.853   9.022  0.4280  0.1999  0.5187
   24SAPC  H16X 3240   0.759   1.858   8.977  0.0630 -0.5309 -0.4126
   24SAPC  H16Y 3241   0.630   1.949   9.070  0.7922  0.9760 -0.7937
   24SAPC  C317 3242   0.551   1.818   8.918 -0.2719  0.6755  0.3379
   24SAPC  H17X 3243   0.530   1.708   8.919 -2.6459  1.1082  0.7109
   24SAPC  H17Y 3244   0.594   1.830   8.816  0.9098 -0.9298  0.6273
   24SAPC  C318 3245   0.424   1.906   8.947  0.1689 -0.0681 -0.7141
   24SAPC  H18X 3246   0.383   1.888   9.049  2.2792 -0.0537  0.1632
   24SAPC  H18Y 3247   0.341   1.881   8.878 -1.2623 -0.3984  1.0894
   24SAPC  H18Z 3248   0.452   2.013   8.944  1.2879 -0.3050  0.4249
   25SAPC     N 3249   3.362   5.467   5.888  0.2872  0.0640 -0.1030
   25SAPC   C12 3250   3.313   5.527   6.019 -0.2828  0.4197  0.0268
   25SAPC  H12A 3251   3.383   5.518   6.101 -0.4068  1.6300  0.2814
   25SAPC  H12B 3252   3.239   5.461   6.061  0.5139 -1.2029 -1.1208
   25SAPC   C13 3253   3.484   5.546   5.843  0.1137  0.0320 -0.4451
   25SAPC  H13A 3254   3.555   5.551   5.924  0.1398 -0.5925 -0.4249
   25SAPC  H13B 3255   3.525   5.496   5.756 -0.8872  1.2002 -1.6137
   25SAPC  H13C 3256   3.456   5.648   5.823 -2.6047 -0.9652 -2.0866
   25SAPC   C14 3257   3.400   5.326   5.917 -0.7965 -0.2133  0.3588
   25SAPC  H14A 3258   3.315   5.265   5.946  1.1214 -3.6566 -0.9242
   25SAPC  H14B 3259   3.445   5.268   5.838 -1.7675 -1.2967  0.5867
   25SAPC  H14C 3260   3.467   5.329   6.002 -2.2185 -3.2173  1.6786
   25SAPC   C15 3261   3.270   5.465   5.767  0.6465 -0.2973  0.0422
   25SAPC  H15A 3262   3.219   5.560   5.761  0.0640 -0.5153  1.3925
   25SAPC  H15B 3263   3.304   5.443   5.667 -1.5937  0.4393 -0.9407
   25SAPC  H15C 3264   3.184   5.402   5.784 -1.0140  1.4643 -1.4132
   25SAPC   C11 3265   3.250   5.667   6.001 -0.0210 -0.3654 -0.0287
   25SAPC  H11A 3266   3.186   5.680   6.091  0.5520  2.0352  0.0516
   25SAPC  H11B 3267   3.192   5.673   5.906  0.5316 -1.3602 -0.4397
   25SAPC     P 3268   3.392   5.857   6.118 -0.0049 -0.0757 -0.1010
   25SAPC   O13 3269   3.524   5.919   6.089  0.5505  0.0221 -0.2586
   25SAPC   O14 3270   3.282   5.945   6.171  0.4136  0.7303  0.8901
   25SAPC   O12 3271   3.354   5.770   5.996 -0.1727 -0.1146  0.0852
   25SAPC   O11 3272   3.416   5.746   6.214  0.7243 -0.2465 -0.2196
   25SAPC    C1 3273   3.531   5.663   6.226 -0.1301 -0.6076 -1.0366
   25SAPC    HA 3274   3.505   5.555   6.217 -1.9070 -0.2212 -0.8310
   25SAPC    HB 3275   3.606   5.672   6.145  1.5300 -1.5637  0.3633
   25SAPC    C2 3276   3.593   5.697   6.358  0.1259  0.1055 -0.0874
   25SAPC    HS 3277   3.670   5.619   6.379 -1.0015 -0.4295  2.2608
   25SAPC   O21 3278   3.482   5.690   6.456 -0.5208 -0.1573 -0.0725
   25SAPC   C21 3279   3.489   5.590   6.533 -0.1747 -0.0471 -0.2431
   25SAPC   O22 3280   3.564   5.487   6.520 -0.1822  0.2504  0.3639
   25SAPC   C22 3281   3.397   5.615   6.651  0.1402  0.3877  0.1693
   25SAPC   H2R 3282   3.437   5.706   6.700 -1.5694  1.2085  0.0743
   25SAPC   H2S 3283   3.301   5.648   6.607 -1.3191 -2.9773  0.6611
   25SAPC    C3 3284   3.649   5.844   6.376  0.5168  0.2119  0.6666
   25SAPC    HX 3285   3.567   5.917   6.359 -1.3160 -1.5507  1.7153
   25SAPC    HY 3286   3.726   5.855   6.298  0.5778 -1.6278  0.4421
   25SAPC   O31 3287   3.711   5.857   6.506  0.4520 -0.4592  0.0963
   25SAPC   C31 3288   3.645   5.922   6.595  0.3073  0.3932  1.0755
   25SAPC   O32 3289   3.524   5.941   6.593  0.7300 -0.2657  0.4535
   25SAPC   C32 3290   3.732   5.951   6.708  0.0906  0.1740  0.4152
   25SAPC   H2X 3291   3.803   6.026   6.667 -1.3828  1.6861  0.6016
   25SAPC   H2Y 3292   3.781   5.855   6.735  2.0261  1.2600  0.8739
   25SAPC   C23 3293   3.368   5.499   6.753 -0.2636 -0.1294  0.5532
   25SAPC   H3R 3294   3.468   5.458   6.778 -0.0643  0.0429  0.0330
   25SAPC   H3S 3295   3.322   5.417   6.694  1.5416 -0.6072 -0.2348
   25SAPC   C24 3296   3.287   5.541   6.871 -0.0109  1.0496  0.0249
   25SAPC   H4R 3297   3.266   5.440   6.913 -2.6651  1.6553  0.2647
   25SAPC   H4S 3298   3.190   5.581   6.835  0.3003 -0.5688 -2.7604
   25SAPC   C25 3299   3.359   5.639   6.957  0.8032 -0.5928 -0.0616
   25SAPC   H5R 3300   3.385   5.728   6.899 -1.3006 -0.0856 -0.2486
   25SAPC   C26 3301   3.377   5.631   7.091  0.9205 -0.2938  0.6478
   25SAPC   H6R 3302   3.422   5.721   7.135  2.1366  0.5185 -2.1447
   25SAPC   C27 3303   3.341   5.513   7.181  0.3189  0.3845 -0.2679
   25SAPC   H7R 3304   3.430   5.449   7.194  0.6519  1.3468  2.5299
   25SAPC   H7S 3305   3.264   5.455   7.126  0.1238  1.6413 -1.3373
   25SAPC   C28 3306   3.278   5.556   7.311  0.7628  0.0522 -0.2424
   25SAPC   H8R 3307   3.182   5.609   7.309 -0.4495 -2.1173 -1.8042
   25SAPC   C29 3308   3.321   5.519   7.431 -0.4144  0.3222  0.1450
   25SAPC   H9R 3309   3.264   5.555   7.517 -0.4887 -0.8711  0.6124
   25SAPC  C210 3310   3.445   5.441   7.461 -0.1410 -0.1345 -0.1467
   25SAPC  H10R 3311   3.523   5.482   7.393  0.6289 -0.2850  0.6296
   25SAPC  H10S 3312   3.432   5.331   7.445 -0.5649  0.0804 -1.3668
   25SAPC  C211 3313   3.496   5.476   7.602 -0.4674 -0.8542  0.3105
   25SAPC  H11R 3314   3.563   5.564   7.602  0.9134 -1.8889 -0.1393
   25SAPC  C212 3315   3.458   5.412   7.715 -0.2155 -0.8743 -0.2512
   25SAPC  H12R 3316   3.482   5.457   7.812 -0.7721  1.0780 -1.0005
   25SAPC  C213 3317   3.376   5.288   7.712  0.1346 -0.4683 -0.0907
   25SAPC  H13R 3318   3.406   5.226   7.624 -1.0115 -0.6817 -0.3353
   25SAPC  H13S 3319   3.267   5.305   7.720  0.0749 -0.8148 -0.1412
   25SAPC  C214 3320   3.399   5.211   7.838 -1.0027 -0.4941 -0.6262
   25SAPC  H14R 3321   3.472   5.129   7.825  0.7780  1.0545 -0.5283
   25SAPC  C215 3322   3.352   5.230   7.969 -0.5416  1.2611 -0.7162
   25SAPC  H15R 3323   3.387   5.161   8.047 -0.6387  2.0928  0.0761
   25SAPC  C216 3324   3.252   5.339   8.015 -0.5957 -0.3716 -0.2118
   25SAPC  H16R 3325   3.160   5.283   8.041  0.9636 -3.1374 -0.4186
   25SAPC  H16S 3326   3.239   5.407   7.929  2.1401  1.2587  0.6164
   25SAPC  C217 3327   3.299   5.430   8.131  0.0352 -0.1672 -0.4835
   25SAPC  H17R 3328   3.328   5.360   8.213  1.8502  1.1793  0.0560
   25SAPC  H17S 3329   3.204   5.482   8.159  0.6027  1.8571 -2.2280
   25SAPC  C218 3330   3.409   5.520   8.094  0.6431 -0.0561 -0.4788
   25SAPC  H18R 3331   3.480   5.462   8.031  1.3949 -0.1942  0.4857
   25SAPC  H18S 3332   3.465   5.558   8.182  2.2999 -2.2154 -0.5410
   25SAPC  C219 3333   3.366   5.646   8.023 -0.6600  0.0469 -0.4409
   25SAPC  H19R 3334   3.294   5.703   8.086  0.3966  1.3482 -0.4035
   25SAPC  H19S 3335   3.293   5.607   7.948 -0.6639  4.0159 -2.5949
   25SAPC  C220 3336   3.472   5.735   7.955 -0.5890  0.1409  0.3416
   25SAPC  H20R 3337   3.521   5.788   8.039  0.4024  0.1096 -0.2159
   25SAPC  H20S 3338   3.432   5.791   7.868 -0.7216  0.1989  0.4404
   25SAPC  H20T 3339   3.543   5.667   7.904 -1.8963  1.0112 -2.7667
   25SAPC   C33 3340   3.660   6.014   6.827 -0.1185 -0.2573  0.2511
   25SAPC   H3X 3341   3.551   5.989   6.826  0.3743 -2.5109 -1.5637
   25SAPC   H3Y 3342   3.667   6.124   6.839 -0.4083  0.2050 -3.3082
   25SAPC   C34 3343   3.706   5.937   6.958  1.1496 -0.7250  0.6339
   25SAPC   H4X 3344   3.810   5.968   6.981 -0.2809  3.2102  2.2528
   25SAPC   H4Y 3345   3.712   5.827   6.943 -0.4974 -0.4474 -2.3196
   25SAPC   C35 3346   3.618   5.984   7.082 -0.2980 -0.2449  0.3975
   25SAPC   H5X 3347   3.518   5.937   7.078 -1.5296  2.3303 -0.0969
   25SAPC   H5Y 3348   3.606   6.095   7.082 -0.7768 -0.2550  2.8209
   25SAPC   C36 3349   3.690   5.924   7.208 -0.0928 -0.7381  0.3062
   25SAPC   H6X 3350   3.790   5.971   7.216 -0.7964  0.7298  0.7687
   25SAPC   H6Y 3351   3.700   5.815   7.192  1.4215 -0.5212 -0.2367
   25SAPC   C37 3352   3.619   5.953   7.339  0.6784 -0.2029  0.3056
   25SAPC   H7X 3353   3.510   5.972   7.326  1.0660  2.1428  0.1758
   25SAPC   H7Y 3354   3.666   6.048   7.372 -1.2853  1.0360 -0.3316
   25SAPC   C38 3355   3.656   5.842   7.439  0.7326  0.2638 -0.8657
   25SAPC   H8X 3356   3.766   5.839   7.428  0.7001 -0.1286 -1.0843
   25SAPC   H8Y 3357   3.611   5.747   7.404 -0.6954  1.5471 -2.6856
   25SAPC   C39 3358   3.609   5.873   7.581  0.2167 -0.0930 -0.2911
   25SAPC   H9X 3359   3.606   5.784   7.648 -1.3750 -0.7712 -1.2167
   25SAPC   H9Y 3360   3.502   5.904   7.581  0.1892 -0.1651 -1.1474
   25SAPC  C310 3361   3.698   5.975   7.653 -0.2165 -0.1808 -0.1190
   25SAPC  H10X 3362   3.682   6.074   7.605  1.2336 -0.7171 -1.7394
   25SAPC  H10Y 3363   3.805   5.957   7.629  0.7185  1.7097  2.3753
   25SAPC  C311 3364   3.669   5.992   7.803  0.2082  0.7601  0.2164
   25SAPC  H11X 3365   3.686   5.892   7.849 -0.0522  0.8699  0.5627
   25SAPC  H11Y 3366   3.567   6.025   7.836  1.1591  2.6853  1.3204
   25SAPC  C312 3367   3.750   6.101   7.862 -0.1075 -0.2429 -0.8997
   25SAPC  H12X 3368   3.725   6.202   7.824  0.0686  0.1075 -0.0783
   25SAPC  H12Y 3369   3.853   6.090   7.822 -0.3817  1.5019 -2.1372
   25SAPC  C313 3370   3.737   6.105   8.022  0.3338  2.0435  0.2904
   25SAPC  H13X 3371   3.757   6.005   8.067 -2.3824  0.5815 -1.6426
   25SAPC  H13Y 3372   3.631   6.128   8.045 -0.2518  1.6199 -1.8534
   25SAPC  C314 3373   3.831   6.202   8.090 -0.3573  0.8219  0.3779
   25SAPC  H14X 3374   3.824   6.287   8.018 -0.4645 -0.3898 -1.0716
   25SAPC  H14Y 3375   3.939   6.175   8.086 -0.3726  0.5528  1.5415
   25SAPC  C315 3376   3.785   6.243   8.219 -0.5086 -0.5885 -0.1584
   25SAPC  H15X 3377   3.767   6.150   8.277 -0.4194  0.2074  1.1820
   25SAPC  H15Y 3378   3.692   6.303   8.208  0.6923  1.7137  1.7411
   25SAPC  C316 3379   3.884   6.327   8.294 -0.1057  1.1025  0.5587
   25SAPC  H16X 3380   3.906   6.407   8.220  0.3018  0.1154 -0.3997
   25SAPC  H16Y 3381   3.976   6.266   8.304 -0.5065  0.5916  1.1640
   25SAPC  C317 3382   3.824   6.376   8.417  0.0905  0.8608  0.1730
   25SAPC  H17X 3383   3.803   6.292   8.487  2.1673  1.2826  1.3238
   25SAPC  H17Y 3384   3.727   6.428   8.400 -0.4838 -0.1882  0.1574
   25SAPC  C318 3385   3.918   6.479   8.492  0.8812  0.2395 -0.4408
   25SAPC  H18X 3386   3.939   6.571   8.434  1.0104  1.1197  0.9568
   25SAPC  H18Y 3387   4.010   6.429   8.529 -0.4540 -1.2715  0.9257
   25SAPC  H18Z 3388   3.862   6.518   8.581  0.4259  3.2453 -1.9943
   26SAPC     N 3389   2.432   0.969   6.545 -0.0626  0.6132  0.5505
   26SAPC   C12 3390   2.429   1.117   6.568  0.1328  0.3040  0.7859
   26SAPC  H12A 3391   2.526   1.141   6.608 -0.8544  1.4135  2.6227
   26SAPC  H12B 3392   2.359   1.137   6.649 -0.8473  0.5970 -0.1224
   26SAPC   C13 3393   2.567   0.929   6.488  0.1131 -0.4863 -0.3850
   26SAPC  H13A 3394   2.572   0.825   6.457 -2.4641 -0.0191 -2.5238
   26SAPC  H13B 3395   2.567   0.990   6.399  0.6995  2.8097  1.7901
   26SAPC  H13C 3396   2.652   0.954   6.549 -2.2342  0.5095  2.6069
   26SAPC   C14 3397   2.428   0.899   6.675  0.1621  0.2446  0.3654
   26SAPC  H14A 3398   2.445   0.794   6.653 -2.8245 -0.1833 -0.1633
   26SAPC  H14B 3399   2.495   0.940   6.749  2.4408 -2.3923 -0.1437
   26SAPC  H14C 3400   2.330   0.915   6.718 -0.3093 -0.4750 -0.4222
   26SAPC   C15 3401   2.320   0.926   6.457  1.2613 -0.7375  0.2572
   26SAPC  H15A 3402   2.310   0.818   6.454  3.3216 -0.9029 -2.2437
   26SAPC  H15B 3403   2.224   0.966   6.488 -0.1485 -0.6995 -3.7669
   26SAPC  H15C 3404   2.336   0.973   6.361 -2.6237  0.8002  0.2615
   26SAPC   C11 3405   2.413   1.212   6.446 -0.2723 -0.7282 -0.0780
   26SAPC  H11A 3406   2.411   1.313   6.492  1.0166 -1.8548  2.5385
   26SAPC  H11B 3407   2.314   1.203   6.397 -1.0421 -0.2577  1.3747
   26SAPC     P 3408   2.641   1.280   6.320  0.5202  0.0557 -0.3508
   26SAPC   O13 3409   2.721   1.213   6.214 -0.1261 -0.3207 -0.3910
   26SAPC   O14 3410   2.620   1.423   6.302 -0.3104 -0.6407 -0.1582
   26SAPC   O12 3411   2.512   1.195   6.341 -0.9064 -0.7817 -0.6586
   26SAPC   O11 3412   2.720   1.240   6.449 -0.3650  0.2262  0.1139
   26SAPC    C1 3413   2.857   1.273   6.468  0.3375 -0.0549  0.2107
   26SAPC    HA 3414   2.905   1.304   6.372  0.2581 -0.2179  0.1175
   26SAPC    HB 3415   2.871   1.369   6.521  0.4148  1.6341 -2.7196
   26SAPC    C2 3416   2.925   1.160   6.544 -0.2354 -0.6316  0.0896
   26SAPC    HS 3417   2.906   1.071   6.481  0.0385 -1.7609  1.5897
   26SAPC   O21 3418   2.860   1.143   6.672  0.3797 -0.9640  0.1036
   26SAPC   C21 3419   2.904   1.044   6.745  0.2803  0.3588  0.2243
   26SAPC   O22 3420   2.970   0.948   6.708  0.1692 -0.2063 -0.3964
   26SAPC   C22 3421   2.854   1.055   6.888  0.2153  0.1625 -0.3035
   26SAPC   H2R 3422   2.834   1.162   6.912 -4.0459 -0.1222 -2.0108
   26SAPC   H2S 3423   2.752   1.010   6.896  1.5710 -3.0197 -0.2446
   26SAPC    C3 3424   3.077   1.195   6.564 -0.0260  0.5248 -0.3557
   26SAPC    HX 3425   3.128   1.202   6.466 -0.2685  1.7096 -0.4018
   26SAPC    HY 3426   3.130   1.106   6.605 -1.1550 -0.5562 -1.1849
   26SAPC   O31 3427   3.096   1.324   6.623  0.2666  0.0844  0.0254
   26SAPC   C31 3428   3.110   1.335   6.750 -0.0313 -0.3842 -0.3623
   26SAPC   O32 3429   3.116   1.240   6.825 -0.7531 -0.0475 -0.2180
   26SAPC   C32 3430   3.149   1.481   6.775 -0.2755 -0.4313 -0.4541
   26SAPC   H2X 3431   3.140   1.544   6.684  1.1533  0.9264  0.3279
   26SAPC   H2Y 3432   3.256   1.490   6.801  0.0602 -1.7450 -1.3479
   26SAPC   C23 3433   2.953   0.999   6.991  0.3259  0.0775  0.2952
   26SAPC   H3R 3434   3.043   1.063   6.981  0.1557  0.1494 -0.8713
   26SAPC   H3S 3435   2.967   0.892   6.965  0.3746  0.4870 -1.4206
   26SAPC   C24 3436   2.906   1.001   7.143 -0.8536  0.0275 -0.3956
   26SAPC   H4R 3437   2.972   0.935   7.204 -2.3704 -2.8331 -1.7088
   26SAPC   H4S 3438   2.805   0.954   7.149 -0.8359 -0.0566 -0.7029
   26SAPC   C25 3439   2.905   1.137   7.193 -0.3381  0.2244  0.4587
   26SAPC   H5R 3440   2.897   1.217   7.118 -0.5305 -0.4781 -0.2700
   26SAPC   C26 3441   2.905   1.172   7.326 -0.7473  0.3089 -0.2047
   26SAPC   H6R 3442   2.902   1.279   7.353  0.7548 -0.1192  1.7598
   26SAPC   C27 3443   2.905   1.078   7.449  1.1103  0.1923 -0.2760
   26SAPC   H7R 3444   3.010   1.072   7.485  0.6063 -2.1843  0.8728
   26SAPC   H7S 3445   2.869   0.978   7.417 -0.0707  0.7557 -0.7447
   26SAPC   C28 3446   2.823   1.130   7.566 -0.2095 -0.2063 -0.1118
   26SAPC   H8R 3447   2.772   1.226   7.554  0.9271  0.7469  2.2412
   26SAPC   C29 3448   2.820   1.075   7.688  0.4550 -0.4307  0.3860
   26SAPC   H9R 3449   2.768   1.126   7.770  0.9286  0.4483  0.1504
   26SAPC  C210 3450   2.861   0.940   7.728  0.1876  0.7044  0.3773
   26SAPC  H10R 3451   2.886   0.882   7.637  0.2553 -0.5742  1.1842
   26SAPC  H10S 3452   2.770   0.886   7.764  1.3438 -1.9675 -0.6038
   26SAPC  C211 3453   2.968   0.938   7.836  0.9280  0.2291 -0.2880
   26SAPC  H11R 3454   3.064   0.985   7.809  2.0058 -1.8051 -0.1153
   26SAPC  C212 3455   2.940   0.910   7.967 -0.1987 -0.8960  0.3931
   26SAPC  H12R 3456   3.026   0.916   8.036 -0.1868 -0.5573  0.3466
   26SAPC  C213 3457   2.802   0.863   8.013 -0.5430 -0.8397  0.2418
   26SAPC  H13R 3458   2.760   0.787   7.944 -0.5896 -2.2163  1.7442
   26SAPC  H13S 3459   2.742   0.955   7.995  1.4125  0.2872 -0.6767
   26SAPC  C214 3460   2.787   0.808   8.151 -0.0521 -0.5617 -0.0085
   26SAPC  H14R 3461   2.776   0.699   8.157 -0.9954 -0.3951  1.8500
   26SAPC  C215 3462   2.802   0.867   8.268 -0.8296 -0.4884 -0.2394
   26SAPC  H15R 3463   2.826   0.811   8.360  2.2976  0.2604 -0.5341
   26SAPC  C216 3464   2.828   1.016   8.287  0.0620 -0.1869 -0.8807
   26SAPC  H16R 3465   2.871   1.056   8.193 -0.2984 -0.3756 -1.1249
   26SAPC  H16S 3466   2.908   1.034   8.362 -0.9416  4.0081 -0.7203
   26SAPC  C217 3467   2.697   1.067   8.336 -0.8899 -1.1007  0.1971
   26SAPC  H17R 3468   2.673   1.035   8.440  1.4749 -1.3056  0.7060
   26SAPC  H17S 3469   2.616   1.041   8.265 -1.7170  0.0289  0.7145
   26SAPC  C218 3470   2.706   1.221   8.334  0.3137  0.5985  0.1309
   26SAPC  H18R 3471   2.724   1.253   8.229  1.3482 -0.6285 -0.0833
   26SAPC  H18S 3472   2.797   1.262   8.383  1.1878 -0.2033 -0.8023
   26SAPC  C219 3473   2.581   1.271   8.413 -0.3802  0.5451 -0.1542
   26SAPC  H19R 3474   2.592   1.227   8.514  1.2318 -0.0921 -0.5828
   26SAPC  H19S 3475   2.493   1.230   8.360 -0.4313 -0.6048  0.8033
   26SAPC  C220 3476   2.575   1.426   8.430  0.3417  0.0957  0.4673
   26SAPC  H20R 3477   2.486   1.445   8.493 -0.4926  3.0515 -1.4892
   26SAPC  H20S 3478   2.561   1.489   8.339  0.5899  0.0139  0.3711
   26SAPC  H20T 3479   2.663   1.466   8.485 -0.3751  1.3721  0.6929
   26SAPC   C33 3480   3.063   1.546   6.888 -0.1374 -0.2993  0.9371
   26SAPC   H3X 3481   2.955   1.525   6.875 -0.2648 -0.2008  1.8157
   26SAPC   H3Y 3482   3.088   1.654   6.880  1.8633 -0.6055  2.5086
   26SAPC   C34 3483   3.097   1.501   7.032  0.4606 -0.7461 -0.0576
   26SAPC   H4X 3484   3.203   1.533   7.047  0.0789  1.6644 -2.2043
   26SAPC   H4Y 3485   3.097   1.390   7.041 -1.0347 -0.8358 -0.9960
   26SAPC   C35 3486   3.007   1.569   7.135  0.4927 -0.0722 -0.5289
   26SAPC   H5X 3487   2.900   1.547   7.120 -0.2471  1.2616  2.5248
   26SAPC   H5Y 3488   3.014   1.680   7.140  0.0811 -0.1488  3.3457
   26SAPC   C36 3489   3.037   1.510   7.270 -0.3216 -0.4358  0.1803
   26SAPC   H6X 3490   3.129   1.567   7.297  0.6469 -1.3305 -1.1273
   26SAPC   H6Y 3491   3.063   1.401   7.265 -0.0058 -0.2857 -2.0551
   26SAPC   C37 3492   2.931   1.549   7.381 -0.0267  0.5983  0.2857
   26SAPC   H7X 3493   2.843   1.481   7.370  1.7087 -1.2506 -2.8778
   26SAPC   H7Y 3494   2.913   1.658   7.369 -0.5129  0.2121 -3.0979
   26SAPC   C38 3495   2.998   1.509   7.511  0.5632 -0.0634  0.2688
   26SAPC   H8X 3496   3.080   1.582   7.529  2.5958 -2.5543  1.4938
   26SAPC   H8Y 3497   3.060   1.416   7.507 -3.7704 -3.0323 -1.4540
   26SAPC   C39 3498   2.911   1.513   7.636  0.1328  0.0752 -0.1890
   26SAPC   H9X 3499   2.830   1.439   7.617  0.7285 -0.7459  0.4581
   26SAPC   H9Y 3500   2.873   1.616   7.652  1.1236  0.2701  0.9803
   26SAPC  C310 3501   2.978   1.454   7.756 -0.1438 -0.2317 -0.2009
   26SAPC  H10X 3502   3.077   1.502   7.771  0.7300 -2.1808  0.3496
   26SAPC  H10Y 3503   3.007   1.355   7.717  1.2423 -0.5734  1.6371
   26SAPC  C311 3504   2.889   1.461   7.883  0.7549  0.2706  0.1192
   26SAPC  H11X 3505   2.799   1.398   7.867  0.9164  0.2461 -0.7052
   26SAPC  H11Y 3506   2.856   1.566   7.887 -1.6481 -0.4740  0.3322
   26SAPC  C312 3507   2.954   1.433   8.019 -0.5069  1.4299  0.2575
   26SAPC  H12X 3508   3.058   1.471   8.014  0.8485 -1.8912  1.6475
   26SAPC  H12Y 3509   2.962   1.325   8.042  1.4080  1.6328  0.6658
   26SAPC  C313 3510   2.906   1.519   8.137  0.2763 -0.6695 -0.6669
   26SAPC  H13X 3511   2.815   1.475   8.185  1.0652  0.2456  1.7156
   26SAPC  H13Y 3512   2.886   1.620   8.097  0.8674 -1.1575 -2.2241
   26SAPC  C314 3513   3.013   1.537   8.244  0.3264 -0.1126 -0.1685
   26SAPC  H14X 3514   3.095   1.588   8.189  0.5432  0.0396  0.2912
   26SAPC  H14Y 3515   3.049   1.440   8.285 -0.4277 -0.2690  0.1214
   26SAPC  C315 3516   2.978   1.615   8.367  0.0330  0.2630  0.1799
   26SAPC  H15X 3517   2.891   1.574   8.423 -0.0579  1.1924  0.7461
   26SAPC  H15Y 3518   2.954   1.716   8.327  3.2481  0.4578 -1.4070
   26SAPC  C316 3519   3.099   1.625   8.462  0.6689  0.1585 -0.3954
   26SAPC  H16X 3520   3.161   1.707   8.419  1.1290 -0.9630 -1.9484
   26SAPC  H16Y 3521   3.155   1.530   8.467 -0.8439 -0.6332  2.9817
   26SAPC  C317 3522   3.058   1.666   8.601  0.2675 -0.1307  0.4581
   26SAPC  H17X 3523   3.000   1.589   8.656 -0.9079 -0.2331 -0.9237
   26SAPC  H17Y 3524   3.002   1.761   8.594  0.0767 -0.3804 -1.5503
   26SAPC  C318 3525   3.185   1.683   8.683 -0.4139  0.3061 -0.0020
   26SAPC  H18X 3526   3.199   1.785   8.722 -1.0939 -0.1715  1.5214
   26SAPC  H18Y 3527   3.269   1.657   8.615 -0.7597  1.6614 -0.9440
   26SAPC  H18Z 3528   3.193   1.609   8.766  0.7518  0.9006  0.4348
   27SAPC     N 3529   0.383   1.937   6.678 -0.6173 -0.2924  0.3514
   27SAPC   C12 3530   0.484   2.030   6.750 -0.2733 -0.0139 -0.0827
   27SAPC  H12A 3531   0.449   2.042   6.851 -0.3305  0.5410 -0.1682
   27SAPC  H12B 3532   0.483   2.126   6.701 -1.3686  1.0672  2.0137
   27SAPC   C13 3533   0.415   1.939   6.532 -0.2374 -0.3441 -0.1549
   27SAPC  H13A 3534   0.359   1.866   6.475 -1.3412  0.0807  0.3672
   27SAPC  H13B 3535   0.400   2.035   6.486  1.0751 -0.1628 -0.2074
   27SAPC  H13C 3536   0.519   1.922   6.511  0.2523  0.0883  1.8246
   27SAPC   C14 3537   0.381   1.799   6.741 -1.2429  0.0057  0.6077
   27SAPC  H14A 3538   0.473   1.741   6.739 -1.4007 -0.2967  1.8830
   27SAPC  H14B 3539   0.349   1.801   6.844  1.2670 -0.9341  1.4573
   27SAPC  H14C 3540   0.309   1.729   6.700 -1.1096 -1.2787  2.4582
   27SAPC   C15 3541   0.241   1.985   6.685  0.2869  0.3769 -0.4143
   27SAPC  H15A 3542   0.216   2.023   6.784  1.2753 -3.3502  1.3491
   27SAPC  H15B 3543   0.236   2.072   6.620 -0.9448 -1.7375 -3.2378
   27SAPC  H15C 3544   0.171   1.914   6.645 -0.1936 -0.2850  1.5358
   27SAPC   C11 3545   0.637   1.992   6.736 -0.4818  0.0380 -0.0316
   27SAPC  H11A 3546   0.713   2.072   6.749  1.9650 -2.6304  2.6732
   27SAPC  H11B 3547   0.658   1.951   6.635  1.0704 -0.5425  0.5247
   27SAPC     P 3548   0.701   1.901   6.969  0.0386  0.5062  0.0493
   27SAPC   O13 3549   0.838   1.852   7.000  0.4489  0.3953 -0.1548
   27SAPC   O14 3550   0.662   2.043   7.002 -0.0273 -0.7371  0.6368
   27SAPC   O12 3551   0.676   1.882   6.815 -0.1180 -0.0792 -1.0250
   27SAPC   O11 3552   0.597   1.803   7.029  0.4660  0.7184  0.8432
   27SAPC    C1 3553   0.592   1.662   7.018  0.3579 -0.9891  0.1969
   27SAPC    HA 3554   0.499   1.629   6.966  1.6754 -0.6654 -2.4169
   27SAPC    HB 3555   0.676   1.628   6.954 -0.6519 -1.2846 -0.9978
   27SAPC    C2 3556   0.585   1.591   7.159  0.0648 -0.5723  0.4182
   27SAPC    HS 3557   0.565   1.484   7.135 -1.4298 -0.3584  0.6128
   27SAPC   O21 3558   0.462   1.640   7.214  0.3768 -0.7793  0.4640
   27SAPC   C21 3559   0.407   1.560   7.298 -0.1527 -0.3050 -0.0259
   27SAPC   O22 3560   0.426   1.440   7.308  0.6222  0.5176  0.4277
   27SAPC   C22 3561   0.299   1.642   7.375  0.0745  0.2633  0.0927
   27SAPC   H2R 3562   0.236   1.696   7.302  0.7540  2.9801  1.4653
   27SAPC   H2S 3563   0.229   1.570   7.422  1.5573 -0.5058  1.1695
   27SAPC    C3 3564   0.703   1.610   7.244 -0.0151  0.2348 -0.0287
   27SAPC    HX 3565   0.699   1.719   7.263  2.9000  0.5744 -1.0586
   27SAPC    HY 3566   0.796   1.594   7.185 -0.3086  0.1696 -0.4707
   27SAPC   O31 3567   0.686   1.541   7.370 -0.1298 -0.5524  1.0192
   27SAPC   C31 3568   0.738   1.414   7.360 -0.2537  0.3954  0.5981
   27SAPC   O32 3569   0.782   1.356   7.261 -0.2284  0.2651 -0.2805
   27SAPC   C32 3570   0.736   1.346   7.492 -0.5684 -0.6403 -0.2752
   27SAPC   H2X 3571   0.814   1.266   7.494  0.4439  0.3432  1.3157
   27SAPC   H2Y 3572   0.640   1.292   7.500  0.8918 -3.1033  1.3630
   27SAPC   C23 3573   0.355   1.741   7.469 -0.7018 -0.4081  0.0269
   27SAPC   H3R 3574   0.278   1.796   7.527  0.7333 -1.3161  2.8791
   27SAPC   H3S 3575   0.414   1.816   7.412 -1.0156  0.2761  0.5885
   27SAPC   C24 3576   0.448   1.688   7.587 -0.4147 -0.1582  0.0133
   27SAPC   H4R 3577   0.483   1.776   7.645  1.6800 -0.5325 -0.6610
   27SAPC   H4S 3578   0.538   1.647   7.537 -1.8354 -2.9695 -0.3492
   27SAPC   C25 3579   0.395   1.569   7.656  0.9557  0.0421 -0.1939
   27SAPC   H5R 3580   0.334   1.499   7.597  0.8610  1.3098 -1.6303
   27SAPC   C26 3581   0.413   1.534   7.788  0.3655  0.0010 -0.0661
   27SAPC   H6R 3582   0.376   1.436   7.823  0.1904  0.1170  0.0764
   27SAPC   C27 3583   0.495   1.615   7.892  0.3774  0.1631  0.7574
   27SAPC   H7R 3584   0.539   1.710   7.855  0.2127 -0.7802 -1.9121
   27SAPC   H7S 3585   0.581   1.556   7.930  3.0482  2.4954 -1.4704
   27SAPC   C28 3586   0.394   1.642   8.003  0.0211  0.3751  0.3086
   27SAPC   H8R 3587   0.333   1.733   7.991  0.0039  0.5866  1.8166
   27SAPC   C29 3588   0.383   1.576   8.113 -0.0128  0.7449  1.2715
   27SAPC   H9R 3589   0.306   1.605   8.186 -2.6667  1.0549 -1.5187
   27SAPC  C210 3590   0.459   1.453   8.156 -0.1710  0.0126 -0.3961
   27SAPC  H10R 3591   0.553   1.482   8.206 -1.3261  0.4076  1.6094
   27SAPC  H10S 3592   0.491   1.404   8.061 -2.6975 -1.1703 -0.6907
   27SAPC  C211 3593   0.370   1.356   8.233  0.0289 -0.8154 -0.3131
   27SAPC  H11R 3594   0.316   1.288   8.165  0.5138 -0.9742 -0.5385
   27SAPC  C212 3595   0.348   1.347   8.369 -0.4797  0.2554 -0.3066
   27SAPC  H12R 3596   0.282   1.268   8.411  1.0550 -0.1777  1.3350
   27SAPC  C213 3597   0.408   1.438   8.467 -0.0261 -0.1275 -0.0359
   27SAPC  H13R 3598   0.448   1.532   8.422  0.1914  0.0194  0.4606
   27SAPC  H13S 3599   0.495   1.392   8.518 -0.5215 -0.6960  0.2903
   27SAPC  C214 3600   0.297   1.474   8.566 -0.2073 -0.3416  0.5733
   27SAPC  H14R 3601   0.223   1.543   8.524  0.9497  0.5476 -0.0607
   27SAPC  C215 3602   0.302   1.448   8.698  0.2952  0.8499 -0.1446
   27SAPC  H15R 3603   0.225   1.497   8.759 -0.0882  0.0948 -0.0257
   27SAPC  C216 3604   0.412   1.372   8.769 -0.1955  0.4908  0.4126
   27SAPC  H16R 3605   0.399   1.395   8.877  0.7532  1.2889  0.3681
   27SAPC  H16S 3606   0.516   1.397   8.739  1.8028 -4.3094  2.8042
   27SAPC  C217 3607   0.404   1.219   8.743  0.1834  0.8329 -1.1745
   27SAPC  H17R 3608   0.418   1.198   8.635 -0.9337  3.4004 -1.8633
   27SAPC  H17S 3609   0.304   1.180   8.775  0.3330  1.8123  0.5731
   27SAPC  C218 3610   0.505   1.139   8.821  0.5537  0.2723 -0.5500
   27SAPC  H18R 3611   0.604   1.165   8.779 -0.5612  1.4407 -2.5259
   27SAPC  H18S 3612   0.475   1.037   8.789 -0.4843  0.5513 -0.4747
   27SAPC  C219 3613   0.510   1.163   8.969  0.3806  0.9103 -0.6591
   27SAPC  H19R 3614   0.529   1.272   8.980  0.5511  0.6364  2.1165
   27SAPC  H19S 3615   0.585   1.106   9.026 -2.2822  0.4340  2.5081
   27SAPC  C220 3616   0.383   1.130   9.046 -0.2195 -0.1607 -0.1295
   27SAPC  H20R 3617   0.343   1.032   9.013  1.2438 -1.3610  1.5999
   27SAPC  H20S 3618   0.309   1.211   9.028 -2.4895 -2.2488 -0.4943
   27SAPC  H20T 3619   0.398   1.124   9.156 -1.6433  3.0183  0.2963
   27SAPC   C33 3620   0.755   1.432   7.614  1.3751 -0.7605  0.3682
   27SAPC   H3X 3621   0.668   1.497   7.637  1.7394  0.0515 -0.4641
   27SAPC   H3Y 3622   0.854   1.482   7.606  1.1886 -0.0802  2.0903
   27SAPC   C34 3623   0.773   1.342   7.741  0.5331 -0.3842 -0.0596
   27SAPC   H4X 3624   0.852   1.265   7.726  1.2552  0.5185 -0.9203
   27SAPC   H4Y 3625   0.676   1.302   7.778  1.0935 -0.4153  1.3959
   27SAPC   C35 3626   0.822   1.426   7.866  0.1620  0.0175 -0.2737
   27SAPC   H5X 3627   0.755   1.513   7.885  2.1349  1.2857  1.1264
   27SAPC   H5Y 3628   0.920   1.475   7.853 -0.1823  0.6508 -0.5319
   27SAPC   C36 3629   0.825   1.347   7.994 -0.3180 -0.4161 -0.3771
   27SAPC   H6X 3630   0.917   1.285   7.984 -1.4473 -1.7341 -3.2506
   27SAPC   H6Y 3631   0.744   1.271   8.000 -3.0064  2.4834  1.2773
   27SAPC   C37 3632   0.832   1.426   8.128 -0.5048 -0.4050  0.2137
   27SAPC   H7X 3633   0.751   1.501   8.128  0.2182  0.4029  1.8291
   27SAPC   H7Y 3634   0.930   1.479   8.130 -0.4281 -0.5485  0.3180
   27SAPC   C38 3635   0.819   1.332   8.248 -0.6612 -0.5901 -0.2555
   27SAPC   H8X 3636   0.720   1.282   8.244 -0.5149 -0.9580  0.6403
   27SAPC   H8Y 3637   0.827   1.393   8.341 -1.6884 -2.5496  1.1548
   27SAPC   C39 3638   0.934   1.226   8.258  0.0051 -0.0045 -0.1109
   27SAPC   H9X 3639   1.008   1.248   8.178 -0.0341  1.1314  0.1617
   27SAPC   H9Y 3640   0.896   1.124   8.233  1.4618 -0.7790  0.8123
   27SAPC  C310 3641   0.991   1.211   8.402 -0.7477 -0.0077  0.4070
   27SAPC  H10X 3642   0.923   1.143   8.458 -2.4052 -1.0013 -2.7246
   27SAPC  H10Y 3643   0.990   1.313   8.447 -1.1632  0.2149 -0.0997
   27SAPC  C311 3644   1.134   1.150   8.403 -0.5232  0.1197  0.4116
   27SAPC  H11X 3645   1.209   1.203   8.341 -1.9930 -1.1606 -2.5825
   27SAPC  H11Y 3646   1.144   1.050   8.355  1.1024 -0.9684  2.8931
   27SAPC  C312 3647   1.187   1.136   8.547 -0.0085  0.4364 -0.0363
   27SAPC  H12X 3648   1.274   1.070   8.532  0.4747  0.1338  3.5775
   27SAPC  H12Y 3649   1.118   1.078   8.611  2.3833 -2.0231  0.3899
   27SAPC  C313 3650   1.216   1.273   8.605 -0.5625  0.5534  0.4027
   27SAPC  H13X 3651   1.124   1.335   8.600 -0.1781  1.0983  0.0550
   27SAPC  H13Y 3652   1.293   1.319   8.539 -0.8594 -0.0871 -0.3929
   27SAPC  C314 3653   1.275   1.276   8.748  0.1551 -0.1956 -0.8694
   27SAPC  H14X 3654   1.212   1.219   8.820 -0.6343  1.7684  0.0102
   27SAPC  H14Y 3655   1.270   1.381   8.784  2.8060 -0.9051  1.7422
   27SAPC  C315 3656   1.419   1.214   8.748  0.9405 -0.4078 -0.1345
   27SAPC  H15X 3657   1.482   1.280   8.685  0.3547  0.3335  0.0412
   27SAPC  H15Y 3658   1.418   1.117   8.693  0.2086 -0.2995 -0.3178
   27SAPC  C316 3659   1.483   1.192   8.889  0.3736  0.3843 -0.8100
   27SAPC  H16X 3660   1.404   1.140   8.948  0.3498 -1.9471 -2.7849
   27SAPC  H16Y 3661   1.490   1.297   8.924  1.7361  0.1470 -0.3732
   27SAPC  C317 3662   1.619   1.120   8.881  0.4304 -0.6212 -0.7053
   27SAPC  H17X 3663   1.683   1.152   8.966 -2.8027 -0.3981  1.7343
   27SAPC  H17Y 3664   1.659   1.149   8.781 -2.3422 -1.2355 -2.0466
   27SAPC  C318 3665   1.604   0.970   8.883  0.2229  0.0219  0.1913
   27SAPC  H18X 3666   1.564   0.938   8.981  0.3499  1.1095  0.6057
   27SAPC  H18Y 3667   1.701   0.923   8.855 -0.1234  0.3666 -1.6396
   27SAPC  H18Z 3668   1.522   0.938   8.815 -0.9980  1.2509  1.0688
   28SAPC     N 3669   6.530   5.055   6.405 -0.0891  0.0813  0.8372
   28SAPC   C12 3670   6.430   5.150   6.343  0.5833 -0.5717  0.8461
   28SAPC  H12A 3671   6.406   5.231   6.411  2.0403  0.6852 -0.1069
   28SAPC  H12B 3672   6.338   5.095   6.335  1.5317 -1.8888 -1.7423
   28SAPC   C13 3673   6.664   5.121   6.424 -0.1452 -0.3401  0.1100
   28SAPC  H13A 3674   6.702   5.129   6.323  0.0403 -2.4573 -0.0259
   28SAPC  H13B 3675   6.654   5.217   6.472 -0.7825 -1.0705  1.4764
   28SAPC  H13C 3676   6.743   5.061   6.466 -0.4253  0.1415  1.3532
   28SAPC   C14 3677   6.482   4.996   6.534 -0.1287 -0.2542 -0.1038
   28SAPC  H14A 3678   6.384   4.957   6.512  0.5501 -0.6308 -2.6843
   28SAPC  H14B 3679   6.548   4.918   6.569  2.5379  1.9971  0.1337
   28SAPC  H14C 3680   6.467   5.066   6.615  1.0423  1.8671 -1.6698
   28SAPC   C15 3681   6.558   4.945   6.311 -0.0125  0.0807 -0.2063
   28SAPC  H15A 3682   6.615   4.978   6.225 -0.1617  0.4513 -0.1615
   28SAPC  H15B 3683   6.609   4.868   6.367  2.7594  3.8008  2.6918
   28SAPC  H15C 3684   6.462   4.926   6.264  0.6600 -1.3305 -1.0671
   28SAPC   C11 3685   6.463   5.208   6.216 -0.1537  0.3720  0.7524
   28SAPC  H11A 3686   6.370   5.253   6.176  0.2118  0.8358  0.4040
   28SAPC  H11B 3687   6.499   5.133   6.143 -0.9297  1.8546 -1.1981
   28SAPC     P 3688   6.531   5.453   6.294 -0.4571 -0.0656 -0.0878
   28SAPC   O13 3689   6.660   5.522   6.289 -0.0956 -0.2944  0.4807
   28SAPC   O14 3690   6.414   5.519   6.227 -0.3029 -0.1847 -0.2013
   28SAPC   O12 3691   6.558   5.311   6.227 -0.2130 -0.0590 -0.9461
   28SAPC   O11 3692   6.486   5.420   6.441  0.7919  0.4720  0.1426
   28SAPC    C1 3693   6.526   5.497   6.554  0.7168 -1.0164 -0.1577
   28SAPC    HA 3694   6.635   5.519   6.552  0.2833  1.3210  0.8766
   28SAPC    HB 3695   6.465   5.589   6.563 -1.2157 -1.9850 -2.7050
   28SAPC    C2 3696   6.500   5.406   6.678 -0.5935 -0.2891  0.0932
   28SAPC    HS 3697   6.549   5.308   6.663 -0.4318 -0.3694  1.0724
   28SAPC   O21 3698   6.357   5.394   6.705 -0.2509  0.0592  0.0977
   28SAPC   C21 3699   6.327   5.284   6.772 -0.3510 -0.0696  1.0917
   28SAPC   O22 3700   6.398   5.185   6.794 -0.0212 -0.2887  0.2966
   28SAPC   C22 3701   6.185   5.296   6.813  0.0594 -0.5153 -1.0099
   28SAPC   H2R 3702   6.152   5.394   6.852 -1.4152 -1.3885  0.0035
   28SAPC   H2S 3703   6.126   5.274   6.722 -0.6820 -0.7245 -0.4839
   28SAPC    C3 3704   6.563   5.483   6.806  0.3713  0.0430 -0.2498
   28SAPC    HX 3705   6.516   5.582   6.825 -0.5259 -0.7133  1.5299
   28SAPC    HY 3706   6.667   5.510   6.778  1.1017  1.1253  3.2358
   28SAPC   O31 3707   6.552   5.407   6.929 -0.3182 -1.0618 -0.0442
   28SAPC   C31 3708   6.632   5.306   6.952 -0.8039  0.5069 -0.0992
   28SAPC   O32 3709   6.718   5.255   6.881 -0.1028  0.2983  0.7265
   28SAPC   C32 3710   6.607   5.248   7.096 -0.3032  0.2710  0.5211
   28SAPC   H2X 3711   6.595   5.335   7.165 -3.8003 -1.1487  1.7889
   28SAPC   H2Y 3712   6.704   5.199   7.120 -0.9850 -0.9896  0.7194
   28SAPC   C23 3713   6.150   5.193   6.923  0.1357  0.5242 -0.2544
   28SAPC   H3R 3714   6.216   5.214   7.009 -1.3695 -1.4955  1.4506
   28SAPC   H3S 3715   6.173   5.090   6.889  0.1115  0.0629  1.1135
   28SAPC   C24 3716   6.002   5.196   6.971  0.0653  0.9726 -0.0150
   28SAPC   H4R 3717   5.958   5.297   6.981 -1.1669  0.6419 -1.9280
   28SAPC   H4S 3718   5.949   5.140   6.891  0.7557 -0.2830  0.3924
   28SAPC   C25 3719   5.984   5.129   7.107  0.3191 -0.4645 -0.2234
   28SAPC   H5R 3720   6.053   5.152   7.190  0.3078 -1.6598  0.1271
   28SAPC   C26 3721   5.880   5.047   7.137  0.4095  0.4627  0.2135
   28SAPC   H6R 3722   5.865   5.011   7.240 -1.8920 -0.3181 -0.3610
   28SAPC   C27 3723   5.762   5.009   7.046 -0.2314  0.2120 -0.0634
   28SAPC   H7R 3724   5.742   5.083   6.965 -1.3158 -0.9466 -0.8756
   28SAPC   H7S 3725   5.682   5.009   7.123 -0.4987 -1.6638 -0.3316
   28SAPC   C28 3726   5.758   4.870   6.990  0.0797  0.4679 -0.1077
   28SAPC   H8R 3727   5.766   4.870   6.880 -0.5567  0.7035 -0.1559
   28SAPC   C29 3728   5.739   4.748   7.051 -0.0593 -0.5395  0.1646
   28SAPC   H9R 3729   5.726   4.668   6.976 -3.1321  0.1124 -0.0842
   28SAPC  C210 3730   5.715   4.708   7.195 -0.4508 -0.8355 -0.1684
   28SAPC  H10R 3731   5.718   4.805   7.250 -2.3207 -0.6950 -0.2960
   28SAPC  H10S 3732   5.795   4.642   7.234  0.2122 -0.5892 -1.0940
   28SAPC  C211 3733   5.580   4.646   7.220 -0.0133 -0.0782  0.0292
   28SAPC  H11R 3734   5.501   4.675   7.150 -0.2131  0.3321  0.4168
   28SAPC  C212 3735   5.552   4.563   7.322 -0.6994  0.1651 -0.0546
   28SAPC  H12R 3736   5.447   4.533   7.335 -0.9254  1.2864  0.8036
   28SAPC  C213 3737   5.650   4.513   7.419 -0.2697 -0.3178 -0.1659
   28SAPC  H13R 3738   5.653   4.570   7.514  4.3269 -0.3801 -0.1499
   28SAPC  H13S 3739   5.754   4.522   7.381 -0.4031  1.0326 -0.2216
   28SAPC  C214 3740   5.639   4.368   7.456 -0.0903 -0.3197  0.3229
   28SAPC  H14R 3741   5.714   4.313   7.398 -0.7375  1.3853 -2.2189
   28SAPC  C215 3742   5.550   4.313   7.542 -0.1505  1.0845  0.0514
   28SAPC  H15R 3743   5.564   4.206   7.564 -1.1470  1.1816  1.1903
   28SAPC  C216 3744   5.444   4.385   7.630 -0.0473 -0.1149  0.6578
   28SAPC  H16R 3745   5.345   4.334   7.625  0.8426 -2.0455  2.2257
   28SAPC  H16S 3746   5.437   4.496   7.623  2.2256 -0.0401 -1.0201
   28SAPC  C217 3747   5.479   4.369   7.780  0.2207  0.0187  0.6712
   28SAPC  H17R 3748   5.491   4.261   7.803 -0.1424  0.4261  2.8390
   28SAPC  H17S 3749   5.383   4.395   7.830 -0.8793 -2.2595 -0.1808
   28SAPC  C218 3750   5.591   4.453   7.834  0.4562 -0.8700 -0.0704
   28SAPC  H18R 3751   5.587   4.559   7.801 -2.4854  0.0878  3.1640
   28SAPC  H18S 3752   5.695   4.419   7.813  0.0200 -0.9130 -2.3677
   28SAPC  C219 3753   5.589   4.441   7.988 -0.2543  0.3105  0.4539
   28SAPC  H19R 3754   5.482   4.457   8.013 -0.8050 -1.5916 -0.5578
   28SAPC  H19S 3755   5.656   4.517   8.034  1.9115 -0.7477 -0.9006
   28SAPC  C220 3756   5.640   4.306   8.049  0.2317 -0.1739  0.2874
   28SAPC  H20R 3757   5.746   4.296   8.020  0.7642  2.6687  1.0860
   28SAPC  H20S 3758   5.576   4.218   8.024  1.6013 -0.9555 -0.5054
   28SAPC  H20T 3759   5.650   4.311   8.159  1.5294 -3.2238  0.3343
   28SAPC   C33 3760   6.487   5.156   7.103  0.6384  0.6020  0.1472
   28SAPC   H3X 3761   6.499   5.071   7.032 -2.8143  1.5599 -1.6821
   28SAPC   H3Y 3762   6.405   5.221   7.065 -1.2064 -1.5477  0.3658
   28SAPC   C34 3763   6.459   5.113   7.251  0.5875 -0.5129  0.5713
   28SAPC   H4X 3764   6.464   5.207   7.310  1.9891 -1.0678  1.3562
   28SAPC   H4Y 3765   6.536   5.035   7.270  0.0855 -1.0992  0.2464
   28SAPC   C35 3766   6.317   5.062   7.272 -0.3049  0.2213 -0.3131
   28SAPC   H5X 3767   6.317   4.958   7.234  2.1969  1.2432 -3.3582
   28SAPC   H5Y 3768   6.250   5.115   7.202  0.5429 -0.8166 -1.9289
   28SAPC   C36 3769   6.265   5.078   7.410 -0.6211  0.6600  0.4472
   28SAPC   H6X 3770   6.170   5.022   7.410  0.3163 -0.9783 -1.0371
   28SAPC   H6Y 3771   6.245   5.184   7.437  0.6221  1.4081 -1.4742
   28SAPC   C37 3772   6.357   5.018   7.512 -0.0963  0.1598 -0.8020
   28SAPC   H7X 3773   6.455   5.071   7.511 -0.9986  1.8607 -0.4031
   28SAPC   H7Y 3774   6.386   4.921   7.465 -1.3609 -1.1064  0.9747
   28SAPC   C38 3775   6.293   5.014   7.649 -0.0073 -0.1118  0.4881
   28SAPC   H8X 3776   6.210   4.941   7.655 -0.1930  0.0895  0.3898
   28SAPC   H8Y 3777   6.251   5.111   7.685  1.4989  0.2147  1.4083
   28SAPC   C39 3778   6.393   4.956   7.761  0.0761  0.4794  0.7251
   28SAPC   H9X 3779   6.484   5.019   7.758  0.8389 -0.6333 -0.0275
   28SAPC   H9Y 3780   6.425   4.850   7.746 -1.1839 -0.0789  1.8639
   28SAPC  C310 3781   6.337   4.971   7.904  0.3667  0.5753  1.4764
   28SAPC  H10X 3782   6.279   4.885   7.943  1.2845 -1.1386 -0.8244
   28SAPC  H10Y 3783   6.272   5.060   7.917  0.2760  0.4625  1.7859
   28SAPC  C311 3784   6.453   4.982   8.000  0.2958 -0.0687 -0.1602
   28SAPC  H11X 3785   6.491   5.082   7.967 -1.8179  0.9820  0.5017
   28SAPC  H11Y 3786   6.536   4.913   7.973  0.0132  0.0783 -1.4403
   28SAPC  C312 3787   6.408   4.980   8.147 -0.2741  0.1096  0.7794
   28SAPC  H12X 3788   6.313   5.037   8.137 -0.0290  0.4623  0.4198
   28SAPC  H12Y 3789   6.475   5.041   8.212  0.9733 -0.4410  0.0367
   28SAPC  C313 3790   6.391   4.838   8.202  0.2708  1.3171 -0.2156
   28SAPC  H13X 3791   6.485   4.804   8.250 -1.1205 -2.2055  0.1040
   28SAPC  H13Y 3792   6.364   4.767   8.121  2.6030  1.2497 -0.9668
   28SAPC  C314 3793   6.285   4.831   8.320  0.4172  0.5563 -0.5654
   28SAPC  H14X 3794   6.280   4.723   8.344  0.6703  0.3410 -1.4528
   28SAPC  H14Y 3795   6.184   4.854   8.279  0.2705  2.4794  0.7859
   28SAPC  C315 3796   6.292   4.917   8.445  0.3702  0.1457 -0.3820
   28SAPC  H15X 3797   6.206   4.897   8.512 -0.2373 -0.8236 -1.4381
   28SAPC  H15Y 3798   6.286   5.026   8.425 -3.3005  0.2630  1.0293
   28SAPC  C316 3799   6.421   4.893   8.521  0.1932 -0.4487 -0.2448
   28SAPC  H16X 3800   6.510   4.926   8.462 -1.2643  0.9951 -1.6932
   28SAPC  H16Y 3801   6.422   4.783   8.530 -0.3565 -0.5837 -1.6912
   28SAPC  C317 3802   6.417   4.946   8.665 -0.0626  0.5867  0.7751
   28SAPC  H17X 3803   6.455   4.873   8.740  2.6147  1.2158  0.0876
   28SAPC  H17Y 3804   6.312   4.966   8.697  0.1770 -0.9522  2.6095
   28SAPC  C318 3805   6.500   5.067   8.695  0.5183 -0.3438 -0.2253
   28SAPC  H18X 3806   6.509   5.073   8.805  0.9544 -0.4847 -0.2558
   28SAPC  H18Y 3807   6.455   5.159   8.651  1.7222  0.9376  1.1679
   28SAPC  H18Z 3808   6.600   5.069   8.646  1.2493  0.3454  1.2733
   29SAPC     N 3809   2.407   1.439   5.902 -0.5730  0.0186  0.0143
   29SAPC   C12 3810   2.306   1.527   5.841  0.6598 -0.1806 -0.7196
   29SAPC  H12A 3811   2.233   1.476   5.780  0.3632  1.4041 -1.7422
   29SAPC  H12B 3812   2.356   1.588   5.767  0.1069 -0.5958 -1.4485
   29SAPC   C13 3813   2.344   1.356   6.010  0.0628 -0.0219 -0.9815
   29SAPC  H13A 3814   2.297   1.426   6.077 -0.7245 -0.8186 -0.6852
   29SAPC  H13B 3815   2.271   1.292   5.962 -0.8183  0.7760 -0.7159
   29SAPC  H13C 3816   2.412   1.291   6.062  0.0324  0.5007 -0.2867
   29SAPC   C14 3817   2.479   1.358   5.800  1.0134 -0.2649  0.4394
   29SAPC  H14A 3818   2.414   1.281   5.760  0.3983  1.0482 -1.1199
   29SAPC  H14B 3819   2.513   1.420   5.719  0.5902 -2.4505 -1.4708
   29SAPC  H14C 3820   2.559   1.301   5.844  1.1792  0.6214  1.3035
   29SAPC   C15 3821   2.510   1.516   5.981 -0.0976 -0.9503  0.2451
   29SAPC  H15A 3822   2.464   1.591   6.044 -0.2765 -0.0162 -0.9593
   29SAPC  H15B 3823   2.562   1.450   6.048 -0.7713 -0.8342  0.8883
   29SAPC  H15C 3824   2.584   1.567   5.920 -0.1540 -0.4396  0.5958
   29SAPC   C11 3825   2.225   1.622   5.940 -0.2406  0.2505 -0.1376
   29SAPC  H11A 3826   2.151   1.675   5.874 -0.3857  1.8554  1.2724
   29SAPC  H11B 3827   2.291   1.705   5.973 -0.7102  1.8332 -2.9122
   29SAPC     P 3828   2.105   1.629   6.173 -0.2573  0.1442  0.2864
   29SAPC   O13 3829   2.155   1.764   6.195  0.1679 -0.9918  0.1314
   29SAPC   O14 3830   1.960   1.612   6.188 -0.6417  0.0595  0.4154
   29SAPC   O12 3831   2.159   1.555   6.047  0.5333  0.3947 -0.3721
   29SAPC   O11 3832   2.169   1.539   6.287 -0.3269 -0.4387  0.1513
   29SAPC    C1 3833   2.299   1.565   6.333  0.0163 -0.3006  0.0466
   29SAPC    HA 3834   2.341   1.468   6.368 -0.8515 -0.2515  1.2674
   29SAPC    HB 3835   2.380   1.585   6.259  0.2816 -1.2586  0.0734
   29SAPC    C2 3836   2.291   1.665   6.452  0.4726  0.5145 -0.3670
   29SAPC    HS 3837   2.277   1.772   6.423  0.8934  0.1344 -1.9769
   29SAPC   O21 3838   2.412   1.643   6.529  0.0285 -0.8110 -0.1966
   29SAPC   C21 3839   2.515   1.707   6.479 -1.1805 -0.0195  0.0197
   29SAPC   O22 3840   2.505   1.765   6.371  0.0315  0.4976  0.2001
   29SAPC   C22 3841   2.630   1.697   6.574 -0.1969 -1.0396 -0.2837
   29SAPC   H2R 3842   2.714   1.650   6.518 -0.1417  1.6370 -2.5571
   29SAPC   H2S 3843   2.662   1.798   6.608  1.4911 -2.1605  1.5697
   29SAPC    C3 3844   2.169   1.632   6.544  0.0052 -0.4600 -0.6524
   29SAPC    HX 3845   2.175   1.521   6.553  0.2359 -0.2962  1.6657
   29SAPC    HY 3846   2.073   1.652   6.491 -0.2275 -0.5031 -0.2519
   29SAPC   O31 3847   2.179   1.690   6.672  0.6574 -0.0904 -0.1324
   29SAPC   C31 3848   2.126   1.806   6.686 -0.0666 -0.2108 -0.2852
   29SAPC   O32 3849   2.071   1.875   6.604 -0.4767  0.8404  0.4664
   29SAPC   C32 3850   2.130   1.844   6.838  0.0708 -1.1300  0.0229
   29SAPC   H2X 3851   2.051   1.779   6.882 -0.0286 -1.2454 -0.3241
   29SAPC   H2Y 3852   2.119   1.954   6.849  1.7607 -0.8013 -1.3306
   29SAPC   C23 3853   2.608   1.606   6.694 -0.4017  0.6806  0.3413
   29SAPC   H3R 3854   2.561   1.512   6.659  0.8048  0.7825 -1.6079
   29SAPC   H3S 3855   2.546   1.659   6.770 -2.1086 -0.8597  0.0604
   29SAPC   C24 3856   2.740   1.566   6.761 -0.1755 -0.4220 -0.3689
   29SAPC   H4R 3857   2.777   1.659   6.808  0.0509  0.3414 -2.0233
   29SAPC   H4S 3858   2.819   1.543   6.687 -0.3460 -0.2680 -0.6016
   29SAPC   C25 3859   2.717   1.443   6.847 -0.1361 -0.1232  1.3287
   29SAPC   H5R 3860   2.754   1.348   6.805 -1.4858 -0.3484  0.6171
   29SAPC   C26 3861   2.670   1.438   6.973 -0.7239 -0.5850 -0.0025
   29SAPC   H6R 3862   2.652   1.346   7.031 -0.1615 -0.9608 -0.4110
   29SAPC   C27 3863   2.621   1.554   7.051  0.0106 -0.2952  0.7295
   29SAPC   H7R 3864   2.537   1.603   6.997  0.0185 -1.0412  0.0381
   29SAPC   H7S 3865   2.703   1.629   7.045 -0.5055  0.2462  0.3480
   29SAPC   C28 3866   2.593   1.526   7.194  0.2574  0.4080  0.3294
   29SAPC   H8R 3867   2.661   1.453   7.240 -0.6590  0.3596  1.6401
   29SAPC   C29 3868   2.520   1.600   7.275 -0.0675 -0.0155 -0.2321
   29SAPC   H9R 3869   2.520   1.574   7.382  0.8479  0.7712 -0.0308
   29SAPC  C210 3870   2.444   1.722   7.237  0.9165  1.0356 -0.7062
   29SAPC  H10R 3871   2.440   1.746   7.129  2.1651  0.5441 -0.8782
   29SAPC  H10S 3872   2.493   1.808   7.287 -0.3889  1.2143  0.2929
   29SAPC  C211 3873   2.302   1.716   7.295 -0.2766 -0.1805  0.2308
   29SAPC  H11R 3874   2.241   1.662   7.221 -2.3418  1.2956  0.8284
   29SAPC  C212 3875   2.245   1.772   7.406 -0.5838  0.4775  0.1519
   29SAPC  H12R 3876   2.139   1.745   7.423 -0.3983 -1.2247 -1.2375
   29SAPC  C213 3877   2.307   1.862   7.506  0.1669 -0.8166 -0.5183
   29SAPC  H13R 3878   2.263   1.961   7.484  1.9428  0.3937  1.2022
   29SAPC  H13S 3879   2.417   1.869   7.492  0.0249  0.2987 -1.1387
   29SAPC  C214 3880   2.269   1.846   7.657  0.8771  0.5267 -0.0046
   29SAPC  H14R 3881   2.221   1.931   7.708  0.4479  0.7334 -0.7414
   29SAPC  C215 3882   2.292   1.731   7.731  0.0414 -0.6049 -0.3493
   29SAPC  H15R 3883   2.284   1.737   7.840  0.8199 -3.9615 -0.0360
   29SAPC  C216 3884   2.354   1.599   7.679 -0.2545  0.1845  0.3329
   29SAPC  H16R 3885   2.403   1.603   7.579  0.5856 -2.7008  0.5672
   29SAPC  H16S 3886   2.270   1.528   7.668 -0.3559  0.3421  0.0938
   29SAPC  C217 3887   2.461   1.538   7.776 -0.2518 -0.3722 -0.0359
   29SAPC  H17R 3888   2.524   1.620   7.815 -2.9222  2.0411 -0.6012
   29SAPC  H17S 3889   2.524   1.467   7.718 -0.0443 -1.2926  1.2789
   29SAPC  C218 3890   2.382   1.468   7.887 -0.3097  0.8200 -0.2763
   29SAPC  H18R 3891   2.295   1.412   7.844  0.0874  0.1080 -0.1472
   29SAPC  H18S 3892   2.343   1.548   7.954 -1.6970  0.2638 -0.3856
   29SAPC  C219 3893   2.464   1.364   7.961  0.1371  0.1686 -0.3523
   29SAPC  H19R 3894   2.556   1.407   8.006 -0.3599  1.0601 -0.1815
   29SAPC  H19S 3895   2.489   1.286   7.886  0.1408 -0.7199  0.5502
   29SAPC  C220 3896   2.394   1.298   8.084 -0.2230 -0.3631  0.0878
   29SAPC  H20R 3897   2.357   1.383   8.145  1.1808  1.3262 -1.3523
   29SAPC  H20S 3898   2.465   1.235   8.142  2.3265 -0.3971 -2.9110
   29SAPC  H20T 3899   2.310   1.233   8.051 -0.6505 -0.4509  1.3524
   29SAPC   C33 3900   2.263   1.812   6.909  0.4639 -0.4128 -1.0769
   29SAPC   H3X 3901   2.280   1.703   6.895  0.1432 -0.3582 -1.9736
   29SAPC   H3Y 3902   2.242   1.836   7.015 -1.3447 -1.1711 -1.2485
   29SAPC   C34 3903   2.384   1.888   6.856  0.3070 -0.6226  0.7364
   29SAPC   H4X 3904   2.412   1.860   6.752 -1.3935 -0.4848  0.2333
   29SAPC   H4Y 3905   2.466   1.848   6.919  0.2824  0.6324  1.5643
   29SAPC   C35 3906   2.396   2.040   6.872 -0.8844  0.8374 -0.0041
   29SAPC   H5X 3907   2.317   2.097   6.819 -0.1169  0.7400 -1.2688
   29SAPC   H5Y 3908   2.492   2.077   6.831 -1.3691  1.1120 -0.9117
   29SAPC   C36 3909   2.382   2.079   7.023 -1.0122  0.6577  0.0531
   29SAPC   H6X 3910   2.459   2.026   7.082 -1.1803 -1.5567 -1.6560
   29SAPC   H6Y 3911   2.281   2.055   7.064 -1.0249  0.2169 -0.2395
   29SAPC   C37 3912   2.397   2.232   7.036  0.4134 -0.4420  0.9971
   29SAPC   H7X 3913   2.303   2.285   7.013 -0.0072 -1.5118  0.2389
   29SAPC   H7Y 3914   2.473   2.279   6.969 -1.0495  1.1839  0.4525
   29SAPC   C38 3915   2.431   2.275   7.184 -0.4756  0.1940  0.2078
   29SAPC   H8X 3916   2.456   2.383   7.185  1.1605 -0.1224 -2.4784
   29SAPC   H8Y 3917   2.518   2.212   7.212 -0.6124 -0.0549  0.0749
   29SAPC   C39 3918   2.315   2.264   7.287 -0.6933  0.3471  0.1609
   29SAPC   H9X 3919   2.279   2.161   7.309 -0.0560  0.4729  1.8953
   29SAPC   H9Y 3920   2.231   2.323   7.246 -1.2812 -0.1654  0.6218
   29SAPC  C310 3921   2.345   2.323   7.422  0.4416  0.2026 -0.3435
   29SAPC  H10X 3922   2.401   2.418   7.407 -0.9980  1.0248 -0.6092
   29SAPC  H10Y 3923   2.417   2.261   7.479 -0.8824  2.0776  3.5081
   29SAPC  C311 3924   2.202   2.336   7.491 -0.0715  0.0139 -0.4821
   29SAPC  H11X 3925   2.161   2.235   7.513 -1.1555  0.7052  0.7764
   29SAPC  H11Y 3926   2.132   2.394   7.428  0.2306  0.5351 -0.3463
   29SAPC  C312 3927   2.211   2.413   7.628 -0.8091  0.3944 -0.2116
   29SAPC  H12X 3928   2.116   2.406   7.684  0.9910 -4.2069  2.5230
   29SAPC  H12Y 3929   2.242   2.518   7.612 -0.0328  0.5142  1.9943
   29SAPC  C313 3930   2.303   2.337   7.730 -0.0513 -0.3761 -0.5211
   29SAPC  H13X 3931   2.414   2.331   7.719 -0.0323 -0.6394 -0.2028
   29SAPC  H13Y 3932   2.285   2.228   7.714 -0.4636 -0.4420  0.3637
   29SAPC  C314 3933   2.269   2.370   7.880 -0.0182 -0.3593  0.6012
   29SAPC  H14X 3934   2.222   2.469   7.893 -3.3271 -2.2678  4.2116
   29SAPC  H14Y 3935   2.362   2.372   7.940  0.3331  1.0741  0.0247
   29SAPC  C315 3936   2.168   2.264   7.927 -0.0257  0.0462 -0.1484
   29SAPC  H15X 3937   2.228   2.171   7.923 -0.3147 -0.1002 -1.1478
   29SAPC  H15Y 3938   2.081   2.258   7.858 -0.1735 -0.5093  0.0895
   29SAPC  C316 3939   2.125   2.303   8.068  0.0843 -0.3823 -0.0174
   29SAPC  H16X 3940   2.026   2.257   8.092  0.6171 -1.0614  0.9114
   29SAPC  H16Y 3941   2.110   2.413   8.065  0.7614 -0.2830  0.2467
   29SAPC  C317 3942   2.220   2.254   8.178  0.6258  0.2939 -0.4434
   29SAPC  H17X 3943   2.323   2.282   8.148  1.0676 -0.7159  0.1336
   29SAPC  H17Y 3944   2.195   2.146   8.174  1.0880  0.2272 -5.4627
   29SAPC  C318 3945   2.180   2.327   8.300  0.3245 -0.5764 -0.7453
   29SAPC  H18X 3946   2.070   2.318   8.310  0.3683  0.1622  0.4085
   29SAPC  H18Y 3947   2.198   2.437   8.297  0.5698 -0.5087  2.2473
   29SAPC  H18Z 3948   2.231   2.289   8.391 -1.1122 -0.4494  0.1175
   30SAPC     N 3949   4.475   1.036   5.949  0.6624 -0.0303  0.3123
   30SAPC   C12 3950   4.412   1.163   6.006 -0.3146 -0.4721 -0.4603
   30SAPC  H12A 3951   4.306   1.167   5.991 -0.4174 -1.0124  0.0638
   30SAPC  H12B 3952   4.459   1.248   5.959 -2.2615  2.5708  2.8405
   30SAPC   C13 3953   4.404   0.920   6.013  0.2280 -0.2442  0.3621
   30SAPC  H13A 3954   4.402   0.931   6.121 -1.1008  1.0698  0.2205
   30SAPC  H13B 3955   4.304   0.907   5.973  0.5969  0.7673 -0.8837
   30SAPC  H13C 3956   4.462   0.832   5.988 -1.1687 -0.7674 -1.1554
   30SAPC   C14 3957   4.451   1.020   5.801 -0.2958 -0.2900 -1.8350
   30SAPC  H14A 3958   4.346   1.032   5.778 -0.2641  1.4108 -1.1055
   30SAPC  H14B 3959   4.496   1.098   5.741  1.4852  0.0384 -0.1022
   30SAPC  H14C 3960   4.468   0.922   5.758 -0.6050 -0.6664 -1.0987
   30SAPC   C15 3961   4.622   1.020   5.972 -0.8470  0.6267 -0.6340
   30SAPC  H15A 3962   4.657   1.016   6.074  1.0280  0.2784 -1.2684
   30SAPC  H15B 3963   4.648   0.920   5.939 -1.4642  0.8823 -1.9350
   30SAPC  H15C 3964   4.677   1.100   5.926 -0.6782  2.2445  2.2981
   30SAPC   C11 3965   4.430   1.168   6.162  0.1406 -0.1503  0.3136
   30SAPC  H11A 3966   4.530   1.122   6.180  1.2561  0.4876 -3.7139
   30SAPC  H11B 3967   4.360   1.094   6.207 -1.5493  0.4532 -1.2585
   30SAPC     P 3968   4.268   1.361   6.208 -0.0666  0.2652  0.2448
   30SAPC   O13 3969   4.290   1.509   6.217 -0.2872 -0.4838 -0.6116
   30SAPC   O14 3970   4.198   1.311   6.087 -0.1931  0.7367  0.3141
   30SAPC   O12 3971   4.410   1.301   6.216  0.7268  0.0249 -0.0028
   30SAPC   O11 3972   4.208   1.305   6.344  0.1410 -0.9879  0.3220
   30SAPC    C1 3973   4.289   1.323   6.466  0.2211 -0.2121  0.0638
   30SAPC    HA 3974   4.383   1.264   6.458  0.7813  0.5173  1.1038
   30SAPC    HB 3975   4.304   1.433   6.478 -1.1434  0.0620 -0.6619
   30SAPC    C2 3976   4.216   1.261   6.593  0.2060 -0.7471  0.0017
   30SAPC    HS 3977   4.295   1.227   6.664 -1.6509 -0.8115  2.0783
   30SAPC   O21 3978   4.137   1.144   6.550 -0.8308 -0.5510 -0.6150
   30SAPC   C21 3979   4.213   1.034   6.525  0.3617 -0.6880 -0.3788
   30SAPC   O22 3980   4.333   1.022   6.540  0.1021 -0.2992  0.5121
   30SAPC   C22 3981   4.106   0.930   6.487 -0.1270  0.2345 -0.1142
   30SAPC   H2R 3982   4.035   0.975   6.414  1.1382  1.7567 -0.4250
   30SAPC   H2S 3983   4.158   0.848   6.433  1.6079  0.2199  1.5135
   30SAPC    C3 3984   4.127   1.362   6.664  0.0259  0.2117 -0.6620
   30SAPC    HX 3985   4.058   1.403   6.587 -0.6256 -0.4237 -0.4248
   30SAPC    HY 3986   4.197   1.444   6.689  0.7005 -1.0936  1.9148
   30SAPC   O31 3987   4.054   1.311   6.776  0.2114  1.0210 -0.4514
   30SAPC   C31 3988   4.130   1.323   6.887  0.1293  0.0789 -0.5877
   30SAPC   O32 3989   4.251   1.338   6.885 -0.0541 -0.0850  0.5909
   30SAPC   C32 3990   4.044   1.298   7.014  0.4421 -0.0567  0.7665
   30SAPC   H2X 3991   4.081   1.202   7.055 -0.3110 -0.8118 -0.2747
   30SAPC   H2Y 3992   3.937   1.286   6.985  0.2485  1.3347  0.8628
   30SAPC   C23 3993   4.027   0.872   6.604  0.0562 -0.0815  0.1087
   30SAPC   H3R 3994   3.947   0.804   6.568  0.0712  0.5857 -1.2019
   30SAPC   H3S 3995   3.976   0.956   6.656 -1.0745 -0.2583 -0.6815
   30SAPC   C24 3996   4.121   0.806   6.701  0.3234 -0.1627 -0.6228
   30SAPC   H4R 3997   4.191   0.881   6.745  0.8490  0.0958 -1.8700
   30SAPC   H4S 3998   4.192   0.738   6.650  1.2402  0.2543  0.0665
   30SAPC   C25 3999   4.038   0.743   6.803  0.8139  0.3290 -0.5937
   30SAPC   H5R 4000   3.966   0.669   6.765 -2.5998  2.1653  1.9371
   30SAPC   C26 4001   4.012   0.781   6.935 -0.1120  0.7415  0.4397
   30SAPC   H6R 4002   3.959   0.703   6.992  0.6366  0.7674  1.1883
   30SAPC   C27 4003   4.084   0.886   7.015  0.1861 -0.7782  0.1833
   30SAPC   H7R 4004   4.030   0.936   7.098 -0.3085 -0.0769 -0.5505
   30SAPC   H7S 4005   4.116   0.970   6.949  0.0902 -0.2655  0.7851
   30SAPC   C28 4006   4.224   0.844   7.062  0.0411  0.1561  0.2288
   30SAPC   H8R 4007   4.276   0.778   6.991  1.1004  2.2119 -0.9599
   30SAPC   C29 4008   4.269   0.845   7.192  0.2635 -0.3642 -0.4969
   30SAPC   H9R 4009   4.368   0.799   7.206  0.3673 -0.3554 -1.1795
   30SAPC  C210 4010   4.196   0.887   7.320 -0.2931  0.1004 -0.1754
   30SAPC  H10R 4011   4.269   0.852   7.396  1.4788 -0.4965 -2.0878
   30SAPC  H10S 4012   4.099   0.836   7.336 -1.8208  2.7216 -0.9606
   30SAPC  C211 4013   4.159   1.030   7.325  0.1641 -0.3749  0.7156
   30SAPC  H11R 4014   4.142   1.083   7.231  3.0079 -1.2290 -0.3406
   30SAPC  C212 4015   4.166   1.104   7.439 -0.3433 -0.1392 -0.6719
   30SAPC  H12R 4016   4.142   1.211   7.445 -1.6867 -0.5317  1.5866
   30SAPC  C213 4017   4.210   1.049   7.570  0.2125  0.0442  0.0954
   30SAPC  H13R 4018   4.228   1.130   7.644 -2.1401 -0.5073  1.2961
   30SAPC  H13S 4019   4.314   1.011   7.562  0.4215  0.7808 -0.7854
   30SAPC  C214 4020   4.115   0.937   7.618  0.3364 -0.2483 -0.1269
   30SAPC  H14R 4021   4.134   0.840   7.570 -2.0477 -1.7850  1.8895
   30SAPC  C215 4022   4.026   0.942   7.721 -0.5886  1.1210  0.1416
   30SAPC  H15R 4023   3.969   0.853   7.753  1.1964 -0.3342 -0.6886
   30SAPC  C216 4024   4.006   1.066   7.801 -0.6047 -0.7264 -0.2071
   30SAPC  H16R 4025   3.906   1.064   7.849  0.1670  1.9234  1.5965
   30SAPC  H16S 4026   4.007   1.151   7.730  1.1251 -0.9989 -0.5400
   30SAPC  C217 4027   4.104   1.075   7.921 -0.3116 -0.4722 -0.4748
   30SAPC  H17R 4028   4.209   1.083   7.884 -0.8844  0.5567 -1.9609
   30SAPC  H17S 4029   4.095   0.986   7.986 -1.3629 -0.4208 -0.5412
   30SAPC  C218 4030   4.090   1.201   8.011  0.2074 -0.0858  0.1527
   30SAPC  H18R 4031   3.986   1.215   8.047  0.6569 -2.5771  2.5895
   30SAPC  H18S 4032   4.109   1.294   7.954  2.0088 -0.4159  0.1824
   30SAPC  C219 4033   4.198   1.215   8.115  0.0476 -0.9945 -0.2946
   30SAPC  H19R 4034   4.203   1.322   8.146  1.8619 -0.3616 -2.5667
   30SAPC  H19S 4035   4.299   1.197   8.072  0.6206 -0.6196  0.8860
   30SAPC  C220 4036   4.179   1.111   8.233  0.1911  0.5090 -0.3334
   30SAPC  H20R 4037   4.170   1.010   8.189  1.5410  1.4067 -2.7808
   30SAPC  H20S 4038   4.083   1.138   8.283  1.0979  0.6212  1.3716
   30SAPC  H20T 4039   4.265   1.109   8.303 -1.1334 -0.6777  1.3041
   30SAPC   C33 4040   4.063   1.398   7.126 -0.0303 -0.5049  0.0805
   30SAPC   H3X 4041   4.032   1.501   7.099 -0.2052  0.9422  5.1630
   30SAPC   H3Y 4042   4.173   1.406   7.145  0.2732 -1.1656 -1.3603
   30SAPC   C34 4043   3.983   1.352   7.248  0.5293 -0.5617 -0.9101
   30SAPC   H4X 4044   3.987   1.247   7.286 -3.7371 -0.1271  0.9799
   30SAPC   H4Y 4045   3.877   1.368   7.217 -0.2332 -2.3044  0.6576
   30SAPC   C35 4046   4.011   1.432   7.378 -0.3172 -0.5097  0.2237
   30SAPC   H5X 4047   4.008   1.540   7.352 -4.1521 -0.6563 -0.2432
   30SAPC   H5Y 4048   4.119   1.420   7.404 -0.2181  1.6394  0.8876
   30SAPC   C36 4049   3.933   1.401   7.501 -0.4638  0.2735 -0.6950
   30SAPC   H6X 4050   3.945   1.294   7.528  1.9900  0.0632 -2.3935
   30SAPC   H6Y 4051   3.824   1.408   7.480 -0.5843  0.4855  0.0087
   30SAPC   C37 4052   3.967   1.487   7.619 -0.2297 -0.0406  0.2053
   30SAPC   H7X 4053   3.963   1.595   7.597 -0.3967 -0.0791  0.0478
   30SAPC   H7Y 4054   4.070   1.454   7.647  0.3967  1.2620 -0.5024
   30SAPC   C38 4055   3.876   1.465   7.743 -0.5526  0.3030 -0.8444
   30SAPC   H8X 4056   3.871   1.357   7.769  0.0160  0.4616 -0.0790
   30SAPC   H8Y 4057   3.774   1.507   7.732 -1.2509 -1.1796 -0.0943
   30SAPC   C39 4058   3.940   1.513   7.876 -0.7069  1.0626  0.4112
   30SAPC   H9X 4059   3.967   1.620   7.865  0.0123  1.0507  1.9624
   30SAPC   H9Y 4060   4.032   1.452   7.878 -2.0577 -1.0054  1.0073
   30SAPC  C310 4061   3.859   1.488   8.007  0.2735 -0.4828  0.2252
   30SAPC  H10X 4062   3.845   1.378   8.013 -0.8485 -0.3337  0.5241
   30SAPC  H10Y 4063   3.763   1.543   7.996  0.6199 -0.1761 -1.4792
   30SAPC  C311 4064   3.938   1.556   8.119 -0.3119  0.1529 -0.4624
   30SAPC  H11X 4065   3.955   1.663   8.092  1.5274  0.3378  1.3338
   30SAPC  H11Y 4066   4.040   1.512   8.118  0.6393  2.2663 -0.0393
   30SAPC  C312 4067   3.862   1.546   8.254 -0.0504 -0.2108 -0.0184
   30SAPC  H12X 4068   3.933   1.555   8.339 -0.8254 -0.8241  0.6861
   30SAPC  H12Y 4069   3.810   1.449   8.266 -0.4763 -0.1278 -1.0912
   30SAPC  C313 4070   3.755   1.651   8.274 -0.4711 -0.2179  0.6795
   30SAPC  H13X 4071   3.696   1.666   8.181  0.6360  1.8272  0.2717
   30SAPC  H13Y 4072   3.797   1.753   8.290 -0.2321 -0.0624 -0.8304
   30SAPC  C314 4073   3.662   1.604   8.381 -0.3487 -0.0165 -0.1294
   30SAPC  H14X 4074   3.723   1.616   8.473 -0.9062 -0.4708  0.3042
   30SAPC  H14Y 4075   3.619   1.502   8.371  0.3534 -0.2115 -1.2443
   30SAPC  C315 4076   3.537   1.699   8.405  0.3795  0.2609 -0.1795
   30SAPC  H15X 4077   3.478   1.646   8.483 -1.3337  0.1529 -1.5351
   30SAPC  H15Y 4078   3.478   1.703   8.311  0.1390  1.7187  0.0219
   30SAPC  C316 4079   3.571   1.846   8.462  0.5478  0.0796  0.9420
   30SAPC  H16X 4080   3.478   1.894   8.497  0.1509 -0.5468  0.7480
   30SAPC  H16Y 4081   3.603   1.895   8.367 -0.8407 -0.0364  0.4046
   30SAPC  C317 4082   3.671   1.867   8.569 -0.0632 -0.1162  0.6646
   30SAPC  H17X 4083   3.692   1.976   8.575  0.5119 -0.2332  0.8070
   30SAPC  H17Y 4084   3.772   1.823   8.554  0.0304  0.5817 -0.8734
   30SAPC  C318 4085   3.638   1.827   8.714  0.1161 -0.1430 -0.2624
   30SAPC  H18X 4086   3.711   1.876   8.781 -0.2227  1.1002 -0.7978
   30SAPC  H18Y 4087   3.647   1.717   8.727  0.7010 -0.1323 -0.5787
   30SAPC  H18Z 4088   3.532   1.855   8.732 -0.1456 -0.3531 -1.4033
   31SAPC     N 4089   5.373   1.792   6.255 -0.3130 -0.0690  0.4805
   31SAPC   C12 4090   5.294   1.866   6.367  0.7625  0.0632 -0.4777
   31SAPC  H12A 4091   5.257   1.781   6.422  1.0147  0.3785  0.1902
   31SAPC  H12B 4092   5.214   1.919   6.318  1.1375  0.3716 -0.7661
   31SAPC   C13 4093   5.481   1.724   6.318  0.2198 -0.4332 -0.2768
   31SAPC  H13A 4094   5.431   1.673   6.400 -0.2940 -0.1210 -0.3974
   31SAPC  H13B 4095   5.520   1.648   6.253 -0.1077  0.7435 -1.8577
   31SAPC  H13C 4096   5.560   1.791   6.348 -1.1870  0.8837  0.5421
   31SAPC   C14 4097   5.285   1.698   6.191 -0.7420  0.3719 -0.1955
   31SAPC  H14A 4098   5.202   1.749   6.145 -0.6895  0.7666  0.1312
   31SAPC  H14B 4099   5.325   1.644   6.107  0.9308  0.2306  0.6605
   31SAPC  H14C 4100   5.250   1.626   6.264  3.1398 -1.0366  0.4191
   31SAPC   C15 4101   5.430   1.887   6.157 -0.8061  0.2731  0.2418
   31SAPC  H15A 4102   5.493   1.833   6.088  1.5286  0.0371  2.4745
   31SAPC  H15B 4103   5.347   1.935   6.108 -2.6383 -2.1114  0.9057
   31SAPC  H15C 4104   5.481   1.970   6.205 -1.7703  1.1239 -0.1787
   31SAPC   C11 4105   5.362   1.966   6.457 -0.6241  0.2165 -0.1558
   31SAPC  H11A 4106   5.466   1.935   6.482 -0.7104 -1.6449 -2.0161
   31SAPC  H11B 4107   5.311   1.969   6.556 -0.4439 -0.1793 -0.0492
   31SAPC     P 4108   5.232   2.186   6.380 -0.3949  0.3031 -0.1057
   31SAPC   O13 4109   5.269   2.308   6.311  0.1165  0.0257  0.3677
   31SAPC   O14 4110   5.122   2.108   6.318  0.4242  0.6166  0.3227
   31SAPC   O12 4111   5.362   2.099   6.398 -0.1735  0.1912  0.4337
   31SAPC   O11 4112   5.194   2.221   6.530 -0.3093 -0.3105 -0.0090
   31SAPC    C1 4113   5.285   2.304   6.611 -0.2742 -0.1289 -0.0025
   31SAPC    HA 4114   5.366   2.239   6.649 -0.9048 -0.7161  0.3537
   31SAPC    HB 4115   5.330   2.387   6.553  0.6129  0.4019  1.4225
   31SAPC    C2 4116   5.202   2.371   6.720 -0.0861  0.6841 -0.5280
   31SAPC    HS 4117   5.249   2.460   6.766  0.8271 -0.7708  1.4564
   31SAPC   O21 4118   5.156   2.268   6.817  0.2018 -0.2299  0.5853
   31SAPC   C21 4119   5.239   2.251   6.923  0.0473 -0.2890 -0.8634
   31SAPC   O22 4120   5.352   2.300   6.934 -0.0701 -0.7236  0.8517
   31SAPC   C22 4121   5.176   2.155   7.020 -0.1867 -0.0350 -0.1080
   31SAPC   H2R 4122   5.148   2.058   6.974  0.4869  0.5689 -1.8534
   31SAPC   H2S 4123   5.259   2.128   7.088  0.3145 -1.5212 -1.2844
   31SAPC    C3 4124   5.071   2.435   6.655 -0.1823  0.1266 -0.0345
   31SAPC    HX 4125   5.014   2.363   6.593  0.6518  0.1538 -0.8465
   31SAPC    HY 4126   5.110   2.511   6.584 -1.2006  1.0235  0.3583
   31SAPC   O31 4127   4.993   2.500   6.750 -0.0036  0.0308  0.0510
   31SAPC   C31 4128   4.893   2.429   6.807  0.2484 -0.2354  0.9097
   31SAPC   O32 4129   4.869   2.311   6.778 -0.3695 -0.1327 -0.1390
   31SAPC   C32 4130   4.817   2.524   6.891  0.2849 -0.1978  0.3919
   31SAPC   H2X 4131   4.756   2.594   6.830  0.0900 -1.2354 -0.6229
   31SAPC   H2Y 4132   4.888   2.593   6.942 -0.2607  1.4943 -1.1094
   31SAPC   C23 4133   5.074   2.224   7.114  0.0985  0.1069  0.7306
   31SAPC   H3R 4134   4.991   2.264   7.051  0.3208 -2.6331 -1.4113
   31SAPC   H3S 4135   5.121   2.309   7.168 -0.7111  2.0085 -1.4566
   31SAPC   C24 4136   5.015   2.125   7.216  0.4188 -0.3896 -0.3868
   31SAPC   H4R 4137   5.092   2.100   7.292 -1.1014 -1.8359  0.7406
   31SAPC   H4S 4138   4.983   2.036   7.159  1.7422 -1.4618  0.5288
   31SAPC   C25 4139   4.889   2.178   7.282 -0.1285 -0.2091  0.4325
   31SAPC   H5R 4140   4.792   2.146   7.242 -0.0316  0.4939 -0.4047
   31SAPC   C26 4141   4.882   2.268   7.377 -0.4615  0.1009 -0.1270
   31SAPC   H6R 4142   4.782   2.308   7.399 -0.9316 -0.8028 -0.5584
   31SAPC   C27 4143   5.008   2.320   7.440 -0.9261  0.2270  0.3761
   31SAPC   H7R 4144   5.099   2.329   7.377 -1.0182  0.7917  0.3224
   31SAPC   H7S 4145   5.029   2.246   7.521 -2.1300  0.9569  1.3829
   31SAPC   C28 4146   5.005   2.454   7.507  0.4665  0.0251  0.5737
   31SAPC   H8R 4147   5.042   2.540   7.450 -1.5507 -0.0278 -0.8641
   31SAPC   C29 4148   4.976   2.475   7.638 -0.8139 -0.3616 -0.0576
   31SAPC   H9R 4149   4.963   2.578   7.673  0.3510 -0.7684  1.6661
   31SAPC  C210 4150   4.936   2.365   7.735  0.1736 -0.2886  0.5123
   31SAPC  H10R 4151   5.001   2.277   7.718 -0.0103 -0.5330  1.0690
   31SAPC  H10S 4152   4.837   2.331   7.697 -0.6522  0.8643  1.5961
   31SAPC  C211 4153   4.936   2.414   7.878  0.4271 -0.3492 -0.5078
   31SAPC  H11R 4154   4.836   2.451   7.905  0.7799  0.5245 -0.3961
   31SAPC  C212 4155   5.030   2.403   7.970  0.1489 -0.3572 -0.6704
   31SAPC  H12R 4156   5.007   2.429   8.075  0.9672 -1.0413 -0.3224
   31SAPC  C213 4157   5.174   2.352   7.944  0.4683  0.0538 -0.5049
   31SAPC  H13R 4158   5.249   2.432   7.959  1.9931 -1.8802  2.7980
   31SAPC  H13S 4159   5.177   2.335   7.835  0.7949  0.8811 -0.6272
   31SAPC  C214 4160   5.194   2.226   8.031  0.2745 -0.5570  0.6106
   31SAPC  H14R 4161   5.200   2.137   7.967  0.8378  0.5045 -0.8477
   31SAPC  C215 4162   5.230   2.213   8.160  0.3826  0.0846 -0.4589
   31SAPC  H15R 4163   5.234   2.117   8.213 -1.4289 -0.7394 -1.7664
   31SAPC  C216 4164   5.241   2.321   8.265  0.3774  0.1206 -0.3806
   31SAPC  H16R 4165   5.209   2.418   8.221 -1.1861  0.0378  0.5240
   31SAPC  H16S 4166   5.343   2.342   8.302  0.1490 -1.9987  1.5893
   31SAPC  C217 4167   5.147   2.308   8.387  0.4915 -0.4525  0.3157
   31SAPC  H17R 4168   5.194   2.245   8.465  0.4105 -2.5643 -1.3029
   31SAPC  H17S 4169   5.050   2.265   8.353  0.7663 -1.7616  1.1518
   31SAPC  C218 4170   5.128   2.445   8.453  0.6261 -0.1834 -0.4067
   31SAPC  H18R 4171   5.059   2.509   8.393  1.6624  2.4570  1.1503
   31SAPC  H18S 4172   5.224   2.496   8.473  0.5610 -0.1169 -0.2670
   31SAPC  C219 4173   5.061   2.427   8.593 -0.5286  0.0625  0.4777
   31SAPC  H19R 4174   5.076   2.523   8.646  0.0082  0.9620 -1.2676
   31SAPC  H19S 4175   5.087   2.335   8.649 -0.6919 -0.5558 -0.4444
   31SAPC  C220 4176   4.913   2.398   8.593 -1.1181  0.6197  0.3962
   31SAPC  H20R 4177   4.883   2.305   8.540 -0.0341 -0.6742  2.0104
   31SAPC  H20S 4178   4.860   2.481   8.541  2.5202  0.2975 -4.1728
   31SAPC  H20T 4179   4.878   2.399   8.699 -3.3192  1.4998 -0.3094
   31SAPC   C33 4180   4.733   2.451   6.994 -0.2733 -0.1143 -0.4133
   31SAPC   H3X 4181   4.806   2.391   7.054 -1.2158  0.1143  0.9910
   31SAPC   H3Y 4182   4.666   2.385   6.936 -1.6223  2.1123 -1.4338
   31SAPC   C34 4183   4.660   2.548   7.086  0.4025  0.0541 -0.0530
   31SAPC   H4X 4184   4.586   2.599   7.021 -1.1609 -1.9916  0.0300
   31SAPC   H4Y 4185   4.728   2.621   7.135 -0.5222  0.0050  1.3688
   31SAPC   C35 4186   4.584   2.484   7.204  0.4856  0.1674 -0.3035
   31SAPC   H5X 4187   4.532   2.550   7.277 -1.9829 -2.5849  0.5238
   31SAPC   H5Y 4188   4.658   2.423   7.260  0.5839  1.2787  0.7953
   31SAPC   C36 4189   4.477   2.378   7.158 -0.9474  0.0610  0.5992
   31SAPC   H6X 4190   4.521   2.310   7.081 -0.0007  0.4265  0.8088
   31SAPC   H6Y 4191   4.402   2.439   7.103 -0.6608  2.3099  2.6340
   31SAPC   C37 4192   4.406   2.289   7.265  0.6847 -0.6176 -0.1757
   31SAPC   H7X 4193   4.484   2.262   7.340 -1.0726  0.1853  2.0136
   31SAPC   H7Y 4194   4.368   2.194   7.222  1.2930 -1.5457  1.2820
   31SAPC   C38 4195   4.286   2.357   7.339  0.0525 -0.7564  0.4175
   31SAPC   H8X 4196   4.211   2.376   7.259 -0.5668 -0.9044  0.9629
   31SAPC   H8Y 4197   4.335   2.440   7.394  0.7260 -1.7220  1.2850
   31SAPC   C39 4198   4.224   2.258   7.443  0.0256 -0.4516  0.1720
   31SAPC   H9X 4199   4.242   2.156   7.402  1.3933 -1.0477  2.2233
   31SAPC   H9Y 4200   4.115   2.281   7.447  0.2287  1.1029 -2.0444
   31SAPC  C310 4201   4.277   2.280   7.584  0.1272  0.5765  0.1086
   31SAPC  H10X 4202   4.262   2.379   7.632  0.0332 -0.6674  2.7366
   31SAPC  H10Y 4203   4.384   2.256   7.600 -0.0516  0.0436  0.5351
   31SAPC  C311 4204   4.209   2.188   7.679 -0.0868  0.7013 -0.2519
   31SAPC  H11X 4205   4.207   2.079   7.655 -5.7028 -0.1373  2.9405
   31SAPC  H11Y 4206   4.100   2.210   7.670  0.4310  3.0730 -1.1678
   31SAPC  C312 4207   4.253   2.206   7.818 -0.4333 -0.5130  0.1777
   31SAPC  H12X 4208   4.175   2.155   7.879  0.3445 -0.0676  1.5691
   31SAPC  H12Y 4209   4.258   2.310   7.856  0.8259 -0.9357  1.2196
   31SAPC  C313 4210   4.379   2.143   7.856 -0.2636 -0.0845  0.3738
   31SAPC  H13X 4211   4.462   2.200   7.809 -0.4039 -0.2002 -0.0123
   31SAPC  H13Y 4212   4.389   2.038   7.822  2.6745  0.2073  0.1993
   31SAPC  C314 4213   4.401   2.146   8.008  0.1837 -0.6241 -0.3457
   31SAPC  H14X 4214   4.325   2.095   8.071  1.4363 -0.0221  1.7215
   31SAPC  H14Y 4215   4.388   2.245   8.059 -1.9864 -1.3686  0.6165
   31SAPC  C315 4216   4.544   2.110   8.045 -0.0386 -1.2176  0.0402
   31SAPC  H15X 4217   4.599   2.140   7.954 -0.8528  0.9062  0.2367
   31SAPC  H15Y 4218   4.548   1.999   8.059  0.3872 -1.0444  1.4644
   31SAPC  C316 4219   4.593   2.185   8.175  0.2056 -0.1145 -1.0142
   31SAPC  H16X 4220   4.652   2.115   8.238  0.1039  0.4363 -0.2937
   31SAPC  H16Y 4221   4.507   2.208   8.241  1.6349  0.3524  0.7568
   31SAPC  C317 4222   4.672   2.311   8.137  0.8104 -0.7222  0.1407
   31SAPC  H17X 4223   4.608   2.387   8.088 -1.2375 -2.0836  0.6273
   31SAPC  H17Y 4224   4.750   2.266   8.072  0.2184  0.1646 -1.1992
   31SAPC  C318 4225   4.754   2.365   8.255 -0.0014 -0.4349 -0.0347
   31SAPC  H18X 4226   4.684   2.391   8.336  1.4027  1.3208  0.6541
   31SAPC  H18Y 4227   4.807   2.458   8.224 -3.1248  1.1420 -0.8540
   31SAPC  H18Z 4228   4.818   2.279   8.285 -0.8817 -0.9071  0.5096
   32SAPC     N 4229   5.983   3.436   5.985 -0.1522  0.0897 -0.6557
   32SAPC   C12 4230   6.011   3.493   6.129 -1.1912  0.0828  0.6630
   32SAPC  H12A 4231   5.972   3.593   6.138  1.9628  1.4012  0.1767
   32SAPC  H12B 4232   6.118   3.493   6.143 -0.6391 -1.5938 -2.9740
   32SAPC   C13 4233   6.049   3.504   5.870 -0.7626  0.3948 -0.2423
   32SAPC  H13A 4234   6.021   3.466   5.773  2.0108 -0.2037 -0.8476
   32SAPC  H13B 4235   6.035   3.611   5.865  0.4768  0.5218 -1.4803
   32SAPC  H13C 4236   6.155   3.482   5.877 -1.6969 -4.0227  1.3922
   32SAPC   C14 4237   6.011   3.292   5.989 -0.1527  0.5077 -0.0147
   32SAPC  H14A 4238   5.957   3.239   6.066 -1.4040 -0.5540 -1.5779
   32SAPC  H14B 4239   5.986   3.258   5.889 -1.1481  1.4931 -0.1026
   32SAPC  H14C 4240   6.115   3.262   5.995 -0.7211 -1.9541 -1.4906
   32SAPC   C15 4241   5.834   3.461   5.956  0.6791 -0.3133  0.2500
   32SAPC  H15A 4242   5.810   3.566   5.966 -0.4318 -0.4481 -0.9430
   32SAPC  H15B 4243   5.801   3.442   5.855  1.0145 -0.3877  0.1523
   32SAPC  H15C 4244   5.766   3.423   6.030 -0.4213  0.6522 -0.2539
   32SAPC   C11 4245   5.957   3.421   6.251  0.0314  0.1883  0.3081
   32SAPC  H11A 4246   5.991   3.476   6.342 -0.2483  0.2429  0.3806
   32SAPC  H11B 4247   5.995   3.317   6.253  3.0839  1.2811  1.0633
   32SAPC     P 4248   5.720   3.526   6.307  0.2676 -0.1237 -0.3794
   32SAPC   O13 4249   5.759   3.657   6.243  0.2460 -0.0642 -0.0554
   32SAPC   O14 4250   5.575   3.488   6.307  0.6872 -0.5866  0.0438
   32SAPC   O12 4251   5.814   3.411   6.246  0.2147  0.9011 -0.6380
   32SAPC   O11 4252   5.771   3.517   6.457  0.7879  0.3346  0.1923
   32SAPC    C1 4253   5.691   3.475   6.563  0.8509  0.1226 -0.2434
   32SAPC    HA 4254   5.630   3.386   6.537  1.0761  0.4252 -1.8196
   32SAPC    HB 4255   5.759   3.439   6.644 -0.5220 -1.6019  0.1735
   32SAPC    C2 4256   5.606   3.588   6.623  0.5857  0.3224  0.1395
   32SAPC    HS 4257   5.567   3.654   6.543  0.1651 -0.5427 -0.3803
   32SAPC   O21 4258   5.683   3.670   6.710  0.2747 -0.2953 -0.2274
   32SAPC   C21 4259   5.750   3.766   6.660  0.0017 -0.4678  0.5767
   32SAPC   O22 4260   5.768   3.789   6.543  0.1027  0.3366  0.2773
   32SAPC   C22 4261   5.822   3.847   6.770 -0.0937  0.7144  0.3481
   32SAPC   H2R 4262   5.896   3.779   6.817 -0.7401  0.3403  0.8353
   32SAPC   H2S 4263   5.876   3.925   6.712  0.9905 -0.7607 -0.6702
   32SAPC    C3 4264   5.482   3.530   6.697  0.2852 -0.1339 -0.4724
   32SAPC    HX 4265   5.415   3.476   6.627 -0.4348 -0.0846  0.1698
   32SAPC    HY 4266   5.412   3.607   6.736  0.6016 -0.2737  0.3869
   32SAPC   O31 4267   5.519   3.426   6.796  0.0483 -0.3944  0.0597
   32SAPC   C31 4268   5.535   3.478   6.916  0.4275  0.1726  0.2047
   32SAPC   O32 4269   5.520   3.596   6.945  0.3237 -0.0422  0.4073
   32SAPC   C32 4270   5.553   3.372   7.019  0.3097 -0.4463  0.1300
   32SAPC   H2X 4271   5.650   3.319   7.007 -1.6640 -3.6939 -2.2334
   32SAPC   H2Y 4272   5.480   3.289   7.010  1.1407 -1.0552 -1.2569
   32SAPC   C23 4273   5.730   3.924   6.874 -0.3888  0.6287  0.2081
   32SAPC   H3R 4274   5.717   3.843   6.949 -1.9810  1.0270  0.3917
   32SAPC   H3S 4275   5.629   3.951   6.834 -0.4184  1.1523  0.6346
   32SAPC   C24 4276   5.806   4.040   6.943  0.0152  0.3271  0.3540
   32SAPC   H4R 4277   5.744   4.092   7.019 -0.6495  1.1663 -0.7360
   32SAPC   H4S 4278   5.836   4.105   6.857  0.8092 -0.2802  0.1629
   32SAPC   C25 4279   5.933   3.968   7.001 -0.2050 -0.0970 -0.9260
   32SAPC   H5R 4280   6.014   3.939   6.932 -0.3788 -0.7031 -0.8770
   32SAPC   C26 4281   5.944   3.935   7.134 -0.0210  0.4423 -0.2397
   32SAPC   H6R 4282   6.025   3.867   7.165 -1.1886 -0.4461  0.8760
   32SAPC   C27 4283   5.854   3.976   7.244 -0.0779 -0.6247  0.4542
   32SAPC   H7R 4284   5.752   3.934   7.230  0.4597 -2.0213  0.7342
   32SAPC   H7S 4285   5.840   4.086   7.234 -0.1693 -0.7012 -0.2560
   32SAPC   C28 4286   5.896   3.951   7.380  0.3716  0.1566 -0.1823
   32SAPC   H8R 4287   6.000   3.979   7.402 -0.0250  0.9567  0.7268
   32SAPC   C29 4288   5.828   3.904   7.482  0.7687  0.1198 -0.3287
   32SAPC   H9R 4289   5.872   3.896   7.582 -0.7233 -4.4510  0.0681
   32SAPC  C210 4290   5.685   3.863   7.485  0.2018 -0.6962  0.2113
   32SAPC  H10R 4291   5.643   3.885   7.385  0.3477 -0.7462  0.1388
   32SAPC  H10S 4292   5.624   3.907   7.567  1.5013  0.0449  0.7974
   32SAPC  C211 4293   5.684   3.713   7.499  0.1286 -0.4056 -0.0953
   32SAPC  H11R 4294   5.743   3.672   7.416  0.3185  0.4770 -0.4064
   32SAPC  C212 4295   5.635   3.643   7.600  0.3932 -0.1073 -0.0708
   32SAPC  H12R 4296   5.650   3.534   7.594  1.7642  0.0340  0.6594
   32SAPC  C213 4297   5.558   3.696   7.723 -0.2238 -0.2364  0.3038
   32SAPC  H13R 4298   5.474   3.627   7.749 -0.3127  0.1875  1.1436
   32SAPC  H13S 4299   5.498   3.787   7.703 -2.1949 -2.0137 -2.3071
   32SAPC  C214 4300   5.654   3.713   7.839 -0.0786  0.0250  0.3870
   32SAPC  H14R 4301   5.748   3.660   7.814 -1.2513 -0.6050 -2.9325
   32SAPC  C215 4302   5.622   3.786   7.955 -0.2384 -0.3602  0.2291
   32SAPC  H15R 4303   5.693   3.786   8.039  1.8951 -1.0270 -1.5186
   32SAPC  C216 4304   5.485   3.848   7.982 -0.2704  0.4141 -0.4148
   32SAPC  H16R 4305   5.407   3.831   7.905 -0.5248  0.1271 -0.0978
   32SAPC  H16S 4306   5.486   3.959   7.989 -1.5872  0.4344 -0.4199
   32SAPC  C217 4307   5.416   3.799   8.114  0.3706  0.3786 -0.1981
   32SAPC  H17R 4308   5.326   3.859   8.140  0.5594  0.3730  0.4825
   32SAPC  H17S 4309   5.486   3.832   8.193 -0.2809  1.7910 -0.1946
   32SAPC  C218 4310   5.379   3.648   8.112  0.6492 -0.2854 -0.6567
   32SAPC  H18R 4311   5.436   3.585   8.041  1.7074 -0.7721  0.6112
   32SAPC  H18S 4312   5.272   3.638   8.082 -0.0173 -0.4380  1.6251
   32SAPC  C219 4313   5.387   3.590   8.248 -0.8800  1.0608 -0.0910
   32SAPC  H19R 4314   5.382   3.483   8.219  0.4244  1.4556 -1.8853
   32SAPC  H19S 4315   5.304   3.629   8.311 -1.1163 -0.8448  0.8246
   32SAPC  C220 4316   5.517   3.602   8.319 -0.6832  0.1585 -0.2069
   32SAPC  H20R 4317   5.548   3.704   8.352  2.7574 -0.4836 -1.2065
   32SAPC  H20S 4318   5.604   3.554   8.270 -1.3498 -0.6722 -0.5836
   32SAPC  H20T 4319   5.507   3.548   8.416 -0.0412  0.1668 -0.1285
   32SAPC   C33 4320   5.524   3.430   7.162  0.3387 -0.2018 -0.2633
   32SAPC   H3X 4321   5.419   3.464   7.174  0.5993  0.3020  0.5833
   32SAPC   H3Y 4322   5.599   3.507   7.188 -1.4320  1.5909 -0.3464
   32SAPC   C34 4323   5.520   3.311   7.256  0.7110  0.3923 -0.2740
   32SAPC   H4X 4324   5.610   3.246   7.251 -0.3659 -1.0746 -0.8245
   32SAPC   H4Y 4325   5.431   3.251   7.228 -0.4344  1.5462  0.8136
   32SAPC   C35 4326   5.511   3.360   7.398  0.2366 -0.2805  0.6255
   32SAPC   H5X 4327   5.426   3.431   7.395  0.9238  0.6005  1.6261
   32SAPC   H5Y 4328   5.607   3.412   7.416  0.2599 -0.0272 -0.2613
   32SAPC   C36 4329   5.485   3.245   7.504  1.0632  0.1570  0.3322
   32SAPC   H6X 4330   5.569   3.175   7.485 -0.2233 -1.0857 -1.0423
   32SAPC   H6Y 4331   5.389   3.193   7.483  1.5154 -1.1325  1.3703
   32SAPC   C37 4332   5.477   3.284   7.654 -0.4670 -0.4239 -0.3714
   32SAPC   H7X 4333   5.576   3.326   7.679 -1.1915  1.4846 -0.6115
   32SAPC   H7Y 4334   5.460   3.194   7.717  0.1226 -0.1664  0.1617
   32SAPC   C38 4335   5.360   3.379   7.700 -0.0818  0.5191  0.0509
   32SAPC   H8X 4336   5.263   3.339   7.662 -0.2718  0.5043  0.5575
   32SAPC   H8Y 4337   5.380   3.474   7.646 -0.4242  0.0261 -0.9680
   32SAPC   C39 4338   5.349   3.388   7.857 -0.3634  0.3370  0.3668
   32SAPC   H9X 4339   5.301   3.484   7.886  0.5729  0.9068  0.0622
   32SAPC   H9Y 4340   5.455   3.388   7.890  0.7437  1.5959 -2.9904
   32SAPC  C310 4341   5.290   3.262   7.921 -0.4626  0.5240 -0.1274
   32SAPC  H10X 4342   5.356   3.176   7.898  0.3831  0.7197  1.4679
   32SAPC  H10Y 4343   5.188   3.254   7.879 -0.5935 -0.9739  0.4564
   32SAPC  C311 4344   5.274   3.275   8.074 -0.1778 -0.0782  0.7596
   32SAPC  H11X 4345   5.209   3.362   8.095  2.0729  0.9977  3.6194
   32SAPC  H11Y 4346   5.373   3.289   8.123 -1.1062  2.9507  1.8613
   32SAPC  C312 4347   5.203   3.151   8.137 -0.4657  0.9722 -1.0452
   32SAPC  H12X 4348   5.258   3.057   8.116 -1.0029  0.7758 -1.5878
   32SAPC  H12Y 4349   5.097   3.146   8.106 -0.5854  0.7472 -0.5934
   32SAPC  C313 4350   5.205   3.172   8.295  0.4780  0.2308  0.5187
   32SAPC  H13X 4351   5.298   3.212   8.341  0.1420  0.1232  1.3103
   32SAPC  H13Y 4352   5.195   3.071   8.341  0.9481 -0.3874 -0.7158
   32SAPC  C314 4353   5.096   3.264   8.348  0.4071 -0.2465 -0.5521
   32SAPC  H14X 4354   4.995   3.230   8.317 -0.3299  0.4788  0.9647
   32SAPC  H14Y 4355   5.118   3.369   8.319  0.6789  0.4283  1.9739
   32SAPC  C315 4356   5.085   3.280   8.500 -0.4162 -0.1323 -0.7757
   32SAPC  H15X 4357   5.010   3.353   8.536  0.3554  0.1885  0.2188
   32SAPC  H15Y 4358   5.186   3.312   8.535 -0.2988 -0.1797 -1.0717
   32SAPC  C316 4359   5.037   3.157   8.570  0.0834  0.8569 -0.0950
   32SAPC  H16X 4360   5.121   3.084   8.566  1.6319  2.5797  0.1589
   32SAPC  H16Y 4361   4.946   3.114   8.523  0.1859 -1.1326  1.4664
   32SAPC  C317 4362   5.038   3.170   8.720  0.0017  0.3470  0.2416
   32SAPC  H17X 4363   4.971   3.254   8.749 -0.9558 -0.1539 -0.5251
   32SAPC  H17Y 4364   5.132   3.210   8.763 -0.6927  2.4377 -0.1315
   32SAPC  C318 4365   4.995   3.040   8.797 -0.1337 -0.1385  0.4290
   32SAPC  H18X 4366   4.959   3.063   8.900  1.7534 -1.0799  1.3233
   32SAPC  H18Y 4367   5.066   2.954   8.795 -0.8479 -0.7284 -2.5055
   32SAPC  H18Z 4368   4.904   2.998   8.748  0.4117 -1.1245  0.2627
   33POPC     N 4369   4.168   4.090  10.692 -0.0316 -0.3589 -0.4302
   33POPC   C12 4370   4.183   3.964  10.608 -0.3208 -0.3266 -0.1678
   33POPC  H12A 4371   4.149   3.882  10.669 -3.9005  1.4124  0.3519
   33POPC  H12B 4372   4.287   3.945  10.587 -0.7025 -2.4504 -0.2414
   33POPC   C13 4373   4.259   4.077  10.808  0.0177  0.7670  0.5332
   33POPC  H13A 4374   4.361   4.080  10.771 -0.1720 -0.4044 -0.1160
   33POPC  H13B 4375   4.248   4.164  10.871 -1.7025  1.2571 -0.4143
   33POPC  H13C 4376   4.257   3.989  10.871  4.3189  0.4561  0.4185
   33POPC   C14 4377   4.196   4.216  10.628 -0.0724 -0.5331  0.6289
   33POPC  H14A 4378   4.140   4.227  10.536 -1.7523  2.2726  1.9103
   33POPC  H14B 4379   4.172   4.295  10.698 -1.0905 -0.7113  0.4872
   33POPC  H14C 4380   4.297   4.211  10.591 -0.4594  0.9793 -0.7150
   33POPC   C15 4381   4.030   4.098  10.746  1.1065  0.6606  0.1831
   33POPC  H15A 4382   3.962   4.094  10.663 -1.3002  4.3031  1.8581
   33POPC  H15B 4383   4.020   4.187  10.806 -0.6741  0.5751  0.0367
   33POPC  H15C 4384   4.009   4.007  10.801  0.6597  1.1762  0.8698
   33POPC   C11 4385   4.093   3.958  10.483 -0.4804  0.0968 -0.5172
   33POPC  H11A 4386   4.123   3.866  10.428 -0.2016 -1.0569  1.5535
   33POPC  H11B 4387   4.119   4.041  10.413  6.5683 -0.8514  0.5861
   33POPC     P 4388   3.851   4.027  10.424 -0.2826  0.2686  0.2241
   33POPC   O13 4389   3.887   4.014  10.282  0.4173  0.5139 -0.4458
   33POPC   O14 4390   3.819   4.157  10.487  0.4258 -0.1808  0.3551
   33POPC   O12 4391   3.956   3.946  10.520  0.4766  0.0840 -0.0798
   33POPC   O11 4392   3.728   3.934  10.448 -0.0459 -0.2245 -0.6270
   33POPC    C1 4393   3.718   3.797  10.404 -0.1965  0.6224 -0.0655
   33POPC    HA 4394   3.816   3.754  10.375  0.0605  0.0175  1.6580
   33POPC    HB 4395   3.691   3.737  10.493 -0.4221  1.2887  0.3213
   33POPC    C2 4396   3.616   3.775  10.289  0.0236 -0.6519 -0.0123
   33POPC    HS 4397   3.609   3.668  10.260  0.6824 -0.6418 -0.2112
   33POPC   O21 4398   3.643   3.861  10.171 -0.8006  0.4121 -0.1825
   33POPC   C21 4399   3.743   3.813  10.088 -0.3044  1.0234  0.7054
   33POPC   O22 4400   3.817   3.719  10.115  0.4423  0.0215 -0.2422
   33POPC   C22 4401   3.758   3.901   9.971  0.6757  0.0183  0.1737
   33POPC   H2R 4402   3.865   3.901   9.938  0.6817 -0.3786  0.1959
   33POPC   H2S 4403   3.728   4.006   9.994 -1.5697 -0.2523 -1.3315
   33POPC    C3 4404   3.470   3.817  10.339  0.4292 -0.7388  0.8564
   33POPC    HX 4405   3.491   3.924  10.362  0.3441 -0.6526  0.5430
   33POPC    HY 4406   3.436   3.770  10.433 -1.8174 -0.9889 -0.0532
   33POPC   O31 4407   3.370   3.798  10.235 -0.3797 -0.2942 -0.0293
   33POPC   C31 4408   3.273   3.875  10.223 -0.0612 -0.3184  0.0865
   33POPC   O32 4409   3.253   3.973  10.301 -0.2224 -0.1224  0.0921
   33POPC   C32 4410   3.183   3.819  10.115 -0.0616 -0.0904  0.4201
   33POPC   H2X 4411   3.079   3.801  10.150 -1.5304  1.2138 -2.9700
   33POPC   H2Y 4412   3.214   3.718  10.083  2.8097  0.1184  2.3898
   33POPC   C23 4413   3.689   3.856   9.842 -0.0510 -0.3886  0.2774
   33POPC   H3R 4414   3.579   3.838   9.847 -0.1485  0.5545  1.6684
   33POPC   H3S 4415   3.733   3.756   9.819  1.5861  0.3071  0.3312
   33POPC   C24 4416   3.708   3.946   9.722 -0.4564 -0.1362 -0.3185
   33POPC   H4R 4417   3.816   3.963   9.704 -0.1881 -1.3887  0.1141
   33POPC   H4S 4418   3.653   4.042   9.734 -1.6434 -0.9438  0.7614
   33POPC   C25 4419   3.653   3.866   9.599 -0.2628 -0.3571 -0.0942
   33POPC   H5R 4420   3.551   3.832   9.626 -1.7314  1.9019 -2.6551
   33POPC   H5S 4421   3.718   3.778   9.581  0.3406  0.2034 -0.6701
   33POPC   C26 4422   3.639   3.944   9.470  0.3979  0.1089 -0.0715
   33POPC   H6R 4423   3.740   3.966   9.429 -0.2725  2.6483 -0.4016
   33POPC   H6S 4424   3.588   4.039   9.493 -1.2790 -0.7715 -0.1146
   33POPC   C27 4425   3.541   3.862   9.375  0.2556  0.0323 -0.4716
   33POPC   H7R 4426   3.529   3.924   9.283 -2.5061 -0.0489 -0.2100
   33POPC   H7S 4427   3.442   3.860   9.425  0.5340  1.8690  0.1984
   33POPC   C28 4428   3.589   3.718   9.342 -0.6230  0.0852 -0.2396
   33POPC   H8R 4429   3.594   3.654   9.432  2.5900 -1.7631 -1.6407
   33POPC   H8S 4430   3.690   3.720   9.297 -0.7978 -2.6210 -0.8648
   33POPC   C29 4431   3.488   3.662   9.244 -0.2788  0.7019  0.1315
   33POPC   H91 4432   3.387   3.706   9.249 -0.4906  0.1381  0.7445
   33POPC  C210 4433   3.500   3.566   9.152  0.8620 -0.0967 -0.5227
   33POPC  H101 4434   3.406   3.539   9.101 -0.7929  4.3422 -0.1033
   33POPC  C211 4435   3.621   3.483   9.137 -0.2939  0.1393 -0.1797
   33POPC  H11R 4436   3.709   3.540   9.173 -0.2532 -0.3037  0.4251
   33POPC  H11S 4437   3.636   3.449   9.033  1.4032 -0.8136  0.3641
   33POPC  C212 4438   3.603   3.364   9.236  0.0343  0.3086 -0.4985
   33POPC  H12R 4439   3.505   3.315   9.221 -0.0928  0.3568  0.1358
   33POPC  H12S 4440   3.601   3.406   9.339 -2.3542  0.2026 -0.4784
   33POPC  C213 4441   3.725   3.265   9.225 -0.1152 -0.4620  0.1900
   33POPC  H13R 4442   3.813   3.333   9.217 -0.7813  0.3501 -0.3401
   33POPC  H13S 4443   3.723   3.207   9.130  0.6473 -1.1520  0.5893
   33POPC  C214 4444   3.748   3.176   9.341 -0.6992  0.5765 -0.1217
   33POPC  H14R 4445   3.651   3.126   9.362 -0.6113  0.3763 -0.1879
   33POPC  H14S 4446   3.775   3.245   9.423  1.5816 -1.8605  1.2697
   33POPC  C215 4447   3.858   3.075   9.316 -0.0910 -0.5603  0.6802
   33POPC  H15R 4448   3.952   3.133   9.302  0.4905 -1.9849 -1.6254
   33POPC  H15S 4449   3.847   3.016   9.222 -0.3374 -0.4402  0.6354
   33POPC  C216 4450   3.853   2.969   9.429  0.1904 -0.0184  0.8335
   33POPC  H16R 4451   3.749   2.930   9.435  0.2550 -0.5165 -1.1728
   33POPC  H16S 4452   3.875   3.025   9.522 -3.2922  0.9619  1.1424
   33POPC  C217 4453   3.963   2.862   9.409  0.4195  0.4315  0.1921
   33POPC  H17R 4454   4.061   2.901   9.376 -0.1308  1.0970 -0.6887
   33POPC  H17S 4455   3.913   2.784   9.347 -0.9031  0.5925  1.0236
   33POPC  C218 4456   4.005   2.781   9.534 -0.4679  0.2366  0.2233
   33POPC  H18R 4457   4.065   2.847   9.599  1.0256  0.5619 -1.4532
   33POPC  H18S 4458   4.062   2.692   9.499 -1.4676 -0.0983 -0.5751
   33POPC  H18T 4459   3.916   2.741   9.589 -0.2593  0.9390  1.0820
   33POPC   C33 4460   3.165   3.898   9.986 -0.8917 -0.0648  0.9065
   33POPC   H3X 4461   3.149   4.006  10.008 -1.3251 -0.1564  1.0465
   33POPC   H3Y 4462   3.071   3.855   9.944 -1.3539  0.8925  0.9557
   33POPC   C34 4463   3.279   3.881   9.892 -0.1391  1.0909  0.4331
   33POPC   H4X 4464   3.273   3.774   9.862  0.8754  0.2289  3.2188
   33POPC   H4Y 4465   3.369   3.881   9.956  0.0487  1.4403  0.1716
   33POPC   C35 4466   3.282   3.962   9.760  0.1827 -0.0627  0.5798
   33POPC   H5X 4467   3.385   3.961   9.718 -0.0918  0.0384 -0.0889
   33POPC   H5Y 4468   3.253   4.065   9.791 -2.5907  0.2548 -2.7968
   33POPC   C36 4469   3.182   3.909   9.660 -0.1294 -0.9704  1.0174
   33POPC   H6X 4470   3.081   3.895   9.703 -0.6381 -2.1002 -0.5340
   33POPC   H6Y 4471   3.216   3.805   9.642  1.0088 -0.1145 -2.0587
   33POPC   C37 4472   3.172   3.991   9.533  0.3303  0.0177  0.4108
   33POPC   H7X 4473   3.270   4.028   9.496 -1.4449  2.0418 -2.3963
   33POPC   H7Y 4474   3.118   4.087   9.542  0.3340 -0.0818  1.5674
   33POPC   C38 4475   3.113   3.901   9.423  0.1277 -0.4313  0.7279
   33POPC   H8X 4476   3.012   3.866   9.452  0.2658 -2.8085 -1.4308
   33POPC   H8Y 4477   3.178   3.811   9.410 -1.0417 -1.0307 -1.1739
   33POPC   C39 4478   3.087   3.962   9.286  0.4879 -0.6294  0.6467
   33POPC   H9X 4479   3.050   4.067   9.287 -2.1573 -1.5350  2.6435
   33POPC   H9Y 4480   3.019   3.897   9.228  2.2217 -0.6057 -1.4950
   33POPC  C310 4481   3.211   3.971   9.182 -0.7745  0.0656  0.1754
   33POPC  H10X 4482   3.248   3.869   9.157 -0.4763  0.2087  0.0233
   33POPC  H10Y 4483   3.295   4.017   9.238 -0.3953  0.6338 -0.8351
   33POPC  C311 4484   3.175   4.051   9.060 -0.4444 -0.2647  0.7656
   33POPC  H11X 4485   3.122   4.145   9.085  0.2320  0.5120 -0.6318
   33POPC  H11Y 4486   3.096   4.005   8.997 -0.1813  1.4080 -0.8172
   33POPC  C312 4487   3.304   4.058   8.972 -0.2429 -0.7057  0.1185
   33POPC  H12X 4488   3.334   3.957   8.935 -2.2098 -0.4689 -2.2330
   33POPC  H12Y 4489   3.385   4.085   9.043 -1.0552 -1.0659  1.1963
   33POPC  C313 4490   3.296   4.162   8.857  0.1532 -0.1593  0.2703
   33POPC  H13X 4491   3.217   4.138   8.783  1.8882 -2.9660 -0.7636
   33POPC  H13Y 4492   3.390   4.158   8.798  0.5651  1.3566  0.7928
   33POPC  C314 4493   3.287   4.310   8.903  0.0975 -0.3488  0.3789
   33POPC  H14X 4494   3.364   4.325   8.982 -1.1777  2.3924  1.1561
   33POPC  H14Y 4495   3.184   4.326   8.943  0.4997  0.1554  1.2275
   33POPC  C315 4496   3.309   4.415   8.796 -0.3867  0.3645  0.2226
   33POPC  H15X 4497   3.221   4.431   8.730 -0.8602  2.7668  1.3737
   33POPC  H15Y 4498   3.387   4.374   8.729  0.5122  1.1653  0.7749
   33POPC  C316 4499   3.358   4.547   8.848 -0.4810  0.3761  0.1901
   33POPC  H16X 4500   3.443   4.525   8.916 -0.2667  0.9322  0.1097
   33POPC  H16Y 4501   3.282   4.601   8.909 -1.9949 -1.2164 -0.2711
   33POPC  H16Z 4502   3.394   4.612   8.765 -1.9471  0.6718 -0.2323
   34POPC     N 4503   3.528   4.493  11.149 -0.1672 -0.8428  0.6424
   34POPC   C12 4504   3.435   4.436  11.053 -0.2662 -0.5236 -0.3210
   34POPC  H12A 4505   3.336   4.428  11.097 -0.3690  1.0050 -0.2355
   34POPC  H12B 4506   3.462   4.337  11.021 -0.8989 -0.9966  0.5804
   34POPC   C13 4507   3.668   4.490  11.094 -0.0718 -0.2024  0.2533
   34POPC  H13A 4508   3.685   4.553  11.008 -0.3395 -1.8217 -0.9988
   34POPC  H13B 4509   3.732   4.514  11.178  0.1579 -1.1651  0.3550
   34POPC  H13C 4510   3.695   4.392  11.060 -0.7957  0.2159 -1.5855
   34POPC   C14 4511   3.500   4.637  11.182  0.4317 -0.3914  0.1306
   34POPC  H14A 4512   3.576   4.663  11.254 -0.8724 -1.1667  1.8285
   34POPC  H14B 4513   3.499   4.702  11.097  0.5487 -0.3138  0.1891
   34POPC  H14C 4514   3.403   4.653  11.228  0.2971 -1.6523  0.3021
   34POPC   C15 4515   3.528   4.410  11.269 -0.7269 -0.1198 -1.4285
   34POPC  H15A 4516   3.615   4.437  11.327 -0.8368 -0.2769 -1.1898
   34POPC  H15B 4517   3.535   4.305  11.242  0.9559 -0.7189  1.1124
   34POPC  H15C 4518   3.446   4.419  11.338 -0.0670 -4.8390  0.1667
   34POPC   C11 4519   3.422   4.515  10.923 -0.2700  0.4788 -0.6846
   34POPC  H11A 4520   3.516   4.565  10.891  0.2079 -0.2003 -0.3549
   34POPC  H11B 4521   3.346   4.595  10.941 -1.3652 -0.3687 -1.4872
   34POPC     P 4522   3.458   4.334  10.747 -0.1318 -0.2237  0.4312
   34POPC   O13 4523   3.371   4.272  10.641  0.5753  0.0687 -0.1471
   34POPC   O14 4524   3.536   4.254  10.843  0.5458 -0.5665  0.0590
   34POPC   O12 4525   3.370   4.422  10.827  0.3558  0.1776 -0.0166
   34POPC   O11 4526   3.557   4.448  10.692  0.2904 -0.8988 -0.2713
   34POPC    C1 4527   3.507   4.565  10.618  0.0971  0.1030  0.2194
   34POPC    HA 4528   3.593   4.625  10.582 -1.7466  1.2641 -2.4386
   34POPC    HB 4529   3.441   4.624  10.685  0.4792 -2.1538  2.6842
   34POPC    C2 4530   3.423   4.532  10.480  0.4798  0.3607 -0.2617
   34POPC    HS 4531   3.325   4.487  10.509  1.7458 -2.8515 -0.7520
   34POPC   O21 4532   3.508   4.460  10.397 -0.2725  0.1359 -0.1196
   34POPC   C21 4533   3.440   4.357  10.340  0.3944 -0.3385 -0.2709
   34POPC   O22 4534   3.322   4.342  10.333  0.0298 -0.1321  0.2204
   34POPC   C22 4535   3.540   4.258  10.286  0.6043  0.2605  1.0213
   34POPC   H2R 4536   3.556   4.177  10.361 -3.1163 -0.4396  1.1406
   34POPC   H2S 4537   3.632   4.312  10.256  1.1308 -1.7516 -1.1149
   34POPC    C3 4538   3.383   4.659  10.400 -0.2535  0.0761  0.6446
   34POPC    HX 4539   3.467   4.710  10.351 -0.3431  1.0375  1.4789
   34POPC    HY 4540   3.348   4.725  10.483  1.7363  1.6732  0.2226
   34POPC   O31 4541   3.269   4.627  10.314 -0.0909  0.9859  0.4334
   34POPC   C31 4542   3.297   4.625  10.182  0.1528  0.5052  0.4595
   34POPC   O32 4543   3.399   4.658  10.135 -0.4152  0.0734  0.1953
   34POPC   C32 4544   3.166   4.593  10.109 -0.3215  0.3457 -0.0588
   34POPC   H2X 4545   3.135   4.686  10.056 -0.8311 -0.5341 -1.3448
   34POPC   H2Y 4546   3.083   4.570  10.179  0.5781 -1.5561  0.4065
   34POPC   C23 4547   3.494   4.194  10.155 -0.0561 -0.0388 -0.6727
   34POPC   H3R 4548   3.392   4.152  10.167 -0.1645  0.6202  0.7426
   34POPC   H3S 4549   3.564   4.112  10.129 -0.8930 -2.1073  3.2300
   34POPC   C24 4550   3.500   4.285  10.034 -0.0767  0.5745 -1.0454
   34POPC   H4R 4551   3.606   4.318  10.027  0.1266  0.4214  1.0067
   34POPC   H4S 4552   3.420   4.361  10.048 -1.8724 -1.5590  0.7040
   34POPC   C25 4553   3.455   4.219   9.905  0.2392  0.0686 -0.4361
   34POPC   H5R 4554   3.345   4.211   9.894  0.0691  2.6362 -1.0339
   34POPC   H5S 4555   3.497   4.116   9.906 -1.7661 -0.8328 -3.3930
   34POPC   C26 4556   3.488   4.305   9.779  0.0059 -0.1716 -0.1147
   34POPC   H6R 4557   3.598   4.313   9.762 -0.6616  1.1589 -4.2844
   34POPC   H6S 4558   3.451   4.405   9.807 -1.6117 -0.1330 -2.2664
   34POPC   C27 4559   3.426   4.248   9.648  0.0417 -0.0896 -0.4279
   34POPC   H7R 4560   3.319   4.244   9.677 -0.0005 -2.0477 -0.7966
   34POPC   H7S 4561   3.465   4.147   9.623  0.6748  0.3614 -1.2827
   34POPC   C28 4562   3.430   4.348   9.533 -0.0283  0.6244 -0.2083
   34POPC   H8R 4563   3.394   4.450   9.556 -0.6038  0.0755  1.3559
   34POPC   H8S 4564   3.355   4.313   9.459 -2.5358 -0.3107  2.6719
   34POPC   C29 4565   3.573   4.366   9.478  0.1109 -0.1272 -0.2057
   34POPC   H91 4566   3.635   4.438   9.532 -0.6987  0.2259  0.2515
   34POPC  C210 4567   3.620   4.328   9.364 -0.5878 -0.3887  0.0822
   34POPC  H101 4568   3.719   4.369   9.340 -1.6876  2.0465 -0.4693
   34POPC  C211 4569   3.545   4.257   9.250  0.1897  0.8244  0.0783
   34POPC  H11R 4570   3.455   4.315   9.222 -1.6274 -1.1587  1.6458
   34POPC  H11S 4571   3.518   4.155   9.286 -0.4052  1.4694  1.4966
   34POPC  C212 4572   3.646   4.222   9.140 -0.2139  0.1082  0.2340
   34POPC  H12R 4573   3.588   4.147   9.082  0.2370 -0.0898  0.0460
   34POPC  H12S 4574   3.738   4.172   9.177 -0.8790  0.4712  2.4961
   34POPC  C213 4575   3.677   4.342   9.054  0.0879 -0.6451  0.4907
   34POPC  H13R 4576   3.730   4.401   9.131 -0.3263 -0.6351  0.7685
   34POPC  H13S 4577   3.587   4.402   9.030 -0.5258 -1.6653  0.1957
   34POPC  C214 4578   3.761   4.323   8.924  0.2426  0.7284  0.2059
   34POPC  H14R 4579   3.694   4.260   8.861 -0.5696  0.4311  1.3580
   34POPC  H14S 4580   3.853   4.266   8.950  0.2128  0.5650 -0.0391
   34POPC  C215 4581   3.797   4.449   8.845 -0.1761 -0.0536  0.5161
   34POPC  H15R 4582   3.841   4.523   8.915 -0.0013  0.2327  0.1028
   34POPC  H15S 4583   3.700   4.494   8.815  0.4541  0.0182 -1.4665
   34POPC  C216 4584   3.898   4.423   8.735  0.2988 -0.3298  0.2135
   34POPC  H16R 4585   3.994   4.385   8.777  0.0560  0.7988  1.8729
   34POPC  H16S 4586   3.917   4.524   8.692  0.8257 -0.4279  0.2125
   34POPC  C217 4587   3.842   4.311   8.643 -0.5446 -0.4191  0.2569
   34POPC  H17R 4588   3.752   4.357   8.596  0.9661  2.0071 -0.3468
   34POPC  H17S 4589   3.805   4.218   8.691 -0.1870 -0.9230 -0.4255
   34POPC  C218 4590   3.945   4.264   8.535 -0.3094  0.3578  0.4392
   34POPC  H18R 4591   4.029   4.222   8.594  2.2471  0.6651 -2.8421
   34POPC  H18S 4592   3.978   4.346   8.467  0.2687 -0.2055  0.0285
   34POPC  H18T 4593   3.922   4.175   8.471  1.7377 -0.3780  0.6660
   34POPC   C33 4594   3.184   4.483  10.004  0.2603 -0.0553  0.6788
   34POPC   H3X 4595   3.184   4.378  10.042  0.0833 -0.1011  0.5556
   34POPC   H3Y 4596   3.274   4.504   9.943  0.4153  0.4063  1.0615
   34POPC   C34 4597   3.065   4.488   9.900  0.4719  0.0252  0.0110
   34POPC   H4X 4598   3.077   4.575   9.832 -0.4548  1.8643  2.1041
   34POPC   H4Y 4599   2.976   4.513   9.961  0.1942 -1.1259  0.0767
   34POPC   C35 4600   3.056   4.353   9.823 -0.5549 -0.6770 -0.5733
   34POPC   H5X 4601   3.037   4.270   9.894  0.4733  0.2965  0.8700
   34POPC   H5Y 4602   3.161   4.324   9.798 -0.6016 -2.2648  1.0271
   34POPC   C36 4603   2.962   4.355   9.700  0.2057 -0.5051  0.1200
   34POPC   H6X 4604   2.874   4.417   9.726 -0.5224 -2.1283  1.6054
   34POPC   H6Y 4605   2.929   4.251   9.681 -2.0242  0.0621  0.7768
   34POPC   C37 4606   3.040   4.403   9.573  0.3501 -0.2941  0.7242
   34POPC   H7X 4607   3.144   4.365   9.583 -0.2931 -2.4804 -0.5183
   34POPC   H7Y 4608   3.063   4.511   9.587  0.1087 -0.0432 -0.7617
   34POPC   C38 4609   2.982   4.359   9.434 -0.1468 -0.5760  0.7348
   34POPC   H8X 4610   2.879   4.397   9.419  0.1298  0.6497  1.8085
   34POPC   H8Y 4611   2.975   4.249   9.422 -0.2334 -0.5192  0.2741
   34POPC   C39 4612   3.069   4.425   9.322 -0.4101 -0.4214 -0.2213
   34POPC   H9X 4613   3.028   4.380   9.229  0.2234  1.2899 -1.3432
   34POPC   H9Y 4614   3.177   4.398   9.321  0.3012  2.2915  0.6811
   34POPC  C310 4615   3.046   4.580   9.302 -0.0525  0.6919 -0.4282
   34POPC  H10X 4616   3.086   4.644   9.384 -1.4156  2.0222 -0.7768
   34POPC  H10Y 4617   2.937   4.588   9.286 -0.5355  0.2646  2.3683
   34POPC  C311 4618   3.125   4.643   9.186 -0.4239 -0.2470  0.1202
   34POPC  H11X 4619   3.104   4.577   9.099 -1.4814  0.2447 -0.0032
   34POPC  H11Y 4620   3.235   4.633   9.199 -0.6652 -0.0000  2.5545
   34POPC  C312 4621   3.082   4.793   9.170  0.2150  1.1584 -0.0245
   34POPC  H12X 4622   3.075   4.840   9.270 -0.9634  0.6650  0.1296
   34POPC  H12Y 4623   2.977   4.803   9.134  0.1876 -0.3405 -0.4324
   34POPC  C313 4624   3.162   4.881   9.076 -0.7235 -0.1209 -0.7508
   34POPC  H13X 4625   3.182   4.825   8.982 -0.5121  1.7917 -1.8741
   34POPC  H13Y 4626   3.262   4.913   9.112 -0.1603  0.9971 -3.1517
   34POPC  C314 4627   3.082   4.998   9.018 -0.6246 -0.0692 -0.5207
   34POPC  H14X 4628   2.984   4.966   8.978 -0.7041 -0.4793 -0.0151
   34POPC  H14Y 4629   3.134   5.040   8.929 -1.7902  1.4426 -0.4831
   34POPC  C315 4630   3.055   5.104   9.123  0.4829 -0.4000  0.0936
   34POPC  H15X 4631   2.989   5.072   9.207  2.0212  2.1286  2.3600
   34POPC  H15Y 4632   3.009   5.187   9.065  1.2675  1.4118  2.0013
   34POPC  C316 4633   3.181   5.161   9.189 -0.0965 -0.5668 -0.6573
   34POPC  H16X 4634   3.255   5.202   9.116 -0.7128  0.3355 -0.7763
   34POPC  H16Y 4635   3.242   5.086   9.244 -1.0114 -0.4709  0.5111
   34POPC  H16Z 4636   3.166   5.241   9.264 -0.3442 -2.3706  1.2521
   35POPC     N 4637   1.509   3.207  11.045 -0.2665 -0.8970 -0.2974
   35POPC   C12 4638   1.532   3.055  11.064 -0.3103  0.7711  0.3811
   35POPC  H12A 4639   1.532   3.007  10.967  0.2997 -0.8174  1.1392
   35POPC  H12B 4640   1.446   3.005  11.107 -0.6294 -0.0894 -1.2356
   35POPC   C13 4641   1.517   3.274  11.178  0.0192 -0.2676  0.0912
   35POPC  H13A 4642   1.619   3.268  11.212 -0.2971 -1.6578  0.8254
   35POPC  H13B 4643   1.492   3.379  11.169 -1.7491 -0.6245  0.5969
   35POPC  H13C 4644   1.459   3.235  11.261  0.0968  1.4662  0.9936
   35POPC   C14 4645   1.607   3.262  10.947 -0.3651  0.4754 -0.0633
   35POPC  H14A 4646   1.624   3.192  10.867 -0.2382  1.6673 -1.0854
   35POPC  H14B 4647   1.579   3.361  10.912 -1.0715  0.8113  1.4155
   35POPC  H14C 4648   1.703   3.280  10.993 -1.0337  1.8639  0.8453
   35POPC   C15 4649   1.369   3.221  10.995 -0.2295  0.1722  0.5587
   35POPC  H15A 4650   1.304   3.209  11.081 -2.2938  0.6050 -0.8871
   35POPC  H15B 4651   1.336   3.152  10.918  1.1867 -0.6010  0.6294
   35POPC  H15C 4652   1.346   3.321  10.961  0.7572 -0.2006 -1.2798
   35POPC   C11 4653   1.664   3.002  11.138  0.1350 -0.6323 -0.1519
   35POPC  H11A 4654   1.660   2.891  11.144 -1.3949 -0.6039 -0.3683
   35POPC  H11B 4655   1.658   3.042  11.241 -0.6362  0.4991 -0.6319
   35POPC     P 4656   1.841   2.971  10.949  0.2023  0.3293  0.3631
   35POPC   O13 4657   1.836   2.825  10.981  0.2507 -0.3103  0.3072
   35POPC   O14 4658   1.965   3.039  10.917 -0.2973  1.0635 -0.2744
   35POPC   O12 4659   1.781   3.048  11.073 -0.3001  0.3295 -0.1043
   35POPC   O11 4660   1.742   3.008  10.831  0.5098 -0.5461 -0.2904
   35POPC    C1 4661   1.683   2.915  10.740 -0.0246 -0.3136 -0.5764
   35POPC    HA 4662   1.576   2.901  10.765  0.7142 -3.1318  1.2740
   35POPC    HB 4663   1.739   2.818  10.745  1.1812  0.4875  2.3732
   35POPC    C2 4664   1.686   2.965  10.602  0.1614  0.0346  0.0637
   35POPC    HS 4665   1.627   2.893  10.541  0.7092 -1.3261  1.1153
   35POPC   O21 4666   1.823   2.971  10.563  0.1643 -0.2464 -0.3740
   35POPC   C21 4667   1.852   2.945  10.431  0.3711 -0.5112 -0.7219
   35POPC   O22 4668   1.773   2.911  10.346  0.5556 -0.4865 -0.0415
   35POPC   C22 4669   2.005   2.963  10.408 -0.0837  0.0794  0.8673
   35POPC   H2R 4670   2.048   2.885  10.475  0.4697  1.0238  1.6145
   35POPC   H2S 4671   2.029   3.065  10.443 -1.4399  0.2549  1.3125
   35POPC    C3 4672   1.635   3.115  10.590 -0.3940  0.3077 -0.0126
   35POPC    HX 4673   1.702   3.182  10.648 -0.5507  1.1021 -0.7459
   35POPC    HY 4674   1.535   3.122  10.638  0.7226 -0.5041  2.5416
   35POPC   O31 4675   1.645   3.166  10.449 -0.0125 -0.4569 -0.2042
   35POPC   C31 4676   1.556   3.127  10.369  0.0102 -0.3637 -0.0139
   35POPC   O32 4677   1.451   3.067  10.401  0.1041  0.2550 -0.1740
   35POPC   C32 4678   1.584   3.175  10.223  0.3557  0.6035  0.6834
   35POPC   H2X 4679   1.490   3.156  10.166  0.7227 -2.1068  0.9150
   35POPC   H2Y 4680   1.660   3.110  10.176 -0.7612  1.1407 -1.9193
   35POPC   C23 4681   2.058   2.925  10.265  0.2453 -0.3656  0.1236
   35POPC   H3R 4682   2.042   2.819  10.236  1.4687 -0.1673 -1.3194
   35POPC   H3S 4683   2.168   2.930  10.279  0.0768 -1.1861  1.8651
   35POPC   C24 4684   2.013   3.002  10.146  0.2159 -0.6342  1.0746
   35POPC   H4R 4685   1.997   3.105  10.183  0.0428 -0.3670  0.2722
   35POPC   H4S 4686   1.917   2.955  10.113  0.8234 -0.8581 -0.3755
   35POPC   C25 4687   2.100   2.992  10.021  0.2504  0.0244 -0.2181
   35POPC   H5R 4688   2.113   2.890   9.980  1.1938 -0.7731  1.9527
   35POPC   H5S 4689   2.196   3.035  10.058 -1.1499  3.6186 -0.5381
   35POPC   C26 4690   2.078   3.097   9.916  0.1089 -0.1613 -0.1021
   35POPC   H6R 4691   2.098   3.198   9.957 -0.2716 -0.0238 -0.2512
   35POPC   H6S 4692   1.976   3.109   9.874 -0.0301 -0.6552  0.0918
   35POPC   C27 4693   2.185   3.076   9.801  0.8320 -1.1561 -0.0061
   35POPC   H7R 4694   2.188   2.967   9.777  0.6547 -0.8293 -1.5714
   35POPC   H7S 4695   2.279   3.106   9.851 -1.2110 -0.5364  3.6016
   35POPC   C28 4696   2.145   3.159   9.678  0.6941 -0.0773 -0.0298
   35POPC   H8R 4697   2.151   3.269   9.696 -0.8630  0.4116 -2.2818
   35POPC   H8S 4698   2.037   3.141   9.660  0.1630 -0.0553  2.8477
   35POPC   C29 4699   2.219   3.131   9.552 -0.4444 -0.1653  0.7307
   35POPC   H91 4700   2.306   3.065   9.570 -0.4400 -0.4239 -0.2217
   35POPC  C210 4701   2.203   3.187   9.431  0.5552  0.5611  0.7861
   35POPC  H101 4702   2.266   3.153   9.347 -0.0415  0.7109  0.2722
   35POPC  C211 4703   2.097   3.283   9.377 -0.2358 -0.0005  0.4695
   35POPC  H11R 4704   2.044   3.322   9.466 -1.5168  2.2019 -1.1973
   35POPC  H11S 4705   2.011   3.229   9.331 -2.0965  4.0027 -1.0036
   35POPC  C212 4706   2.152   3.397   9.290 -0.3956  0.1149  0.6599
   35POPC  H12R 4707   2.239   3.440   9.343 -1.6451  0.2678  2.6520
   35POPC  H12S 4708   2.076   3.478   9.275  1.3541  1.6533 -0.1628
   35POPC  C213 4709   2.211   3.367   9.149 -0.6288 -0.6256  0.3292
   35POPC  H13R 4710   2.271   3.273   9.145  1.5599  0.7971 -2.0990
   35POPC  H13S 4711   2.284   3.444   9.115 -1.4760 -0.1292 -0.3804
   35POPC  C214 4712   2.097   3.379   9.038  0.4972  0.0483  0.0393
   35POPC  H14R 4713   2.026   3.461   9.063  1.4896  1.7649 -2.4930
   35POPC  H14S 4714   2.052   3.280   9.016  1.7692 -0.7691  1.0722
   35POPC  C215 4715   2.155   3.413   8.903 -0.0817  0.5469  0.1874
   35POPC  H15R 4716   2.229   3.333   8.879  0.1870  0.5573  0.9715
   35POPC  H15S 4717   2.205   3.512   8.899 -1.5599  1.3166  0.4160
   35POPC  C216 4718   2.051   3.397   8.797 -0.3296 -0.6587  0.0760
   35POPC  H16R 4719   1.972   3.471   8.826  0.0446 -0.3566  0.3333
   35POPC  H16S 4720   2.016   3.293   8.788  1.9431 -1.4609  0.2101
   35POPC  C217 4721   2.094   3.438   8.654 -0.4296 -1.0079 -0.2535
   35POPC  H17R 4722   2.163   3.525   8.667 -1.6978 -0.1139  0.6519
   35POPC  H17S 4723   2.012   3.446   8.581  1.3440 -1.4851 -2.3370
   35POPC  C218 4724   2.173   3.325   8.591  0.1677  0.1646  0.4114
   35POPC  H18R 4725   2.204   3.359   8.490 -0.6860 -1.5801 -0.4599
   35POPC  H18S 4726   2.112   3.232   8.582 -0.7172  0.3390  3.9555
   35POPC  H18T 4727   2.260   3.294   8.653 -1.0250 -1.7038  1.1906
   35POPC   C33 4728   1.629   3.325  10.208 -0.0825  1.7294 -0.6162
   35POPC   H3X 4729   1.721   3.332  10.269  0.5206  1.2079 -1.4600
   35POPC   H3Y 4730   1.554   3.393  10.254 -2.1434 -1.2090  0.5720
   35POPC   C34 4731   1.656   3.357  10.060  0.3648 -0.3849  0.2289
   35POPC   H4X 4732   1.653   3.468  10.057  0.6075 -0.3554  0.8928
   35POPC   H4Y 4733   1.581   3.320   9.986 -0.0528 -0.9433  0.9177
   35POPC   C35 4734   1.789   3.302  10.011  0.0225 -0.0193  0.6016
   35POPC   H5X 4735   1.784   3.192  10.000 -1.2629 -0.0222  1.0953
   35POPC   H5Y 4736   1.861   3.332  10.089  1.0091 -0.5234 -0.1017
   35POPC   C36 4737   1.822   3.362   9.872 -0.6588 -0.3393 -0.8180
   35POPC   H6X 4738   1.930   3.353   9.849 -0.4027  0.2417  0.1417
   35POPC   H6Y 4739   1.797   3.470   9.868  1.2898  0.1752  0.2919
   35POPC   C37 4740   1.739   3.295   9.765 -0.6444  0.7263  0.4284
   35POPC   H7X 4741   1.630   3.304   9.784 -0.9851 -0.3844 -0.9277
   35POPC   H7Y 4742   1.763   3.187   9.751 -0.4740  0.7690  0.3946
   35POPC   C38 4743   1.771   3.363   9.635 -0.3560  0.2493 -0.0871
   35POPC   H8X 4744   1.878   3.355   9.608 -0.0868 -1.8647  1.4872
   35POPC   H8Y 4745   1.738   3.469   9.640  0.9590  0.7583 -1.7314
   35POPC   C39 4746   1.692   3.296   9.519 -0.0823  0.2474  1.0416
   35POPC   H9X 4747   1.586   3.283   9.551  0.4744 -2.4285  1.9358
   35POPC   H9Y 4748   1.729   3.193   9.499  0.7568 -0.2385  4.8350
   35POPC  C310 4749   1.705   3.381   9.391  0.2609 -0.0841  0.1403
   35POPC  H10X 4750   1.810   3.414   9.375  0.3862  1.1861  3.2104
   35POPC  H10Y 4751   1.633   3.464   9.412 -1.5749 -2.1481  2.2912
   35POPC  C311 4752   1.642   3.325   9.262  0.5338  0.1857 -0.0154
   35POPC  H11X 4753   1.615   3.406   9.192 -1.2411  0.4099  0.9207
   35POPC  H11Y 4754   1.553   3.262   9.281  0.4027  1.0913  2.6201
   35POPC  C312 4755   1.735   3.226   9.187  0.5782 -0.1167 -0.4273
   35POPC  H12X 4756   1.761   3.143   9.256 -1.5686 -1.8867 -1.6703
   35POPC  H12Y 4757   1.826   3.278   9.149 -0.5081  1.7447 -0.5447
   35POPC  C313 4758   1.678   3.163   9.064  0.0029  0.3479  0.8293
   35POPC  H13X 4759   1.596   3.094   9.091 -0.8518  0.8469 -0.4508
   35POPC  H13Y 4760   1.752   3.097   9.014 -3.2187 -1.7274 -1.3680
   35POPC  C314 4761   1.636   3.260   8.955 -0.7552  0.4811 -0.2578
   35POPC  H14X 4762   1.721   3.321   8.916 -0.1684 -0.5536 -0.6080
   35POPC  H14Y 4763   1.572   3.339   9.001  0.1265 -0.3783  2.5993
   35POPC  C315 4764   1.560   3.194   8.844 -0.0785 -0.1472  0.0960
   35POPC  H15X 4765   1.633   3.150   8.773  2.3501 -0.5915  2.7695
   35POPC  H15Y 4766   1.511   3.275   8.786  0.3365 -0.4002 -0.6096
   35POPC  C316 4767   1.457   3.095   8.886  0.5256 -0.0438 -0.4199
   35POPC  H16X 4768   1.394   3.071   8.798 -1.1423  2.3902  0.0571
   35POPC  H16Y 4769   1.393   3.123   8.973 -0.8518  1.5050 -1.9086
   35POPC  H16Z 4770   1.503   2.999   8.919  0.5797  0.0907 -0.1057
   36POPC     N 4771   2.488   1.934  10.949 -0.6105 -0.5575  0.3765
   36POPC   C12 4772   2.450   1.886  11.084 -0.5219 -0.0298  0.0472
   36POPC  H12A 4773   2.440   1.973  11.147  1.5247 -0.3609  0.8810
   36POPC  H12B 4774   2.536   1.841  11.133 -1.5444  0.6876  2.5425
   36POPC   C13 4775   2.503   1.819  10.850  0.3532  0.0978 -0.0213
   36POPC  H13A 4776   2.425   1.745  10.849  0.2034  0.2753 -1.8119
   36POPC  H13B 4777   2.517   1.845  10.746  0.0502 -1.1445 -0.3765
   36POPC  H13C 4778   2.594   1.767  10.877 -0.2051 -0.2939  1.1197
   36POPC   C14 4779   2.394   2.036  10.899  0.7950 -0.0808  0.1629
   36POPC  H14A 4780   2.296   1.989  10.897  0.6012  0.2885  0.9865
   36POPC  H14B 4781   2.389   2.117  10.970  1.7395  0.6261 -0.5732
   36POPC  H14C 4782   2.412   2.066  10.797  1.8253 -2.6427 -0.4629
   36POPC   C15 4783   2.619   2.002  10.964 -0.6704  0.0057 -0.7571
   36POPC  H15A 4784   2.615   2.063  11.053 -0.3741  0.8443 -1.3065
   36POPC  H15B 4785   2.649   2.063  10.880  1.4927 -0.4587 -0.3574
   36POPC  H15C 4786   2.693   1.926  10.984 -1.8547 -1.0329 -0.2525
   36POPC   C11 4787   2.322   1.795  11.108  0.0379 -0.7950 -0.7661
   36POPC  H11A 4788   2.233   1.847  11.064  0.3806  0.4946  0.0313
   36POPC  H11B 4789   2.316   1.774  11.216  0.2240 -0.0470 -0.6055
   36POPC     P 4790   2.229   1.566  11.014 -0.0088  0.0118 -0.1129
   36POPC   O13 4791   2.103   1.612  11.068 -0.3777 -0.2398 -0.2245
   36POPC   O14 4792   2.277   1.436  11.063 -0.0474  0.4332 -0.9332
   36POPC   O12 4793   2.342   1.670  11.046  0.1121  0.1020 -0.0009
   36POPC   O11 4794   2.227   1.574  10.858 -0.3137 -0.1966 -0.6072
   36POPC    C1 4795   2.201   1.701  10.791 -0.1226  0.6593 -0.3575
   36POPC    HA 4796   2.277   1.700  10.710  1.2282 -2.8440  0.8826
   36POPC    HB 4797   2.204   1.794  10.852 -2.0848  0.4801  0.0684
   36POPC    C2 4798   2.057   1.702  10.720  0.2170  0.4300 -0.0314
   36POPC    HS 4799   1.984   1.693  10.804 -0.1614 -2.1380 -0.5898
   36POPC   O21 4800   2.075   1.594  10.624  0.5503 -0.6527  0.2207
   36POPC   C21 4801   1.962   1.519  10.599 -0.5089 -0.2973  0.6730
   36POPC   O22 4802   1.864   1.521  10.673 -0.2931  0.5316 -0.5004
   36POPC   C22 4803   1.982   1.427  10.479  0.0359  0.4091 -0.6924
   36POPC   H2R 4804   1.943   1.323  10.482 -0.6174  0.6968  2.6821
   36POPC   H2S 4805   2.092   1.421  10.464 -0.0536  0.7747 -1.5490
   36POPC    C3 4806   2.026   1.836  10.647 -0.4775  0.3821  0.2728
   36POPC    HX 4807   2.101   1.857  10.568 -2.2422 -2.1116 -2.1515
   36POPC    HY 4808   2.043   1.924  10.713  0.8894  0.6788 -0.4710
   36POPC   O31 4809   1.895   1.835  10.583 -0.4082 -0.0306  0.3797
   36POPC   C31 4810   1.787   1.847  10.659 -0.1551  0.2186  0.7135
   36POPC   O32 4811   1.779   1.853  10.781  0.5179 -0.2607  0.5780
   36POPC   C32 4812   1.664   1.845  10.568  0.3664  0.4483  0.4244
   36POPC   H2X 4813   1.668   1.924  10.490 -2.4959  0.8914  0.6497
   36POPC   H2Y 4814   1.580   1.872  10.636  1.2518  0.0608  1.6793
   36POPC   C23 4815   1.936   1.501  10.358  0.5972  0.0347 -0.1393
   36POPC   H3R 4816   1.946   1.611  10.364  2.7255 -0.2145  1.2376
   36POPC   H3S 4817   1.827   1.480  10.353 -0.1552  3.4946  0.3730
   36POPC   C24 4818   1.981   1.438  10.219  0.1282 -0.5286 -0.7437
   36POPC   H4R 4819   1.922   1.345  10.205  1.8245 -2.0043  1.6052
   36POPC   H4S 4820   2.090   1.420  10.233  0.1782  0.7822  0.6142
   36POPC   C25 4821   1.953   1.536  10.105  0.1911 -0.5470 -0.4024
   36POPC   H5R 4822   1.964   1.644  10.128 -0.1515 -0.0538 -2.4274
   36POPC   H5S 4823   1.844   1.541  10.088  0.2159  4.4867  0.4203
   36POPC   C26 4824   2.036   1.502   9.971 -0.2261  0.1587  0.4993
   36POPC   H6R 4825   1.996   1.401   9.947 -3.2484  1.0210  1.6739
   36POPC   H6S 4826   2.140   1.502  10.009 -0.2568  0.0818  0.5857
   36POPC   C27 4827   2.012   1.602   9.854  0.6718 -0.5012 -0.3053
   36POPC   H7R 4828   2.008   1.703   9.901 -0.4337 -0.9563  0.5970
   36POPC   H7S 4829   1.912   1.583   9.809  0.4295  0.0386 -0.0021
   36POPC   C28 4830   2.120   1.597   9.740 -0.2810 -0.1739 -0.3401
   36POPC   H8R 4831   2.223   1.604   9.783  0.0554 -0.8633 -1.0366
   36POPC   H8S 4832   2.111   1.700   9.699  0.3973 -0.6439 -1.6951
   36POPC   C29 4833   2.106   1.490   9.634  0.0538  0.8506 -0.0033
   36POPC   H91 4834   2.147   1.390   9.656  0.1286  0.7380 -0.6464
   36POPC  C210 4835   2.047   1.496   9.508  0.2241 -0.0593  0.2820
   36POPC  H101 4836   2.038   1.407   9.444  2.3422  1.5474 -2.3782
   36POPC  C211 4837   1.987   1.629   9.458  0.6565  0.2947 -0.3075
   36POPC  H11R 4838   1.960   1.703   9.535 -2.1016 -1.7864  0.8170
   36POPC  H11S 4839   1.890   1.608   9.409  0.6994 -3.8102  1.1710
   36POPC  C212 4840   2.071   1.707   9.363 -0.3475 -0.4159  0.6535
   36POPC  H12R 4841   2.171   1.720   9.409  0.8956  0.8827 -2.2724
   36POPC  H12S 4842   2.019   1.805   9.353 -0.6854 -0.8011 -1.5982
   36POPC  C213 4843   2.078   1.640   9.222 -0.7103  0.3788 -0.5727
   36POPC  H13R 4844   1.978   1.627   9.175 -0.2499 -1.3516 -1.0843
   36POPC  H13S 4845   2.118   1.538   9.236 -0.5196  0.7786  2.2170
   36POPC  C214 4846   2.163   1.722   9.121  0.1269 -0.1261  0.0886
   36POPC  H14R 4847   2.264   1.707   9.165 -0.2011 -3.1692 -0.0411
   36POPC  H14S 4848   2.134   1.829   9.130 -0.1535 -0.1238 -0.8660
   36POPC  C215 4849   2.146   1.675   8.985  0.1889  1.0862 -0.1690
   36POPC  H15R 4850   2.232   1.715   8.927  1.3660 -2.3593 -0.9401
   36POPC  H15S 4851   2.056   1.714   8.932 -1.9288 -2.3280  0.7650
   36POPC  C216 4852   2.132   1.517   8.964 -0.0337 -0.4353 -0.4730
   36POPC  H16R 4853   2.024   1.495   8.971 -0.1432  0.4606  0.7873
   36POPC  H16S 4854   2.185   1.459   9.042 -1.7951 -2.4345 -0.7327
   36POPC  C217 4855   2.191   1.473   8.826  0.2211  0.2792  0.0663
   36POPC  H17R 4856   2.141   1.534   8.749 -1.0607 -1.4879 -0.5353
   36POPC  H17S 4857   2.166   1.365   8.821 -0.6890  0.5286 -0.6742
   36POPC  C218 4858   2.342   1.472   8.829 -0.2913 -0.7245 -0.3880
   36POPC  H18R 4859   2.373   1.479   8.723 -1.3740 -0.7053 -0.7075
   36POPC  H18S 4860   2.388   1.385   8.881 -1.0716 -0.1474  1.2888
   36POPC  H18T 4861   2.367   1.570   8.876  0.9376  0.4019 -3.2619
   36POPC   C33 4862   1.637   1.716  10.493  0.0858  1.0012  0.6797
   36POPC   H3X 4863   1.593   1.642  10.564  0.9296  1.2647  1.4972
   36POPC   H3Y 4864   1.728   1.660  10.463 -0.6764 -0.1192  0.4384
   36POPC   C34 4865   1.546   1.719  10.367  0.2296 -0.0105 -0.7011
   36POPC   H4X 4866   1.472   1.802  10.374 -0.2887 -0.5770  0.5712
   36POPC   H4Y 4867   1.488   1.627  10.348  1.3336 -1.0142  0.7093
   36POPC   C35 4868   1.625   1.733  10.231 -0.3986 -0.4863 -0.7155
   36POPC   H5X 4869   1.707   1.659  10.219 -1.1974 -1.4977  0.0719
   36POPC   H5Y 4870   1.670   1.835  10.224 -3.2232  0.8878  0.5706
   36POPC   C36 4871   1.522   1.726  10.115  0.7017 -0.2967 -0.1389
   36POPC   H6X 4872   1.438   1.796  10.136 -0.9902 -2.5588  0.8634
   36POPC   H6Y 4873   1.482   1.622  10.119 -0.2356  0.0389 -0.4788
   36POPC   C37 4874   1.569   1.751   9.971  0.2577  0.0357  0.7020
   36POPC   H7X 4875   1.658   1.688   9.950  0.5709  1.0639 -1.1808
   36POPC   H7Y 4876   1.609   1.854   9.975 -2.7482  1.2936 -0.1287
   36POPC   C38 4877   1.467   1.747   9.854  0.0061  0.3070  0.3325
   36POPC   H8X 4878   1.394   1.831   9.852  1.7743  1.8625 -1.8341
   36POPC   H8Y 4879   1.425   1.644   9.852 -0.4147  0.4935 -1.6650
   36POPC   C39 4880   1.533   1.742   9.714  0.5047  0.0554  0.1887
   36POPC   H9X 4881   1.447   1.732   9.645  0.1601  1.5666  0.3748
   36POPC   H9Y 4882   1.601   1.654   9.716 -1.5485 -1.5733 -0.1579
   36POPC  C310 4883   1.614   1.869   9.676  0.2158  0.1081  0.0921
   36POPC  H10X 4884   1.701   1.895   9.740 -0.4246 -0.8059  1.3537
   36POPC  H10Y 4885   1.548   1.957   9.682  0.2761  0.0524  1.6908
   36POPC  C311 4886   1.667   1.865   9.528  0.2729  0.3282 -0.4388
   36POPC  H11X 4887   1.584   1.813   9.475 -0.1933 -0.0308  0.6030
   36POPC  H11Y 4888   1.753   1.796   9.523  0.1980  0.1975 -0.0140
   36POPC  C312 4889   1.701   2.008   9.480  0.6428  0.2464 -0.7015
   36POPC  H12X 4890   1.789   2.041   9.540  0.9358  0.5614 -1.3012
   36POPC  H12Y 4891   1.606   2.064   9.483  0.2500 -0.4369 -0.3423
   36POPC  C313 4892   1.744   2.012   9.331  0.0712  0.3431 -0.7263
   36POPC  H13X 4893   1.829   1.942   9.317 -0.0835  0.0466 -0.1620
   36POPC  H13Y 4894   1.779   2.117   9.316  3.1872 -0.4985  0.2673
   36POPC  C314 4895   1.650   1.957   9.224  0.1793 -0.1324 -0.0227
   36POPC  H14X 4896   1.558   2.011   9.258 -1.1847 -3.1475  1.2898
   36POPC  H14Y 4897   1.622   1.850   9.232  0.1969 -0.2492 -1.4109
   36POPC  C315 4898   1.683   1.994   9.084 -0.4450 -0.3927  0.4077
   36POPC  H15X 4899   1.696   2.105   9.084 -2.7943 -0.0841 -0.0379
   36POPC  H15Y 4900   1.592   1.989   9.020 -0.9497 -0.4274  1.1254
   36POPC  C316 4901   1.798   1.911   9.021  1.0940  1.1592 -0.4496
   36POPC  H16X 4902   1.756   1.808   9.028 -1.0928  2.0102 -0.4322
   36POPC  H16Y 4903   1.897   1.915   9.070  0.8718 -0.2808  0.1784
   36POPC  H16Z 4904   1.810   1.942   8.915  0.4100  1.1006 -0.5460
   37POPC     N 4905   6.687   3.807   6.485  0.1564 -0.1122  0.3078
   37POPC   C12 4906   6.837   3.767   6.484 -0.5125  0.2498 -0.0460
   37POPC  H12A 4907   6.853   3.675   6.429 -0.0431 -0.1740  0.7834
   37POPC  H12B 4908   6.860   3.766   6.589 -0.9254 -1.7211  0.0530
   37POPC   C13 4909   6.675   3.929   6.571  0.6373 -1.2680 -0.0924
   37POPC  H13A 4910   6.718   3.913   6.669  1.4424 -1.9716 -0.5549
   37POPC  H13B 4911   6.727   4.013   6.527 -0.9494 -0.1956  0.0168
   37POPC  H13C 4912   6.571   3.955   6.585  1.0713 -1.0330  3.2440
   37POPC   C14 4913   6.637   3.835   6.348 -0.3269  0.5791  0.1872
   37POPC  H14A 4914   6.679   3.930   6.318  0.1510  0.1376 -0.5500
   37POPC  H14B 4915   6.663   3.754   6.282 -0.4011  0.8753 -0.2085
   37POPC  H14C 4916   6.532   3.858   6.354 -0.8461 -1.2272 -1.5831
   37POPC   C15 4917   6.607   3.686   6.525 -0.1876  0.3561 -0.3805
   37POPC  H15A 4918   6.641   3.591   6.486  1.1382  0.1890  1.1428
   37POPC  H15B 4919   6.502   3.698   6.501 -0.1593  0.6019 -0.3892
   37POPC  H15C 4920   6.627   3.677   6.631 -0.6634 -1.3558 -0.4291
   37POPC   C11 4921   6.936   3.866   6.421 -0.0086 -0.7313  0.5691
   37POPC  H11A 4922   6.923   3.878   6.311  0.1027  0.8443  0.7069
   37POPC  H11B 4923   7.039   3.826   6.430  0.4557  0.4947  0.7602
   37POPC     P 4924   7.034   4.072   6.544  0.2714 -0.0949  0.3058
   37POPC   O13 4925   7.011   4.212   6.510  0.5546  0.2082 -0.0340
   37POPC   O14 4926   7.168   4.022   6.508 -0.0519  0.5391 -0.0528
   37POPC   O12 4927   6.921   3.996   6.473 -0.4685  0.5516  0.1511
   37POPC   O11 4928   7.004   4.041   6.693 -0.2293  0.4193  0.1551
   37POPC    C1 4929   7.026   4.137   6.796 -1.1732 -0.0572 -0.7856
   37POPC    HA 4930   7.003   4.089   6.893  1.5628 -2.0742 -1.0818
   37POPC    HB 4931   6.960   4.226   6.785  0.4497  1.1981 -0.4160
   37POPC    C2 4932   7.171   4.178   6.821 -0.7991  0.0793  0.3029
   37POPC    HS 4933   7.189   4.261   6.749 -1.9617  2.1340  2.3224
   37POPC   O21 4934   7.258   4.060   6.804  0.2075  0.0995  0.2157
   37POPC   C21 4935   7.384   4.092   6.772 -0.4136  0.2815 -0.6303
   37POPC   O22 4936   7.424   4.207   6.765 -0.4509 -0.2694 -0.3114
   37POPC   C22 4937   7.466   3.964   6.741  0.5004  0.0470  0.1372
   37POPC   H2R 4938   7.475   3.942   6.633 -0.0961 -1.4849  0.3921
   37POPC   H2S 4939   7.405   3.879   6.780 -2.8049  2.5067  0.5499
   37POPC    C3 4940   7.179   4.229   6.968  0.6625 -0.3681  0.1843
   37POPC    HX 4941   7.287   4.254   6.972  0.1289  2.4590 -2.0263
   37POPC    HY 4942   7.165   4.150   7.045 -0.9771  0.4108  0.6946
   37POPC   O31 4943   7.080   4.335   6.999 -0.4248 -0.2914  0.0540
   37POPC   C31 4944   7.133   4.462   6.978 -0.0794  0.8848  0.1760
   37POPC   O32 4945   7.240   4.483   6.920  0.0275 -0.1008 -0.7418
   37POPC   C32 4946   7.057   4.569   7.060 -0.6968 -0.5138  0.1871
   37POPC   H2X 4947   6.947   4.558   7.052 -0.6284 -1.6133  0.6846
   37POPC   H2Y 4948   7.076   4.665   7.009 -1.3076 -1.6879 -2.3218
   37POPC   C23 4949   7.598   3.950   6.812 -0.4031 -0.2421 -0.6019
   37POPC   H3R 4950   7.668   4.014   6.753  0.4425  1.5065  2.2064
   37POPC   H3S 4951   7.633   3.845   6.816 -1.1120 -0.4508  0.1672
   37POPC   C24 4952   7.593   4.017   6.951  0.4788  0.3480  0.3110
   37POPC   H4R 4953   7.538   4.113   6.952  0.5298  0.3735  0.8180
   37POPC   H4S 4954   7.698   4.040   6.979 -0.6320  2.3453  2.9391
   37POPC   C25 4955   7.538   3.923   7.056 -0.2753 -0.0208  0.5075
   37POPC   H5R 4956   7.605   3.834   7.057 -0.4274 -0.1369  0.4852
   37POPC   H5S 4957   7.431   3.905   7.034 -0.0339  0.8783 -1.4719
   37POPC   C26 4958   7.562   3.993   7.190  0.1031 -0.0341  0.6270
   37POPC   H6R 4959   7.667   4.029   7.198 -0.4284  2.0494 -1.3957
   37POPC   H6S 4960   7.543   3.922   7.274 -0.0886  0.9971  1.4683
   37POPC   C27 4961   7.472   4.117   7.209 -0.0849  0.0316 -0.9827
   37POPC   H7R 4962   7.369   4.094   7.175 -0.0910  2.2243 -2.5549
   37POPC   H7S 4963   7.505   4.205   7.150  3.2414 -1.2348 -1.0931
   37POPC   C28 4964   7.479   4.171   7.360 -0.6814 -0.1950 -0.0590
   37POPC   H8R 4965   7.428   4.270   7.352 -2.2976 -1.1571 -2.2793
   37POPC   H8S 4966   7.587   4.195   7.367 -0.0547 -2.2311 -2.0984
   37POPC   C29 4967   7.419   4.084   7.467 -0.1827 -0.1574  0.4549
   37POPC   H91 4968   7.333   4.022   7.436 -0.4619  0.4316  0.0555
   37POPC  C210 4969   7.478   4.071   7.591 -0.3632 -0.2079  0.0774
   37POPC  H101 4970   7.442   3.997   7.664 -0.5332 -2.0235 -1.7618
   37POPC  C211 4971   7.602   4.148   7.642  0.0095  0.2666 -0.0630
   37POPC  H11R 4972   7.655   4.198   7.558 -0.6769 -0.3465 -0.8745
   37POPC  H11S 4973   7.675   4.084   7.695 -2.5224 -1.8039  1.0414
   37POPC  C212 4974   7.559   4.253   7.744  0.8542 -0.1726 -0.2128
   37POPC  H12R 4975   7.503   4.337   7.697  1.3529 -0.4046 -1.2363
   37POPC  H12S 4976   7.650   4.301   7.784 -1.0269  0.7850  3.1466
   37POPC  C213 4977   7.482   4.189   7.865 -0.4870 -0.4701  0.7014
   37POPC  H13R 4978   7.537   4.108   7.919 -0.5408 -1.5824 -0.8914
   37POPC  H13S 4979   7.385   4.148   7.830 -0.4854 -0.5103  0.7431
   37POPC  C214 4980   7.441   4.288   7.976 -0.6695 -0.2465 -0.2418
   37POPC  H14R 4981   7.359   4.352   7.938 -0.5243 -0.6762 -1.2904
   37POPC  H14S 4982   7.532   4.347   7.998 -0.7043  0.1982 -1.2764
   37POPC  C215 4983   7.408   4.220   8.106  0.7716  0.4920 -0.1685
   37POPC  H15R 4984   7.356   4.291   8.174 -2.4651 -0.5031 -1.4837
   37POPC  H15S 4985   7.499   4.185   8.159  0.3457  1.2942  1.1240
   37POPC  C216 4986   7.315   4.096   8.097  0.1518 -0.8169 -0.3585
   37POPC  H16R 4987   7.375   4.015   8.052 -1.2127 -3.2975  2.0902
   37POPC  H16S 4988   7.218   4.117   8.045 -0.1321 -0.1154  0.4359
   37POPC  C217 4989   7.273   4.055   8.236 -0.0122 -0.9590  0.1708
   37POPC  H17R 4990   7.211   4.138   8.278  1.3750 -0.0597  0.4710
   37POPC  H17S 4991   7.364   4.052   8.299  0.0071 -2.6280  0.0719
   37POPC  C218 4992   7.181   3.934   8.247 -0.3618 -0.1405 -0.0131
   37POPC  H18R 4993   7.242   3.845   8.219  2.3229  1.4804  0.4870
   37POPC  H18S 4994   7.097   3.951   8.177  1.3126 -0.1342 -2.0653
   37POPC  H18T 4995   7.152   3.915   8.352  0.4670 -0.4491  0.1653
   37POPC   C33 4996   7.115   4.598   7.201 -0.1250 -0.1721  0.1811
   37POPC   H3X 4997   7.226   4.587   7.194  0.1349  2.5204 -0.5929
   37POPC   H3Y 4998   7.058   4.541   7.278 -0.2952  2.4069  2.0436
   37POPC   C34 4999   7.102   4.745   7.249  0.1861  0.9745 -0.4328
   37POPC   H4X 5000   6.999   4.785   7.253  0.0443  0.6320 -0.5826
   37POPC   H4Y 5001   7.157   4.798   7.168 -1.0952  0.9314 -1.3368
   37POPC   C35 5002   7.186   4.776   7.372 -0.0246 -0.2280  0.3219
   37POPC   H5X 5003   7.207   4.885   7.381 -0.4341 -0.1504  0.3469
   37POPC   H5Y 5004   7.275   4.710   7.363  0.2881 -0.1881  2.6930
   37POPC   C36 5005   7.110   4.735   7.492 -0.7223  0.0276 -0.4124
   37POPC   H6X 5006   7.086   4.627   7.481  1.1415 -0.2356 -2.1287
   37POPC   H6Y 5007   7.017   4.795   7.496  0.7004  2.2112  5.0449
   37POPC   C37 5008   7.179   4.746   7.632 -0.2177 -0.6093  0.1574
   37POPC   H7X 5009   7.215   4.849   7.648  0.1487 -0.7936  0.5247
   37POPC   H7Y 5010   7.276   4.691   7.629 -1.5587 -3.1511  1.0621
   37POPC   C38 5011   7.092   4.679   7.745  0.1949  0.0984  0.2917
   37POPC   H8X 5012   7.072   4.574   7.715 -1.2125  0.5411 -0.3875
   37POPC   H8Y 5013   6.994   4.730   7.758 -0.7670 -1.7828  0.5316
   37POPC   C39 5014   7.168   4.702   7.873 -0.0785  0.4367 -0.3081
   37POPC   H9X 5015   7.165   4.811   7.895  3.0123  0.5281 -0.1105
   37POPC   H9Y 5016   7.273   4.675   7.850 -0.4019 -0.9956 -0.1371
   37POPC  C310 5017   7.120   4.606   7.986  0.1584 -0.9851 -0.1101
   37POPC  H10X 5018   7.119   4.503   7.946 -0.2068 -1.5218  1.2611
   37POPC  H10Y 5019   7.013   4.629   8.004 -0.3693 -2.7495 -0.8743
   37POPC  C311 5020   7.204   4.620   8.118 -0.6045 -0.6317 -0.2749
   37POPC  H11X 5021   7.218   4.726   8.149  1.4447 -0.9303 -0.0869
   37POPC  H11Y 5022   7.303   4.578   8.089 -0.1431 -0.8335  1.5512
   37POPC  C312 5023   7.169   4.537   8.240  0.5651  0.2796 -0.4980
   37POPC  H12X 5024   7.174   4.430   8.212 -1.0833 -0.3769  1.6195
   37POPC  H12Y 5025   7.066   4.567   8.266  0.9647  0.9014  0.3933
   37POPC  C313 5026   7.256   4.556   8.359  0.2509  0.1291  0.2061
   37POPC  H13X 5027   7.362   4.524   8.350 -0.2798 -1.4485 -0.5446
   37POPC  H13Y 5028   7.218   4.504   8.449  1.1056 -1.6472 -0.4345
   37POPC  C314 5029   7.261   4.704   8.407 -0.7495 -0.4217 -0.3530
   37POPC  H14X 5030   7.166   4.752   8.378 -1.3878 -0.8252  1.0093
   37POPC  H14Y 5031   7.339   4.754   8.345  2.1859  0.9709  4.1773
   37POPC  C315 5032   7.296   4.708   8.558 -0.0500 -0.2058  0.0871
   37POPC  H15X 5033   7.325   4.815   8.566  0.4361 -0.4216  1.3731
   37POPC  H15Y 5034   7.389   4.649   8.569  0.9418  1.1272 -1.1234
   37POPC  C316 5035   7.186   4.675   8.658 -0.1744  0.1016 -0.6642
   37POPC  H16X 5036   7.093   4.728   8.629 -2.2948 -1.8450  2.2878
   37POPC  H16Y 5037   7.215   4.680   8.765  0.0309 -0.6878 -0.6784
   37POPC  H16Z 5038   7.176   4.565   8.643  0.7176 -0.0235 -0.3679
   38POPC     N 5039   2.049   0.622   6.043  0.1882  0.0790  0.9812
   38POPC   C12 5040   2.152   0.686   6.140 -0.4585  0.3550 -0.4910
   38POPC  H12A 5041   2.099   0.774   6.174  2.7579  2.4017 -0.5058
   38POPC  H12B 5042   2.239   0.733   6.096  2.1882 -0.8732  3.1163
   38POPC   C13 5043   2.008   0.717   5.931  0.2755  0.3204 -0.3786
   38POPC  H13A 5044   1.997   0.820   5.961  2.7743  0.6762 -0.5862
   38POPC  H13B 5045   2.063   0.710   5.838 -0.4842 -2.7394 -0.6465
   38POPC  H13C 5046   1.911   0.683   5.899  1.8891 -2.5479 -2.4616
   38POPC   C14 5047   2.095   0.488   5.991  0.4103  0.3008 -0.1399
   38POPC  H14A 5048   2.109   0.421   6.075 -0.3143 -0.2536 -0.4535
   38POPC  H14B 5049   2.014   0.433   5.944 -0.2359  0.0666  1.2120
   38POPC  H14C 5050   2.181   0.492   5.927 -0.5822 -0.7215 -1.5576
   38POPC   C15 5051   1.928   0.598   6.129  0.3446 -0.2897  0.2931
   38POPC  H15A 5052   1.903   0.683   6.190  1.6274 -0.7986  1.5390
   38POPC  H15B 5053   1.963   0.536   6.210  3.7370 -1.7338 -2.1502
   38POPC  H15C 5054   1.834   0.565   6.087  0.2946  0.8785 -0.5467
   38POPC   C11 5055   2.213   0.604   6.257  0.1942 -0.2887  0.0769
   38POPC  H11A 5056   2.285   0.664   6.316  0.0737 -1.6162  1.6089
   38POPC  H11B 5057   2.275   0.520   6.218  0.4725 -0.3470  0.6389
   38POPC     P 5058   2.050   0.647   6.469  0.2640 -0.4017  0.1120
   38POPC   O13 5059   1.918   0.580   6.494  0.0336  0.2587  0.2027
   38POPC   O14 5060   2.047   0.793   6.423  0.3911  0.4301 -0.9662
   38POPC   O12 5061   2.117   0.556   6.351  0.8695  0.3805  0.0412
   38POPC   O11 5062   2.139   0.627   6.592  0.9693  0.4852 -0.4193
   38POPC    C1 5063   2.269   0.569   6.584 -0.0984  0.1130  0.1717
   38POPC    HA 5064   2.350   0.644   6.575 -1.3749  1.2049 -2.9226
   38POPC    HB 5065   2.277   0.496   6.501 -2.7001  1.1072 -1.0137
   38POPC    C2 5066   2.312   0.480   6.712  0.4936  0.4701 -0.3586
   38POPC    HS 5067   2.248   0.390   6.717  0.6948  0.3582  0.3818
   38POPC   O21 5068   2.293   0.557   6.832 -0.2881  0.4344 -0.1293
   38POPC   C21 5069   2.167   0.561   6.888  0.7500  0.1620  0.5395
   38POPC   O22 5070   2.088   0.471   6.860  0.4228 -0.0189  0.1597
   38POPC   C22 5071   2.145   0.683   6.976 -0.7263  0.4774 -0.0172
   38POPC   H2R 5072   2.035   0.699   6.982 -1.0280 -1.5013 -0.0339
   38POPC   H2S 5073   2.195   0.767   6.925  1.6347 -0.4157  0.7510
   38POPC    C3 5074   2.463   0.428   6.704  0.7976 -0.3359  0.2065
   38POPC    HX 5075   2.527   0.510   6.664  2.0566 -0.3206  2.1689
   38POPC    HY 5076   2.458   0.349   6.626  0.7303  0.0780 -0.2096
   38POPC   O31 5077   2.503   0.366   6.829  0.0029 -0.3980 -0.1763
   38POPC   C31 5078   2.566   0.452   6.907 -0.0007 -1.7547 -0.1949
   38POPC   O32 5079   2.580   0.570   6.885  0.2622  0.5356 -0.1435
   38POPC   C32 5080   2.617   0.375   7.034  0.6024 -0.5197  0.1534
   38POPC   H2X 5081   2.603   0.266   7.015  0.7201 -0.3720 -0.8245
   38POPC   H2Y 5082   2.555   0.405   7.121  2.1356  2.4142  0.3095
   38POPC   C23 5083   2.215   0.653   7.118 -0.3201  0.3801  0.2098
   38POPC   H3R 5084   2.215   0.542   7.127 -2.3219  0.0807 -2.7394
   38POPC   H3S 5085   2.157   0.685   7.207 -0.2755 -1.4611  0.9229
   38POPC   C24 5086   2.349   0.720   7.120 -0.5303 -0.0948 -0.0329
   38POPC   H4R 5087   2.336   0.830   7.110  0.9088  0.1302  0.4506
   38POPC   H4S 5088   2.392   0.687   7.024  0.3077  0.1345  0.2594
   38POPC   C25 5089   2.434   0.707   7.250  0.5408  0.3449  0.3830
   38POPC   H5R 5090   2.443   0.598   7.272  1.6573  0.7664  2.0699
   38POPC   H5S 5091   2.387   0.751   7.341  0.5534  0.8660  0.1383
   38POPC   C26 5092   2.586   0.746   7.236  0.9377  0.3351 -0.9805
   38POPC   H6R 5093   2.589   0.849   7.196 -1.0760  0.4393 -0.8918
   38POPC   H6S 5094   2.646   0.672   7.178  0.4430 -1.7654  1.0923
   38POPC   C27 5095   2.654   0.753   7.373  0.2261 -0.2528  0.2356
   38POPC   H7R 5096   2.612   0.844   7.421  1.2667  0.8338 -0.8722
   38POPC   H7S 5097   2.762   0.776   7.362 -0.1847  1.3399 -0.6267
   38POPC   C28 5098   2.644   0.631   7.460  0.2229 -0.1149  0.6651
   38POPC   H8R 5099   2.667   0.536   7.405  0.3790  0.4500 -0.2671
   38POPC   H8S 5100   2.542   0.606   7.496 -0.0923  1.7205  1.0730
   38POPC   C29 5101   2.733   0.644   7.577  0.1474  0.1206  0.0796
   38POPC   H91 5102   2.836   0.672   7.550  0.2206 -1.7872 -1.7961
   38POPC  C210 5103   2.700   0.611   7.705  0.7368 -0.1857 -0.6405
   38POPC  H101 5104   2.772   0.635   7.785  0.4221  2.7546 -1.1886
   38POPC  C211 5105   2.562   0.561   7.759 -0.5582 -0.0112 -0.0847
   38POPC  H11R 5106   2.484   0.571   7.681  0.1173  0.2014 -0.7454
   38POPC  H11S 5107   2.530   0.616   7.850 -3.4025  0.1147 -1.1346
   38POPC  C212 5108   2.569   0.411   7.782  0.1375 -0.3194 -0.2863
   38POPC  H12R 5109   2.608   0.363   7.689  2.3349  2.5672 -0.9339
   38POPC  H12S 5110   2.464   0.380   7.798  0.1884 -0.0149  0.6525
   38POPC  C213 5111   2.647   0.357   7.901  0.0814 -0.1593 -0.2906
   38POPC  H13R 5112   2.614   0.415   7.990  0.5316 -1.5554  0.8019
   38POPC  H13S 5113   2.753   0.373   7.871  0.9547 -2.6153  1.3179
   38POPC  C214 5114   2.623   0.208   7.923  0.6821 -0.3531  0.3524
   38POPC  H14R 5115   2.594   0.168   7.824 -1.4298  2.0345 -0.0378
   38POPC  H14S 5116   2.537   0.174   7.986  0.0331 -0.6729 -0.6917
   38POPC  C215 5117   2.745   0.132   7.973  0.4769 -0.8231  1.2481
   38POPC  H15R 5118   2.834   0.161   7.913 -0.9009 -2.3616 -1.6061
   38POPC  H15S 5119   2.729   0.026   7.946 -0.6278  0.0186 -1.5432
   38POPC  C216 5120   2.761   0.152   8.119  0.0811 -0.1796 -0.5592
   38POPC  H16R 5121   2.670   0.138   8.180  1.1111 -2.2483  0.5433
   38POPC  H16S 5122   2.775   0.262   8.123  2.1028 -0.4727  0.7806
   38POPC  C217 5123   2.884   0.082   8.185 -0.0174 -0.4539  0.6000
   38POPC  H17R 5124   2.890   0.129   8.286 -0.4528 -0.4052  0.6056
   38POPC  H17S 5125   2.979   0.098   8.130 -1.9942 -0.8223 -3.0909
   38POPC  C218 5126   2.869  -0.069   8.215  0.0471  0.4076 -0.3877
   38POPC  H18R 5127   2.939  -0.095   8.298 -1.1854 -1.0448  0.2157
   38POPC  H18S 5128   2.889  -0.131   8.125 -0.5535 -0.0009 -0.2384
   38POPC  H18T 5129   2.767  -0.082   8.257  0.5953  0.8065  1.0979
   38POPC   C33 5130   2.763   0.404   7.070 -0.2681 -0.6133  0.5580
   38POPC   H3X 5131   2.784   0.513   7.078 -2.2337 -0.0691 -1.3011
   38POPC   H3Y 5132   2.828   0.366   6.988  1.6172  1.6379  0.9215
   38POPC   C34 5133   2.811   0.352   7.208 -0.1985 -0.1089 -0.2469
   38POPC   H4X 5134   2.799   0.429   7.287 -1.7719  1.0202 -1.5533
   38POPC   H4Y 5135   2.920   0.329   7.203  0.2180  1.9051 -0.8424
   38POPC   C35 5136   2.741   0.227   7.259 -0.1083  0.5225 -1.0137
   38POPC   H5X 5137   2.766   0.140   7.194  2.3625  0.6695 -0.3120
   38POPC   H5Y 5138   2.631   0.239   7.260  0.1462  3.2000 -2.1228
   38POPC   C36 5139   2.774   0.191   7.403 -0.3624 -1.0263 -0.3239
   38POPC   H6X 5140   2.716   0.099   7.429 -0.7691 -0.5206  0.6089
   38POPC   H6Y 5141   2.749   0.267   7.480  0.5049 -1.8721  0.8272
   38POPC   C37 5142   2.921   0.169   7.431 -0.4279  0.2800  0.5844
   38POPC   H7X 5143   2.993   0.254   7.434  0.6804 -0.6552  0.8386
   38POPC   H7Y 5144   2.956   0.115   7.340 -3.3322 -0.8480  0.0817
   38POPC   C38 5145   2.942   0.092   7.558 -0.3714  0.3816  1.0173
   38POPC   H8X 5146   2.900  -0.011   7.556  0.5762 -0.0148 -1.2488
   38POPC   H8Y 5147   2.900   0.139   7.649 -1.6738 -0.4499  0.8500
   38POPC   C39 5148   3.096   0.084   7.592 -0.6649  0.0740 -0.3535
   38POPC   H9X 5149   3.135   0.187   7.601  0.7677 -0.5036  0.3970
   38POPC   H9Y 5150   3.161   0.037   7.515 -2.5512  0.0269 -1.9477
   38POPC  C310 5151   3.108   0.009   7.732  0.1242 -0.6531 -0.4284
   38POPC  H10X 5152   3.097  -0.100   7.716 -2.6255 -0.5236  0.3306
   38POPC  H10Y 5153   3.036   0.054   7.803  0.8064 -0.0933 -0.0836
   38POPC  C311 5154   3.243   0.044   7.797 -0.8406 -0.1241 -0.4199
   38POPC  H11X 5155   3.270   0.138   7.744  1.5057 -1.6741 -2.0900
   38POPC  H11Y 5156   3.314  -0.037   7.769 -0.9299 -0.1665 -0.5257
   38POPC  C312 5157   3.229   0.062   7.952  0.1537  0.1083  1.1600
   38POPC  H12X 5158   3.187  -0.033   7.993 -0.0538 -0.6372 -0.7241
   38POPC  H12Y 5159   3.150   0.135   7.980  0.2088  0.8764 -0.6317
   38POPC  C313 5160   3.361   0.093   8.022  0.7085  0.2300  0.1396
   38POPC  H13X 5161   3.418   0.179   7.980  0.5357  0.0062 -0.5534
   38POPC  H13Y 5162   3.425   0.003   8.019 -1.1186 -1.1590  1.4733
   38POPC  C314 5163   3.338   0.121   8.174  0.2726 -0.2181 -0.6808
   38POPC  H14X 5164   3.248   0.068   8.213 -1.1164  1.8106 -1.0274
   38POPC  H14Y 5165   3.309   0.229   8.179 -2.8684 -1.0338 -0.1582
   38POPC  C315 5166   3.465   0.097   8.261 -1.1563  0.5277  0.0806
   38POPC  H15X 5167   3.546   0.149   8.206 -0.0204  2.1377  3.1457
   38POPC  H15Y 5168   3.490  -0.011   8.262 -1.5961  0.4075 -0.9220
   38POPC  C316 5169   3.449   0.152   8.400  0.4652 -0.3666 -0.1389
   38POPC  H16X 5170   3.371   0.097   8.458  0.5762 -0.7767 -0.3765
   38POPC  H16Y 5171   3.407   0.254   8.410 -0.8113 -0.8113 -0.8873
   38POPC  H16Z 5172   3.542   0.146   8.461  0.8932 -0.0082 -0.7605
   39POPC     N 5173   6.133   4.156   6.261 -0.2569 -0.0792  0.3644
   39POPC   C12 5174   6.008   4.094   6.328 -0.2709  0.2711 -0.1227
   39POPC  H12A 5175   6.032   4.024   6.407 -1.4309  2.6491  2.4487
   39POPC  H12B 5176   5.954   4.035   6.256  0.2733  0.0577 -0.3524
   39POPC   C13 5177   6.193   4.272   6.340 -0.3027  0.1599 -0.1762
   39POPC  H13A 5178   6.262   4.329   6.280  1.7076 -0.4127  1.5533
   39POPC  H13B 5179   6.118   4.341   6.375  0.6312  1.5021 -0.7892
   39POPC  H13C 5180   6.241   4.237   6.430 -0.8559 -1.0886 -0.3438
   39POPC   C14 5181   6.228   4.048   6.225 -0.7422 -0.6377  0.4553
   39POPC  H14A 5182   6.307   4.085   6.162 -0.8854 -0.8887  0.1252
   39POPC  H14B 5183   6.260   3.990   6.310 -0.1646 -2.1540 -0.7607
   39POPC  H14C 5184   6.171   3.983   6.160 -0.4117  0.6541 -1.1709
   39POPC   C15 5185   6.081   4.218   6.134  0.1700 -0.6091  0.8066
   39POPC  H15A 5186   6.039   4.148   6.064 -1.7113  1.6537 -0.4316
   39POPC  H15B 5187   6.157   4.280   6.089 -2.3412  1.4744 -0.7248
   39POPC  H15C 5188   6.005   4.292   6.153 -0.4667 -1.5547  1.9758
   39POPC   C11 5189   5.912   4.196   6.393  0.3079  0.6584  0.5387
   39POPC  H11A 5190   5.948   4.238   6.489  0.8216  1.0978  0.1569
   39POPC  H11B 5191   5.829   4.136   6.436  0.7622  0.0773  0.6205
   39POPC     P 5192   5.835   4.432   6.325 -0.2746  0.1293  0.1210
   39POPC   O13 5193   5.709   4.486   6.269 -0.7733  0.3206 -0.2745
   39POPC   O14 5194   5.959   4.486   6.273  0.0098  0.1705  0.6926
   39POPC   O12 5195   5.849   4.281   6.297 -0.3059  0.3707 -0.0300
   39POPC   O11 5196   5.831   4.457   6.478 -0.0635  0.0198 -0.4923
   39POPC    C1 5197   5.713   4.414   6.555 -0.0602 -0.3725 -0.1164
   39POPC    HA 5198   5.644   4.340   6.509 -1.9406  2.1413 -1.4675
   39POPC    HB 5199   5.645   4.501   6.561  2.2377  1.5924 -1.6517
   39POPC    C2 5200   5.743   4.357   6.699 -0.0214  0.2887 -0.4688
   39POPC    HS 5201   5.799   4.262   6.693 -3.0979 -1.7756  2.1255
   39POPC   O21 5202   5.627   4.334   6.769  0.7099  0.4789 -0.0618
   39POPC   C21 5203   5.551   4.236   6.736 -1.0478  0.0028 -0.0346
   39POPC   O22 5204   5.587   4.142   6.664 -0.0821 -0.2843 -0.6505
   39POPC   C22 5205   5.419   4.265   6.795  0.4264 -0.4333 -0.4135
   39POPC   H2R 5206   5.351   4.178   6.780 -0.5140 -0.3284  2.9611
   39POPC   H2S 5207   5.376   4.354   6.743  0.4181  0.4142  1.0230
   39POPC    C3 5208   5.834   4.454   6.782  0.4653  0.6962 -0.6382
   39POPC    HX 5209   5.762   4.538   6.789 -2.3486 -1.6332 -0.3829
   39POPC    HY 5210   5.924   4.480   6.723 -0.1901 -1.6168 -2.7611
   39POPC   O31 5211   5.863   4.409   6.916  0.0489  0.5518  0.1388
   39POPC   C31 5212   5.977   4.343   6.935  0.1767 -0.8013 -1.2432
   39POPC   O32 5213   6.052   4.300   6.849 -0.2385  0.1018  0.0535
   39POPC   C32 5214   6.002   4.333   7.087  0.2353  0.1464  0.2607
   39POPC   H2X 5215   5.975   4.431   7.132 -0.6432 -0.3245  0.7745
   39POPC   H2Y 5216   5.934   4.255   7.127 -1.4655  1.0824 -0.7808
   39POPC   C23 5217   5.426   4.288   6.947 -0.5362 -0.0789  0.6679
   39POPC   H3R 5218   5.502   4.365   6.973 -0.0831 -0.7898  1.4945
   39POPC   H3S 5219   5.473   4.201   6.997 -0.7323  0.2201  1.3726
   39POPC   C24 5220   5.286   4.300   7.002  0.7387 -0.3504 -0.7074
   39POPC   H4R 5221   5.230   4.204   7.006  1.2609 -0.6122  1.3632
   39POPC   H4S 5222   5.232   4.363   6.929  0.4435  0.3459  0.1066
   39POPC   C25 5223   5.288   4.369   7.139 -0.6170  0.0480 -0.4064
   39POPC   H5R 5224   5.333   4.467   7.110 -0.6945  0.6764  1.5643
   39POPC   H5S 5225   5.352   4.308   7.206 -0.0310 -1.1866 -2.0485
   39POPC   C26 5226   5.140   4.405   7.192 -0.4617  0.3451  0.0156
   39POPC   H6R 5227   5.078   4.470   7.126 -2.5965  0.1386  1.7571
   39POPC   H6S 5228   5.168   4.471   7.277 -3.2632 -0.7176  1.8257
   39POPC   C27 5229   5.060   4.295   7.256 -0.1399  0.1900  0.0473
   39POPC   H7R 5230   5.123   4.229   7.318 -0.5744  2.0937  2.6000
   39POPC   H7S 5231   5.020   4.223   7.181  0.3753 -1.2535  1.1430
   39POPC   C28 5232   4.939   4.340   7.345  0.0201  0.0171 -0.1246
   39POPC   H8R 5233   4.886   4.246   7.370  0.4765 -0.3341 -0.4678
   39POPC   H8S 5234   4.860   4.381   7.280 -1.6296 -0.5048  1.4863
   39POPC   C29 5235   4.968   4.431   7.461 -0.4236  0.4612 -0.0915
   39POPC   H91 5236   5.052   4.500   7.442 -0.9742  0.8076 -1.2752
   39POPC  C210 5237   4.934   4.404   7.587  0.1632  0.0696 -0.2296
   39POPC  H101 5238   4.964   4.471   7.668 -0.1607 -0.2220  0.1311
   39POPC  C211 5239   4.856   4.289   7.643  0.4628  1.0742  0.3423
   39POPC  H11R 5240   4.871   4.262   7.750 -0.7840 -0.2497  0.1953
   39POPC  H11S 5241   4.863   4.192   7.587  1.8763  0.4179  1.6083
   39POPC  C212 5242   4.710   4.327   7.652  0.3363  0.1099 -0.8060
   39POPC  H12R 5243   4.648   4.239   7.680 -0.2309  1.0470  0.9693
   39POPC  H12S 5244   4.674   4.360   7.552 -1.2758  0.8420 -0.0004
   39POPC  C213 5245   4.682   4.434   7.759  0.2342  0.2882  0.1643
   39POPC  H13R 5246   4.572   4.449   7.756  0.2875  0.6294 -0.0655
   39POPC  H13S 5247   4.736   4.528   7.735 -0.4117  1.0135  1.5076
   39POPC  C214 5248   4.705   4.404   7.905 -0.1964  0.6563 -0.2475
   39POPC  H14R 5249   4.801   4.356   7.931 -0.8079  0.1058  1.0543
   39POPC  H14S 5250   4.629   4.327   7.931 -0.4154  2.1895  4.2068
   39POPC  C215 5251   4.686   4.520   7.999 -0.7294  0.2164 -0.2641
   39POPC  H15R 5252   4.606   4.587   7.961 -1.1282 -0.2014 -0.1581
   39POPC  H15S 5253   4.775   4.584   8.019  0.3149 -1.2678 -0.0515
   39POPC  C216 5254   4.623   4.484   8.142 -0.8406 -0.5846 -0.6333
   39POPC  H16R 5255   4.692   4.405   8.180 -2.1524 -0.8007  1.3840
   39POPC  H16S 5256   4.527   4.430   8.135 -1.4066  0.4499 -0.8452
   39POPC  C217 5257   4.613   4.603   8.235 -0.0329  0.2665 -0.3327
   39POPC  H17R 5258   4.550   4.688   8.203 -0.8306  1.2155  3.5102
   39POPC  H17S 5259   4.715   4.641   8.255 -0.0147  1.0191 -1.7979
   39POPC  C218 5260   4.563   4.561   8.367  0.2535  0.2498 -0.2012
   39POPC  H18R 5261   4.547   4.640   8.443 -1.7504 -1.3739  1.1225
   39POPC  H18S 5262   4.634   4.481   8.397  1.7585  1.0983 -1.4125
   39POPC  H18T 5263   4.460   4.518   8.361 -0.2290  1.2985  0.4420
   39POPC   C33 5264   6.147   4.282   7.133 -0.1435 -0.2277  0.3535
   39POPC   H3X 5265   6.223   4.363   7.135 -1.0992  0.6870  0.0462
   39POPC   H3Y 5266   6.182   4.206   7.060 -1.0415  2.3254 -2.8552
   39POPC   C34 5267   6.140   4.230   7.279  0.2976  0.1329  0.0406
   39POPC   H4X 5268   6.076   4.140   7.283 -0.9256  1.0540  2.8891
   39POPC   H4Y 5269   6.098   4.310   7.345 -1.4118  0.2427 -1.1485
   39POPC   C35 5270   6.278   4.190   7.331 -0.1292 -0.6856 -0.6051
   39POPC   H5X 5271   6.348   4.270   7.298  1.6536 -1.4304  1.2794
   39POPC   H5Y 5272   6.303   4.089   7.294  1.7064 -0.6018  0.3517
   39POPC   C36 5273   6.271   4.162   7.482  0.3294 -0.4399  0.6363
   39POPC   H6X 5274   6.184   4.096   7.500  1.1996 -1.8745 -0.3362
   39POPC   H6Y 5275   6.260   4.258   7.538 -0.4800 -1.0036  1.4531
   39POPC   C37 5276   6.389   4.085   7.539 -0.0750  0.4904  0.5722
   39POPC   H7X 5277   6.472   4.158   7.544  0.9112 -0.5675 -0.1014
   39POPC   H7Y 5278   6.430   4.006   7.473  0.4628  0.4370  0.9672
   39POPC   C38 5279   6.357   4.018   7.673 -0.5721  0.7196 -0.5357
   39POPC   H8X 5280   6.290   3.932   7.652  3.3223 -2.5880 -0.0423
   39POPC   H8Y 5281   6.307   4.094   7.737 -2.5036 -0.3124 -0.7976
   39POPC   C39 5282   6.489   3.976   7.742  0.1080 -0.1244  0.2261
   39POPC   H9X 5283   6.456   3.944   7.844  0.0179  0.6295  0.4376
   39POPC   H9Y 5284   6.548   4.070   7.748  0.1833 -0.2625  2.0880
   39POPC  C310 5285   6.574   3.878   7.665  0.1384 -0.5148  0.0998
   39POPC  H10X 5286   6.610   3.925   7.570  1.5489  2.0751  1.8402
   39POPC  H10Y 5287   6.517   3.787   7.639 -3.6040  1.7902 -0.0516
   39POPC  C311 5288   6.706   3.837   7.722  0.6711 -0.3024 -0.1943
   39POPC  H11X 5289   6.768   3.928   7.735  1.0609 -0.9439  2.9232
   39POPC  H11Y 5290   6.736   3.766   7.642 -0.0200 -0.0385 -0.6911
   39POPC  C312 5291   6.687   3.767   7.856  0.4130 -0.1960  0.4945
   39POPC  H12X 5292   6.605   3.696   7.832  0.1127  1.4308 -3.8467
   39POPC  H12Y 5293   6.650   3.830   7.940 -1.1627 -3.4197  2.3013
   39POPC  C313 5294   6.819   3.708   7.899 -0.2392  0.3910 -0.3000
   39POPC  H13X 5295   6.903   3.771   7.861 -0.0181 -0.4324 -1.1960
   39POPC  H13Y 5296   6.828   3.608   7.852  2.5539 -1.7100  4.3367
   39POPC  C314 5297   6.833   3.686   8.050  0.0863  0.4040  0.5868
   39POPC  H14X 5298   6.866   3.782   8.096  1.3096  0.3715 -0.2034
   39POPC  H14Y 5299   6.909   3.605   8.062 -0.1772  0.3961  2.4601
   39POPC  C315 5300   6.706   3.650   8.125  0.1050  0.1039  0.3473
   39POPC  H15X 5301   6.666   3.554   8.084  2.0006  0.2899 -2.0895
   39POPC  H15Y 5302   6.624   3.723   8.110 -0.6486 -0.8820 -0.3810
   39POPC  C316 5303   6.727   3.614   8.278 -0.8001 -0.0211  1.0567
   39POPC  H16X 5304   6.633   3.573   8.318 -3.1076  2.0882 -1.9298
   39POPC  H16Y 5305   6.745   3.705   8.340  1.6374  0.1558  0.1769
   39POPC  H16Z 5306   6.807   3.537   8.287  0.3595  1.2850  2.3448
   40POPC     N 5307   4.058   2.056   5.998  0.6455 -0.1270 -0.3579
   40POPC   C12 5308   4.070   2.182   6.078 -0.2453  0.3251  0.2653
   40POPC  H12A 5309   3.974   2.231   6.069  0.4848  1.7087  0.0354
   40POPC  H12B 5310   4.145   2.249   6.041 -0.2020 -0.2339 -0.6892
   40POPC   C13 5311   3.951   1.966   6.041 -0.3116  0.1574 -0.3936
   40POPC  H13A 5312   3.954   1.878   5.979 -0.8856 -0.1364 -0.0082
   40POPC  H13B 5313   3.968   1.923   6.139  0.0496  2.6714  0.6923
   40POPC  H13C 5314   3.851   2.005   6.030  0.1072  1.1812 -0.6396
   40POPC   C14 5315   4.022   2.085   5.854 -0.0239 -0.3951  0.2517
   40POPC  H14A 5316   3.921   2.119   5.837 -0.3370 -1.2014  0.4679
   40POPC  H14B 5317   4.080   2.167   5.813 -1.3696 -0.5563 -2.1002
   40POPC  H14C 5318   4.036   1.999   5.789 -1.8148  0.3308 -1.1558
   40POPC   C15 5319   4.191   1.981   5.995  0.2667 -0.6075 -0.3754
   40POPC  H15A 5320   4.228   1.963   6.094  2.0822  2.0370 -0.5023
   40POPC  H15B 5321   4.267   2.043   5.950  1.4078 -2.2730 -0.7793
   40POPC  H15C 5322   4.178   1.886   5.947  1.7630 -0.2051 -1.6173
   40POPC   C11 5323   4.103   2.164   6.226  0.0015 -0.1608 -0.1728
   40POPC  H11A 5324   4.035   2.082   6.257  0.4304 -0.0660  1.0543
   40POPC  H11B 5325   4.076   2.256   6.284  0.4404  0.4404 -0.9127
   40POPC     P 5326   4.289   2.023   6.336  0.4733  0.2765 -0.0454
   40POPC   O13 5327   4.429   2.038   6.380 -0.3757 -0.3793 -0.1978
   40POPC   O14 5328   4.271   1.894   6.258 -0.3429  0.3598 -0.3911
   40POPC   O12 5329   4.243   2.142   6.250  0.0212  0.0327  0.3037
   40POPC   O11 5330   4.190   2.029   6.463 -0.1683 -0.3107 -0.2527
   40POPC    C1 5331   4.208   2.126   6.567 -0.4457 -0.8687  0.2303
   40POPC    HA 5332   4.109   2.131   6.616 -0.6246 -1.2524 -0.0864
   40POPC    HB 5333   4.243   2.226   6.534 -0.0185 -0.6496  1.3378
   40POPC    C2 5334   4.299   2.078   6.683 -0.0781 -0.5880  0.1297
   40POPC    HS 5335   4.401   2.070   6.641  0.5719  1.1765  1.3080
   40POPC   O21 5336   4.245   1.955   6.734  0.2308 -0.0406 -0.2186
   40POPC   C21 5337   4.333   1.857   6.748  0.0444  0.6762 -0.0363
   40POPC   O22 5338   4.450   1.861   6.720  0.2435  0.3464 -0.1924
   40POPC   C22 5339   4.269   1.732   6.802  0.7214 -0.2523  0.3971
   40POPC   H2R 5340   4.288   1.651   6.728  2.1499  0.4853 -0.0614
   40POPC   H2S 5341   4.159   1.735   6.816  0.5188  1.0271 -1.3445
   40POPC    C3 5342   4.314   2.176   6.806  0.9201 -0.0658  0.1725
   40POPC    HX 5343   4.216   2.201   6.851  1.2501 -1.2534  1.5788
   40POPC    HY 5344   4.349   2.276   6.771 -2.7636  0.8829 -0.9983
   40POPC   O31 5345   4.395   2.129   6.913  0.1904 -0.7500  0.0669
   40POPC   C31 5346   4.520   2.121   6.881  0.8562 -0.1231  0.4474
   40POPC   O32 5347   4.568   2.146   6.771  0.1067  0.1319 -0.8100
   40POPC   C32 5348   4.587   2.043   6.993  0.3123  0.8834 -0.1978
   40POPC   H2X 5349   4.548   1.940   7.005 -0.0265  0.8182 -1.7773
   40POPC   H2Y 5350   4.570   2.085   7.095 -3.4809 -0.3004 -0.2698
   40POPC   C23 5351   4.352   1.704   6.930 -0.5047 -0.3036  0.8102
   40POPC   H3R 5352   4.461   1.711   6.910 -0.6834 -3.0636 -1.5375
   40POPC   H3S 5353   4.324   1.602   6.963 -0.2056 -0.2742  1.1614
   40POPC   C24 5354   4.315   1.799   7.045  0.1276 -0.0065 -0.5977
   40POPC   H4R 5355   4.207   1.785   7.066  0.7459 -1.4948  1.7844
   40POPC   H4S 5356   4.333   1.905   7.015  1.7011  0.4068  1.6613
   40POPC   C25 5357   4.402   1.761   7.162 -0.0101  0.2502 -1.1935
   40POPC   H5R 5358   4.511   1.760   7.140  0.4163  1.8201  0.6346
   40POPC   H5S 5359   4.379   1.657   7.192  1.8978  0.7014  2.1418
   40POPC   C26 5360   4.381   1.840   7.292 -0.5785 -0.3120  0.4464
   40POPC   H6R 5361   4.275   1.821   7.318 -1.2813  1.8259 -0.7957
   40POPC   H6S 5362   4.389   1.949   7.273 -1.0112  0.1364  2.7121
   40POPC   C27 5363   4.476   1.784   7.404  0.0359  0.4670 -0.3133
   40POPC   H7R 5364   4.584   1.796   7.382 -0.2353  0.9175 -1.4721
   40POPC   H7S 5365   4.437   1.680   7.411  0.2597  0.2630 -1.8407
   40POPC   C28 5366   4.441   1.853   7.544  0.2107 -0.6631  0.1078
   40POPC   H8R 5367   4.495   1.796   7.623 -0.2183  1.0279  1.6530
   40POPC   H8S 5368   4.333   1.843   7.568  0.0274 -2.5891 -1.3769
   40POPC   C29 5369   4.479   1.998   7.539  0.4618 -0.4284 -0.3684
   40POPC   H91 5370   4.396   2.054   7.493 -0.9100 -0.8386  1.5145
   40POPC  C210 5371   4.587   2.058   7.592  0.2973 -0.0882 -0.4264
   40POPC  H101 5372   4.598   2.166   7.576  1.1517  0.4188  3.1401
   40POPC  C211 5373   4.690   1.987   7.680  0.2307  0.1577 -0.6595
   40POPC  H11R 5374   4.701   1.879   7.661  0.2102  0.2848 -1.3931
   40POPC  H11S 5375   4.642   1.979   7.780 -0.7770  0.5482 -1.0993
   40POPC  C212 5376   4.833   2.041   7.700 -0.2046 -0.3763  0.3335
   40POPC  H12R 5377   4.831   2.121   7.777 -1.2244  1.7522 -1.8673
   40POPC  H12S 5378   4.881   2.095   7.616 -1.9507 -1.1875 -1.2158
   40POPC  C213 5379   4.936   1.940   7.741  0.2255 -0.1128  0.4402
   40POPC  H13R 5380   4.941   1.854   7.672 -4.6818 -0.3324  0.1504
   40POPC  H13S 5381   4.890   1.903   7.835 -0.1422  0.8080  0.6304
   40POPC  C214 5382   5.079   1.996   7.779  0.0830 -0.2467  0.4060
   40POPC  H14R 5383   5.072   2.092   7.833  0.6663  0.1817 -0.2679
   40POPC  H14S 5384   5.124   2.024   7.681 -0.5531 -0.8692 -0.0755
   40POPC  C215 5385   5.172   1.890   7.838  0.8691  0.0834  0.4507
   40POPC  H15R 5386   5.265   1.940   7.874 -0.2361  0.8602  2.3094
   40POPC  H15S 5387   5.201   1.827   7.752  0.8168  2.4711 -1.3823
   40POPC  C216 5388   5.122   1.783   7.946  0.5404 -0.2123 -0.0657
   40POPC  H16R 5389   5.198   1.705   7.969  2.8583  1.7283 -0.9537
   40POPC  H16S 5390   5.032   1.729   7.909  1.7541  0.6877 -4.6019
   40POPC  C217 5391   5.095   1.845   8.085 -0.7922 -0.4064 -0.0181
   40POPC  H17R 5392   5.185   1.904   8.113  0.9594 -2.0804 -1.9740
   40POPC  H17S 5393   5.069   1.758   8.148 -2.6957 -0.5066 -0.9223
   40POPC  C218 5394   4.973   1.934   8.094  0.7960 -0.3740 -0.1239
   40POPC  H18R 5395   4.962   2.012   8.016 -0.1109 -0.0093  0.3613
   40POPC  H18S 5396   4.966   1.980   8.195 -0.8706  0.2492 -0.4989
   40POPC  H18T 5397   4.884   1.868   8.084  0.9414 -0.3810 -1.5038
   40POPC   C33 5398   4.740   2.027   6.974 -0.0798  0.3942 -0.1471
   40POPC   H3X 5399   4.786   2.029   7.075 -0.9018  0.3875  0.2269
   40POPC   H3Y 5400   4.784   2.103   6.906  0.2179 -0.9065 -1.4310
   40POPC   C34 5401   4.778   1.890   6.914  0.2589  0.7035  0.3983
   40POPC   H4X 5402   4.879   1.897   6.867 -1.6056  1.5314 -3.7377
   40POPC   H4Y 5403   4.729   1.868   6.817  4.1958 -4.2198 -0.6830
   40POPC   C35 5404   4.780   1.763   7.005  0.3761 -0.2445  0.6367
   40POPC   H5X 5405   4.809   1.679   6.938 -0.6786  0.0570 -0.2177
   40POPC   H5Y 5406   4.674   1.743   7.027  0.1374 -0.2559 -0.4762
   40POPC   C36 5407   4.852   1.782   7.129 -0.4222  0.7595 -0.6790
   40POPC   H6X 5408   4.801   1.863   7.184 -0.3430  0.3154  0.0520
   40POPC   H6Y 5409   4.954   1.826   7.127  0.6535 -1.6004  0.0696
   40POPC   C37 5410   4.861   1.659   7.221 -0.1188  0.7415 -0.1792
   40POPC   H7X 5411   4.893   1.572   7.159  1.8889  2.6819 -1.9489
   40POPC   H7Y 5412   4.758   1.640   7.259 -0.4595  0.9377 -0.9991
   40POPC   C38 5413   4.947   1.686   7.342  0.3135 -0.0428 -0.0048
   40POPC   H8X 5414   4.908   1.776   7.395  0.9485  0.1343  0.1748
   40POPC   H8Y 5415   5.046   1.714   7.298  0.7846  0.8364  1.5580
   40POPC   C39 5416   4.962   1.562   7.434 -0.5497 -0.0850  0.1844
   40POPC   H9X 5417   4.989   1.468   7.381  0.3665 -0.0792  0.6274
   40POPC   H9Y 5418   4.865   1.544   7.484  0.7664 -2.4034  2.0400
   40POPC  C310 5419   5.069   1.583   7.538 -0.3999  0.3497 -0.8557
   40POPC  H10X 5420   5.042   1.669   7.603  0.9207 -0.5814  0.9794
   40POPC  H10Y 5421   5.165   1.622   7.497 -0.0157  0.4660  0.1362
   40POPC  C311 5422   5.104   1.459   7.630  0.2191  0.7474  0.1116
   40POPC  H11X 5423   5.172   1.484   7.715 -1.1963  0.4126  1.3548
   40POPC  H11Y 5424   5.158   1.391   7.561 -2.0587 -0.6683 -0.2990
   40POPC  C312 5425   4.979   1.388   7.682  0.4731  0.0958 -0.9547
   40POPC  H12X 5426   5.016   1.284   7.695 -1.4647 -0.5520 -0.5602
   40POPC  H12Y 5427   4.895   1.380   7.610 -1.2094  0.5325  0.9053
   40POPC  C313 5428   4.909   1.437   7.805 -0.1610  0.3991 -0.2341
   40POPC  H13X 5429   4.821   1.373   7.825 -0.0774 -0.2486 -1.8833
   40POPC  H13Y 5430   4.865   1.536   7.778  2.9951  2.0531  0.5024
   40POPC  C314 5431   5.014   1.432   7.921  0.3269  0.7308  0.1949
   40POPC  H14X 5432   5.082   1.520   7.922  0.1636  0.8698 -0.6276
   40POPC  H14Y 5433   5.078   1.341   7.923  1.9082  1.8256  0.2163
   40POPC  C315 5434   4.925   1.437   8.046 -0.2639  0.8384 -0.0082
   40POPC  H15X 5435   5.001   1.452   8.126 -0.7344 -2.8460  1.2539
   40POPC  H15Y 5436   4.893   1.330   8.052  0.2608  0.4583 -3.2773
   40POPC  C316 5437   4.816   1.543   8.050 -0.2264 -0.1165  0.1205
   40POPC  H16X 5438   4.758   1.541   8.144 -0.8207 -0.7546 -0.2538
   40POPC  H16Y 5439   4.747   1.532   7.964 -0.2534 -0.9605  0.2429
   40POPC  H16Z 5440   4.862   1.644   8.051  0.3431 -0.3640  2.7273
   41CHL1    C3 5441   4.210   5.146  10.053  0.5194 -0.9744 -0.0786
   41CHL1    H3 5442   4.319   5.146  10.033  0.8308  3.0737  1.0763
   41CHL1    O3 5443   4.195   5.075  10.177  0.2258  0.3495 -0.1666
   41CHL1   H3' 5444   4.102   5.060  10.196  0.1930  2.3649  1.4821
   41CHL1    C4 5445   4.161   5.294  10.063 -0.9760  0.4089  0.4979
   41CHL1   H4A 5446   4.053   5.299  10.091 -0.9010 -0.3530  0.9569
   41CHL1   H4B 5447   4.224   5.336  10.144  0.6367  0.7259 -0.9019
   41CHL1    C5 5448   4.184   5.364   9.932 -0.2004  0.3942 -0.4927
   41CHL1    C6 5449   4.256   5.476   9.932 -0.3365 -0.3109 -0.7920
   41CHL1    H6 5450   4.302   5.506  10.028  1.0429  3.0692 -2.4053
   41CHL1    C7 5451   4.283   5.557   9.805  0.6069  0.1221  0.3859
   41CHL1   H7A 5452   4.271   5.667   9.815 -1.4533  0.2837 -3.0198
   41CHL1   H7B 5453   4.388   5.555   9.768 -0.3414 -0.1389 -2.4277
   41CHL1    C8 5454   4.189   5.519   9.689 -0.0225 -0.8878  0.9131
   41CHL1    H8 5455   4.087   5.553   9.718  0.8996  3.1405 -0.3054
   41CHL1   C14 5456   4.241   5.583   9.560 -0.0866 -0.0955  0.5446
   41CHL1   H14 5457   4.346   5.549   9.553 -0.0453 -0.6738  3.1899
   41CHL1   C15 5458   4.264   5.732   9.558  0.1965  0.1032 -0.0270
   41CHL1  H15A 5459   4.169   5.780   9.588 -0.2991  0.7563 -2.4900
   41CHL1  H15B 5460   4.348   5.772   9.619  1.5072 -0.4039 -1.4372
   41CHL1   C16 5461   4.290   5.750   9.409 -0.2038  0.1441  0.1380
   41CHL1  H16A 5462   4.220   5.820   9.358 -1.9208 -1.1803  0.6564
   41CHL1  H16B 5463   4.392   5.785   9.382 -0.4605  3.0728  2.6291
   41CHL1   C17 5464   4.267   5.619   9.334  0.0285 -0.3189  0.2515
   41CHL1   H17 5465   4.368   5.573   9.319 -0.3762 -1.5921  1.2653
   41CHL1   C13 5466   4.185   5.533   9.436  0.5207 -1.0088 -0.0566
   41CHL1   C18 5467   4.037   5.579   9.432 -0.1762  0.3496  0.1138
   41CHL1  H18A 5468   3.977   5.534   9.514  1.9649 -1.3098  0.8066
   41CHL1  H18B 5469   4.026   5.689   9.425 -1.1192  0.2301 -0.3643
   41CHL1  H18C 5470   3.987   5.539   9.341  1.0433  1.7506 -1.1973
   41CHL1   C12 5471   4.186   5.379   9.430 -1.0307  0.7182  0.3124
   41CHL1  H12A 5472   4.145   5.342   9.334 -1.1160  0.4295  0.4572
   41CHL1  H12B 5473   4.291   5.347   9.444 -1.4288 -0.9443 -0.3787
   41CHL1   C11 5474   4.121   5.299   9.546  0.0959 -0.4940 -0.5385
   41CHL1  H11A 5475   4.013   5.325   9.549  0.0835 -0.1471 -2.9905
   41CHL1  H11B 5476   4.146   5.191   9.536 -0.1006 -0.5013 -0.9623
   41CHL1    C9 5477   4.172   5.365   9.677  0.5460 -0.1409 -0.1782
   41CHL1    H9 5478   4.280   5.337   9.678  0.6698  0.3148 -0.2503
   41CHL1   C10 5479   4.117   5.291   9.806 -0.1486 -0.7255  0.3725
   41CHL1   C19 5480   3.969   5.310   9.809  0.3556  0.0354 -0.3319
   41CHL1  H19A 5481   3.937   5.416   9.811  1.2706  0.2828  2.8040
   41CHL1  H19B 5482   3.916   5.260   9.724  0.9202 -0.0633 -0.6290
   41CHL1  H19C 5483   3.925   5.257   9.896  1.0266 -0.4752 -0.3034
   41CHL1    C1 5484   4.152   5.141   9.803  0.1095 -0.0701  0.3815
   41CHL1   H1A 5485   4.077   5.090   9.738  1.2426 -0.6624 -0.4815
   41CHL1   H1B 5486   4.255   5.130   9.764 -0.3033 -1.2597 -0.3928
   41CHL1    C2 5487   4.140   5.072   9.938  0.7872  0.1364 -0.2461
   41CHL1   H2A 5488   4.163   4.964   9.928  1.8626  0.4804 -1.4919
   41CHL1   H2B 5489   4.032   5.074   9.966  0.1111 -0.6629 -2.7189
   41CHL1   C20 5490   4.212   5.631   9.195  0.4800 -0.5012 -0.1003
   41CHL1   H20 5491   4.110   5.673   9.208 -0.5975 -2.6328 -1.3543
   41CHL1   C21 5492   4.190   5.497   9.126 -0.2011 -1.4555 -0.1018
   41CHL1  H21A 5493   4.092   5.452   9.152 -1.0153 -0.6282 -1.6697
   41CHL1  H21B 5494   4.269   5.426   9.160 -0.3390 -0.2771  2.8551
   41CHL1  H21C 5495   4.185   5.503   9.016 -0.0984  0.3504 -0.0311
   41CHL1   C22 5496   4.289   5.725   9.099  0.2337 -0.8052  0.0776
   41CHL1  H22A 5497   4.235   5.740   9.003  0.9876 -0.6006 -0.3221
   41CHL1  H22B 5498   4.299   5.827   9.143 -2.7356 -0.3499 -0.2319
   41CHL1   C23 5499   4.427   5.675   9.063 -0.2371  0.3894  0.8961
   41CHL1  H23A 5500   4.488   5.670   9.156  0.7806 -0.8743  0.1749
   41CHL1  H23B 5501   4.428   5.572   9.020  3.3111  1.5875 -2.2773
   41CHL1   C24 5502   4.520   5.754   8.967  0.1795 -0.7203  0.0180
   41CHL1  H24A 5503   4.559   5.847   9.014  2.4292 -1.9473  0.6583
   41CHL1  H24B 5504   4.613   5.694   8.963 -1.1580 -3.0253  2.4106
   41CHL1   C25 5505   4.469   5.786   8.819 -1.0167  0.5153  0.7696
   41CHL1   H25 5506   4.372   5.830   8.850 -2.8134 -1.3094 -2.0086
   41CHL1   C26 5507   4.573   5.875   8.742  0.5451  0.0203 -0.2691
   41CHL1  H26A 5508   4.531   5.906   8.644 -0.6839  1.8145  0.8010
   41CHL1  H26B 5509   4.578   5.969   8.802 -0.0964 -0.1778  0.0960
   41CHL1  H26C 5510   4.675   5.832   8.731  0.8848  0.9514 -0.8929
   41CHL1   C27 5511   4.441   5.663   8.731 -0.2261 -0.6314 -0.3411
   41CHL1  H27A 5512   4.528   5.651   8.663  0.0757 -1.4010  0.1735
   41CHL1  H27B 5513   4.410   5.581   8.800  0.3039 -0.6914 -0.1778
   41CHL1  H27C 5514   4.359   5.688   8.660  1.8429 -1.3080 -3.0524
   42CHL1    C3 5515   3.880   4.674   9.773  0.1232  0.3582  0.0626
   42CHL1    H3 5516   3.771   4.653   9.768  0.1485  0.0393  0.7960
   42CHL1    O3 5517   3.880   4.781   9.867 -0.0139  0.5534  0.2275
   42CHL1   H3' 5518   3.823   4.747   9.936 -0.3167 -0.1196 -0.3430
   42CHL1    C4 5519   3.965   4.556   9.822 -0.3346 -0.5296  0.4602
   42CHL1   H4A 5520   4.061   4.608   9.843  1.0920 -2.9151 -0.0193
   42CHL1   H4B 5521   3.913   4.516   9.912 -4.0842 -1.6500 -2.0961
   42CHL1    C5 5522   3.977   4.447   9.723  0.6736 -0.4190  0.0726
   42CHL1    C6 5523   3.941   4.322   9.747  0.1910  0.4529  0.6578
   42CHL1    H6 5524   3.925   4.298   9.854  2.3147  0.7514  1.0756
   42CHL1    C7 5525   3.952   4.212   9.654 -0.0847  0.1584  0.1413
   42CHL1   H7A 5526   3.975   4.114   9.701  0.6989  0.0987 -0.3584
   42CHL1   H7B 5527   3.851   4.198   9.609  0.4937  0.3836 -1.2636
   42CHL1    C8 5528   4.043   4.230   9.534  0.2955 -0.7699  0.5282
   42CHL1    H8 5529   4.148   4.228   9.571 -0.5890 -2.3417  3.0687
   42CHL1   C14 5530   4.009   4.123   9.431  0.2505 -0.6603  0.8742
   42CHL1   H14 5531   3.902   4.133   9.402  0.9292  2.0145 -0.8819
   42CHL1   C15 5532   4.031   3.972   9.465  0.5144 -0.5997  0.1353
   42CHL1  H15A 5533   4.128   3.955   9.517  1.6116 -0.4997 -1.8551
   42CHL1  H15B 5534   3.940   3.938   9.520  0.3607 -2.3648 -1.1759
   42CHL1   C16 5535   4.026   3.912   9.321 -0.1509 -0.4843  0.5302
   42CHL1  H16A 5536   4.122   3.856   9.317  0.3907  0.3429  1.6198
   42CHL1  H16B 5537   3.930   3.860   9.300 -1.8654  3.1032 -0.9571
   42CHL1   C17 5538   4.022   4.025   9.217 -0.1662  0.1655 -0.3864
   42CHL1   H17 5539   3.916   4.046   9.191 -0.7629 -0.6991  1.2687
   42CHL1   C13 5540   4.077   4.141   9.296 -0.5596  0.1822 -0.4653
   42CHL1   C18 5541   4.231   4.126   9.302  0.3412 -0.4889 -0.1033
   42CHL1  H18A 5542   4.263   4.030   9.349  1.3618 -0.0209  0.1654
   42CHL1  H18B 5543   4.266   4.136   9.197 -1.7486  0.8152 -0.7206
   42CHL1  H18C 5544   4.276   4.213   9.354 -1.3954  0.5265 -0.2533
   42CHL1   C12 5545   4.039   4.278   9.238 -0.2959  0.0827 -0.6081
   42CHL1  H12A 5546   4.091   4.313   9.146 -0.1355  1.4861  0.0015
   42CHL1  H12B 5547   3.932   4.280   9.207 -0.9244 -0.3861  1.4261
   42CHL1   C11 5548   4.074   4.391   9.337  0.4743  0.2508 -0.3295
   42CHL1  H11A 5549   4.184   4.405   9.348  1.0313 -1.7492 -2.6870
   42CHL1  H11B 5550   4.035   4.489   9.302 -2.2610 -0.3256  0.9809
   42CHL1    C9 5551   4.009   4.373   9.475 -0.6334  0.1065  0.2156
   42CHL1    H9 5552   3.900   4.379   9.456 -0.8616 -2.0169  0.6773
   42CHL1   C10 5553   4.026   4.489   9.579 -0.2113 -0.1313 -0.0228
   42CHL1   C19 5554   4.176   4.520   9.587  0.1275 -0.5252  0.2256
   42CHL1  H19A 5555   4.242   4.433   9.607 -2.2124 -1.8761  2.3918
   42CHL1  H19B 5556   4.217   4.583   9.505 -0.7372 -0.5035 -0.1960
   42CHL1  H19C 5557   4.201   4.562   9.687 -0.0009 -2.8734  1.2820
   42CHL1    C1 5558   3.936   4.608   9.535 -0.0669  0.3264 -0.8244
   42CHL1   H1A 5559   3.986   4.643   9.442  1.1841 -0.5139 -0.4766
   42CHL1   H1B 5560   3.833   4.569   9.521 -0.3018  0.7686 -0.3409
   42CHL1    C2 5561   3.930   4.720   9.643  0.8760  0.7456 -0.8444
   42CHL1   H2A 5562   3.865   4.801   9.605  1.3775  0.8090 -1.5850
   42CHL1   H2B 5563   4.033   4.763   9.649  1.1917  0.1228 -1.6837
   42CHL1   C20 5564   4.080   3.980   9.085  0.1627 -0.2171 -0.0026
   42CHL1   H20 5565   4.184   3.948   9.106 -0.4628 -2.3734 -0.0452
   42CHL1   C21 5566   4.093   4.090   8.976 -0.3056 -0.8725  0.3757
   42CHL1  H21A 5567   4.006   4.154   9.001 -1.5221 -1.4674 -2.2340
   42CHL1  H21B 5568   4.096   4.051   8.872  0.8041  0.8762 -0.2812
   42CHL1  H21C 5569   4.183   4.153   8.995  0.5806 -1.6665 -1.0972
   42CHL1   C22 5570   4.000   3.862   9.013 -0.2493  0.5373 -0.8104
   42CHL1  H22A 5571   4.047   3.851   8.913 -0.2765 -3.2968 -0.4914
   42CHL1  H22B 5572   4.011   3.775   9.081  2.8025  2.0451  0.7341
   42CHL1   C23 5573   3.842   3.875   9.011 -0.2727 -0.3276 -0.6747
   42CHL1  H23A 5574   3.801   3.862   9.113  1.3109 -0.6185 -0.0640
   42CHL1  H23B 5575   3.820   3.975   8.969  0.1023 -0.4079 -1.0702
   42CHL1   C24 5576   3.776   3.763   8.925 -0.4421  0.1153  0.5851
   42CHL1  H24A 5577   3.825   3.758   8.826 -1.6781  0.0736 -0.0378
   42CHL1  H24B 5578   3.795   3.670   8.983  0.3084  0.5125  0.9845
   42CHL1   C25 5579   3.623   3.787   8.893  0.2399 -0.1349  0.8275
   42CHL1   H25 5580   3.567   3.780   8.989 -1.2810 -0.6980 -0.0901
   42CHL1   C26 5581   3.601   3.922   8.813  0.3189 -0.5189 -0.4213
   42CHL1  H26A 5582   3.682   3.924   8.737  0.6893 -2.0840 -0.0901
   42CHL1  H26B 5583   3.498   3.924   8.772  0.7277  1.3929 -1.4561
   42CHL1  H26C 5584   3.609   4.016   8.873  0.3511  0.6094 -2.1644
   42CHL1   C27 5585   3.567   3.674   8.805 -0.1942  0.2640  0.7680
   42CHL1  H27A 5586   3.458   3.659   8.825 -0.8350  2.6869 -0.6082
   42CHL1  H27B 5587   3.586   3.695   8.698  1.8616 -0.8387  0.8951
   42CHL1  H27C 5588   3.612   3.578   8.835  0.9055  0.9243  1.2414
   43CHL1    C3 5589   4.565   5.313  10.142  0.3094 -0.1646 -0.4553
   43CHL1    H3 5590   4.468   5.355  10.108  2.0532  3.4185 -1.2333
   43CHL1    O3 5591   4.543   5.248  10.262 -0.1241  0.4009  0.5042
   43CHL1   H3' 5592   4.629   5.251  10.304  0.2413  1.1692 -0.2997
   43CHL1    C4 5593   4.620   5.212  10.045  0.2020 -0.3807 -0.5193
   43CHL1   H4A 5594   4.712   5.166  10.087 -0.1809 -0.3332  0.3815
   43CHL1   H4B 5595   4.543   5.132  10.037 -1.2513  0.7813  1.4200
   43CHL1    C5 5596   4.642   5.282   9.909 -0.1783 -0.1594  0.0052
   43CHL1    C6 5597   4.600   5.223   9.798 -0.2164 -0.0190 -0.7692
   43CHL1    H6 5598   4.546   5.127   9.796  0.0465 -0.1659 -3.8129
   43CHL1    C7 5599   4.638   5.278   9.661  0.1065  0.3848  1.1010
   43CHL1   H7A 5600   4.677   5.198   9.595  0.5036  0.7600  0.8779
   43CHL1   H7B 5601   4.539   5.306   9.617 -0.8580 -2.9776  0.9801
   43CHL1    C8 5602   4.732   5.404   9.666  0.1141  0.5268  0.0993
   43CHL1    H8 5603   4.830   5.355   9.678  0.1805  1.0417  1.7483
   43CHL1   C14 5604   4.720   5.473   9.527 -0.3093  0.5081  0.3318
   43CHL1   H14 5605   4.623   5.526   9.517 -1.8440 -1.5049  3.5409
   43CHL1   C15 5606   4.736   5.384   9.403 -0.1122  0.1575  0.0267
   43CHL1  H15A 5607   4.816   5.309   9.423  0.3478  0.7215  0.2947
   43CHL1  H15B 5608   4.638   5.339   9.376 -0.2722  0.3319  0.3117
   43CHL1   C16 5609   4.787   5.484   9.299 -0.1689 -0.0044 -0.5131
   43CHL1  H16A 5610   4.884   5.459   9.252  0.5196  0.0223  0.8868
   43CHL1  H16B 5611   4.713   5.493   9.216 -1.0113  1.5994  0.3702
   43CHL1   C17 5612   4.808   5.626   9.375  0.1698  0.0127 -0.8872
   43CHL1   H17 5613   4.708   5.672   9.359  0.6798  1.8112  0.9760
   43CHL1   C13 5614   4.826   5.587   9.516  0.3173 -0.3655  0.2322
   43CHL1   C18 5615   4.978   5.534   9.531  0.0879 -0.3311  0.0418
   43CHL1  H18A 5616   5.044   5.624   9.531  0.2555 -0.3886 -2.7537
   43CHL1  H18B 5617   4.988   5.482   9.629  2.7542  0.9534  0.5127
   43CHL1  H18C 5618   5.010   5.458   9.456 -2.5252 -0.7517 -0.6805
   43CHL1   C12 5619   4.789   5.682   9.637 -0.4047  0.2749 -0.0985
   43CHL1  H12A 5620   4.870   5.758   9.646 -1.0411  1.0051 -0.4152
   43CHL1  H12B 5621   4.692   5.735   9.638 -0.7370 -0.3418  0.5150
   43CHL1   C11 5622   4.799   5.621   9.775  0.0829 -0.6624  0.4004
   43CHL1  H11A 5623   4.903   5.596   9.805  0.1972 -0.3675  0.2491
   43CHL1  H11B 5624   4.772   5.704   9.844  4.8115  0.0837  1.5380
   43CHL1    C9 5625   4.718   5.494   9.778 -0.3198 -0.0729 -0.0956
   43CHL1    H9 5626   4.614   5.531   9.766 -0.4480 -0.6493 -0.7491
   43CHL1   C10 5627   4.730   5.417   9.921 -0.0773 -0.5528  0.5955
   43CHL1   C19 5628   4.885   5.382   9.953 -1.1731  0.5277 -0.8050
   43CHL1  H19A 5629   4.936   5.342   9.863 -0.2850  0.1264 -0.1331
   43CHL1  H19B 5630   4.945   5.469   9.989 -0.9077  0.5019 -1.1759
   43CHL1  H19C 5631   4.899   5.312  10.038 -0.7567  1.6540  0.0718
   43CHL1    C1 5632   4.670   5.510  10.033  0.2336  0.9189  0.3684
   43CHL1   H1A 5633   4.736   5.596  10.058  0.8775  0.7125 -0.5850
   43CHL1   H1B 5634   4.573   5.558  10.009  0.0504  0.1099 -0.5597
   43CHL1    C2 5635   4.659   5.435  10.165  0.3112  0.4681 -0.0143
   43CHL1   H2A 5636   4.614   5.500  10.244 -0.2535  1.5482 -1.2204
   43CHL1   H2B 5637   4.758   5.399  10.202  1.5148 -0.5188 -4.0079
   43CHL1   C20 5638   4.911   5.713   9.297 -0.4226  0.0832 -0.1925
   43CHL1   H20 5639   5.005   5.655   9.300  0.1823  0.9280 -1.8119
   43CHL1   C21 5640   4.919   5.849   9.374  0.4858 -0.1909 -0.3159
   43CHL1  H21A 5641   4.818   5.889   9.394  0.4540 -0.3639 -0.1346
   43CHL1  H21B 5642   4.981   5.925   9.321  0.0348  1.5860  1.6271
   43CHL1  H21C 5643   4.970   5.832   9.471  0.1875  2.2030  0.2747
   43CHL1   C22 5644   4.870   5.731   9.148  0.1591  0.0847  0.7635
   43CHL1  H22A 5645   4.902   5.642   9.089 -1.2736  0.9508 -1.3990
   43CHL1  H22B 5646   4.760   5.739   9.137  0.1272 -0.5076  0.6474
   43CHL1   C23 5647   4.940   5.855   9.079  0.2766 -0.0576 -0.5186
   43CHL1  H23A 5648   4.886   5.947   9.109 -1.9647 -1.0095 -1.4683
   43CHL1  H23B 5649   5.047   5.867   9.104 -0.1303  0.6435  0.9454
   43CHL1   C24 5650   4.917   5.858   8.921 -0.3574  0.2338 -0.0056
   43CHL1  H24A 5651   4.935   5.763   8.867  1.4173  1.0763 -0.9717
   43CHL1  H24B 5652   4.808   5.878   8.914 -0.1267  1.6870  0.1994
   43CHL1   C25 5653   4.988   5.979   8.859 -0.6493  0.2194  0.5664
   43CHL1   H25 5654   4.982   5.982   8.748 -3.7037 -0.1910  0.7026
   43CHL1   C26 5655   4.923   6.111   8.903  0.1586 -0.5530 -0.3378
   43CHL1  H26A 5656   4.948   6.133   9.009  0.9998 -2.0358 -0.2155
   43CHL1  H26B 5657   4.957   6.195   8.839 -1.3426 -0.6852 -1.3495
   43CHL1  H26C 5658   4.812   6.105   8.898 -0.0785  2.1763  0.6331
   43CHL1   C27 5659   5.137   5.974   8.892  0.0818  0.4251 -0.3456
   43CHL1  H27A 5660   5.198   6.042   8.828  1.4547 -0.7553 -0.3139
   43CHL1  H27B 5661   5.153   5.999   8.999 -4.0440  1.8222  0.0485
   43CHL1  H27C 5662   5.177   5.872   8.878  2.6988  1.2945  0.4086
   44CHL1    C3 5663   5.153   5.710  10.279 -0.6044 -0.5821  0.2366
   44CHL1    H3 5664   5.216   5.620  10.261 -0.2700 -0.2092 -0.5133
   44CHL1    O3 5665   5.106   5.696  10.412  0.2049  0.7160 -0.5018
   44CHL1   H3' 5666   5.016   5.675  10.387  0.4463 -1.0663  0.0256
   44CHL1    C4 5667   5.222   5.840  10.266 -0.2956 -0.1810 -0.1850
   44CHL1   H4A 5668   5.161   5.927  10.295  1.9526  1.9053 -1.5143
   44CHL1   H4B 5669   5.302   5.837  10.344  0.0310 -0.5908 -0.5315
   44CHL1    C5 5670   5.275   5.865  10.124  0.7686  0.1059 -0.0413
   44CHL1    C6 5671   5.402   5.893  10.100 -0.0829 -0.5024  0.0644
   44CHL1    H6 5672   5.470   5.898  10.186  0.5612  1.8347 -0.5369
   44CHL1    C7 5673   5.455   5.943   9.964 -0.2749  0.4703 -0.0860
   44CHL1   H7A 5674   5.538   6.017   9.973  0.6577 -0.4984 -0.5950
   44CHL1   H7B 5675   5.499   5.861   9.903  0.8948 -0.4568  1.9616
   44CHL1    C8 5676   5.339   5.995   9.873  0.0791 -0.2676  0.2031
   44CHL1    H8 5677   5.303   6.096   9.902 -1.3160 -0.4754 -0.7755
   44CHL1   C14 5678   5.386   6.005   9.727 -0.1891 -0.2192 -0.2696
   44CHL1   H14 5679   5.418   5.901   9.705  0.7634  0.4374 -2.1431
   44CHL1   C15 5680   5.509   6.092   9.696 -0.7871  0.9957 -0.5532
   44CHL1  H15A 5681   5.497   6.192   9.743 -2.4511  0.4437  0.2463
   44CHL1  H15B 5682   5.593   6.047   9.753 -0.4573  1.5606 -0.5906
   44CHL1   C16 5683   5.511   6.082   9.545 -0.0073  0.1467  0.4730
   44CHL1  H16A 5684   5.547   6.176   9.497  0.7287 -0.8622 -0.9891
   44CHL1  H16B 5685   5.583   6.009   9.502  2.9690  1.9950  2.1927
   44CHL1   C17 5686   5.365   6.040   9.497 -0.8089 -0.0452  0.2965
   44CHL1   H17 5687   5.371   5.931   9.473  2.8481  0.2399 -0.3377
   44CHL1   C13 5688   5.279   6.041   9.632  0.0314 -0.3528  0.4984
   44CHL1   C18 5689   5.225   6.183   9.657 -0.6457 -0.4862 -0.2477
   44CHL1  H18A 5690   5.310   6.246   9.626 -1.0688 -0.4788 -1.4349
   44CHL1  H18B 5691   5.140   6.206   9.588  0.5836  2.0210 -0.9566
   44CHL1  H18C 5692   5.198   6.205   9.762  1.1303  1.7973 -0.2455
   44CHL1   C12 5693   5.158   5.943   9.636 -0.8368  0.6578  0.1013
   44CHL1  H12A 5694   5.076   5.986   9.576 -0.8625  0.1997 -0.1923
   44CHL1  H12B 5695   5.183   5.841   9.600  1.0471  1.0599  0.1867
   44CHL1   C11 5696   5.103   5.927   9.777 -0.5324  0.1147  0.4367
   44CHL1  H11A 5697   5.051   6.021   9.805  0.7244  0.1731  2.6860
   44CHL1  H11B 5698   5.025   5.848   9.773  2.1323 -2.5092 -1.7371
   44CHL1    C9 5699   5.218   5.899   9.877 -0.2848 -0.0902  0.2226
   44CHL1    H9 5700   5.254   5.801   9.839  1.1525 -0.7682  3.2254
   44CHL1   C10 5701   5.167   5.879  10.022 -0.0190  0.1116 -0.7313
   44CHL1   C19 5702   5.060   5.995  10.052 -0.3470  0.4176 -0.2527
   44CHL1  H19A 5703   5.096   6.093  10.013  1.0799 -0.5747 -1.4991
   44CHL1  H19B 5704   4.957   5.975  10.016 -0.9294  0.3164  1.4291
   44CHL1  H19C 5705   5.049   6.020  10.159  0.2018  1.8786 -0.5249
   44CHL1    C1 5706   5.095   5.737  10.034 -0.6051  0.0096  0.4332
   44CHL1   H1A 5707   5.011   5.718   9.964  0.3231 -0.6037 -0.5385
   44CHL1   H1B 5708   5.167   5.658  10.003  0.4785  1.4623 -0.7953
   44CHL1    C2 5709   5.039   5.698  10.170 -0.1114 -0.1527 -0.5344
   44CHL1   H2A 5710   5.013   5.590  10.178  1.6836 -0.4269  2.8462
   44CHL1   H2B 5711   4.950   5.763  10.184  0.1732  0.1252  0.0171
   44CHL1   C20 5712   5.333   6.118   9.377  0.1132  0.2794 -0.7063
   44CHL1   H20 5713   5.332   6.223   9.413 -3.7425 -0.2052  0.9052
   44CHL1   C21 5714   5.189   6.086   9.317  0.0829  0.0109  0.1443
   44CHL1  H21A 5715   5.184   5.979   9.287  0.8109 -0.4610  1.6859
   44CHL1  H21B 5716   5.158   6.145   9.227 -2.5901  2.5544  2.6251
   44CHL1  H21C 5717   5.117   6.116   9.396 -1.5520  1.2398 -1.7509
   44CHL1   C22 5718   5.429   6.096   9.263 -0.4901 -0.0517  0.5826
   44CHL1  H22A 5719   5.529   6.104   9.310 -1.7716  2.3419  3.0362
   44CHL1  H22B 5720   5.427   5.993   9.222 -0.8257  0.0259  0.3954
   44CHL1   C23 5721   5.420   6.203   9.156 -0.8941  0.0174 -0.6179
   44CHL1  H23A 5722   5.316   6.204   9.117 -1.4253 -3.2975  0.6008
   44CHL1  H23B 5723   5.438   6.305   9.198 -0.0270  0.3181 -1.6894
   44CHL1   C24 5724   5.516   6.176   9.036  0.3377  0.2355 -0.3217
   44CHL1  H24A 5725   5.622   6.178   9.067  2.0613 -4.1934 -5.2148
   44CHL1  H24B 5726   5.497   6.074   8.996 -0.4487  1.2944 -2.7710
   44CHL1   C25 5727   5.497   6.288   8.927  0.1453 -0.0182  0.0550
   44CHL1   H25 5728   5.388   6.295   8.904  0.6884  0.5495 -2.6109
   44CHL1   C26 5729   5.547   6.425   8.979 -0.5883 -0.4087 -0.1216
   44CHL1  H26A 5730   5.654   6.415   9.005  0.1582 -1.5739 -3.4129
   44CHL1  H26B 5731   5.533   6.499   8.897 -0.0377  0.2080  0.3418
   44CHL1  H26C 5732   5.499   6.472   9.067  0.9260  1.4165 -0.2382
   44CHL1   C27 5733   5.579   6.249   8.801  0.3822  0.2504 -0.1430
   44CHL1  H27A 5734   5.542   6.311   8.717 -1.5576 -0.9736 -0.2205
   44CHL1  H27B 5735   5.688   6.270   8.812  0.6161 -1.5845  1.2449
   44CHL1  H27C 5736   5.564   6.147   8.758  0.5669  0.4078 -0.5847
   45CHL1    C3 5737   1.193   5.335  10.369 -0.3406 -0.0868  0.7440
   45CHL1    H3 5738   1.251   5.250  10.412 -0.3281 -0.8891 -0.8205
   45CHL1    O3 5739   1.114   5.398  10.472  0.1557  0.3052 -0.2679
   45CHL1   H3' 5740   1.182   5.453  10.513  0.0829  0.2655 -0.0909
   45CHL1    C4 5741   1.269   5.442  10.293  0.1565  0.1213  0.8508
   45CHL1   H4A 5742   1.197   5.522  10.265 -0.3406 -0.9621 -1.0192
   45CHL1   H4B 5743   1.345   5.499  10.350 -0.3771  0.6913  1.0053
   45CHL1    C5 5744   1.327   5.394  10.158 -0.0594 -0.4565 -0.0689
   45CHL1    C6 5745   1.449   5.419  10.111  0.4665 -0.7354 -0.2062
   45CHL1    H6 5746   1.511   5.474  10.183  0.8166  2.2308 -2.6912
   45CHL1    C7 5747   1.501   5.376   9.976  0.1126  0.1363  0.3903
   45CHL1   H7A 5748   1.537   5.462   9.917  0.5282 -0.9707 -0.9959
   45CHL1   H7B 5749   1.581   5.300   9.994  0.2929  0.2527  0.0838
   45CHL1    C8 5750   1.402   5.305   9.882 -0.0051 -0.1050 -0.2775
   45CHL1    H8 5751   1.451   5.213   9.845 -0.1742 -0.8616  1.3368
   45CHL1   C14 5752   1.370   5.377   9.748 -0.0192  0.8087 -0.1954
   45CHL1   H14 5753   1.325   5.473   9.781 -0.1759  0.7454 -0.2225
   45CHL1   C15 5754   1.497   5.415   9.660 -0.2737 -0.6467  0.2935
   45CHL1  H15A 5755   1.550   5.505   9.696 -0.8680 -1.2857  2.8912
   45CHL1  H15B 5756   1.570   5.331   9.654  0.2495 -0.0488 -2.2368
   45CHL1   C16 5757   1.440   5.422   9.529  0.6559 -1.0160 -0.4294
   45CHL1  H16A 5758   1.398   5.521   9.503 -0.4226 -1.2147  0.5578
   45CHL1  H16B 5759   1.511   5.398   9.447  0.9542 -1.1607 -0.1306
   45CHL1   C17 5760   1.339   5.303   9.522 -0.0064  0.1102 -0.2774
   45CHL1   H17 5761   1.397   5.208   9.522 -1.6225 -0.9462 -3.8582
   45CHL1   C13 5762   1.262   5.308   9.655 -0.0781 -0.2363 -0.3354
   45CHL1   C18 5763   1.141   5.401   9.648 -0.4999 -0.2503 -0.0216
   45CHL1  H18A 5764   1.093   5.422   9.746  0.1242  2.2160 -0.2111
   45CHL1  H18B 5765   1.178   5.497   9.606  1.2567  0.0274  2.0518
   45CHL1  H18C 5766   1.059   5.359   9.587 -0.9144 -1.2832  1.2253
   45CHL1   C12 5767   1.233   5.165   9.711 -0.6398 -0.7499 -0.1530
   45CHL1  H12A 5768   1.160   5.118   9.642  0.4899  1.9852 -3.3868
   45CHL1  H12B 5769   1.333   5.116   9.706 -0.4512 -0.1916 -2.2746
   45CHL1   C11 5770   1.185   5.177   9.860 -1.0283 -0.1476  0.1579
   45CHL1  H11A 5771   1.088   5.230   9.849 -0.2102  1.1655 -0.9041
   45CHL1  H11B 5772   1.166   5.073   9.894 -3.5664  0.3382  0.3156
   45CHL1    C9 5773   1.285   5.244   9.953 -0.4776  0.4326  0.0916
   45CHL1    H9 5774   1.341   5.164  10.006  0.7791  1.2979  0.0872
   45CHL1   C10 5775   1.227   5.320  10.074 -0.2549 -0.5526 -0.3564
   45CHL1   C19 5776   1.115   5.422  10.021  0.1939  0.0050  0.4684
   45CHL1  H19A 5777   1.087   5.483  10.110 -1.4894 -1.5714  1.0486
   45CHL1  H19B 5778   1.153   5.479   9.934 -1.0829 -0.5999 -0.4964
   45CHL1  H19C 5779   1.031   5.361   9.982  1.0048 -0.9851  0.2736
   45CHL1    C1 5780   1.161   5.208  10.155  0.4703  0.1756  0.4448
   45CHL1   H1A 5781   1.083   5.157  10.094  0.6375  1.2260 -0.6726
   45CHL1   H1B 5782   1.240   5.137  10.187  1.6803 -0.3665 -3.4234
   45CHL1    C2 5783   1.089   5.264  10.284 -0.2698 -0.5201  0.0973
   45CHL1   H2A 5784   1.030   5.184  10.333 -2.4880  1.0675  0.0979
   45CHL1   H2B 5785   1.013   5.343  10.262 -0.6185 -1.3810 -1.8669
   45CHL1   C20 5786   1.248   5.294   9.390  0.0420  0.0170  0.0727
   45CHL1   H20 5787   1.175   5.378   9.382 -0.4060 -0.3871 -0.0696
   45CHL1   C21 5788   1.178   5.157   9.385  0.1188  0.2723  1.9987
   45CHL1  H21A 5789   1.088   5.154   9.450 -0.1989  0.0156  1.5473
   45CHL1  H21B 5790   1.247   5.074   9.411  1.9428  0.4876 -1.8227
   45CHL1  H21C 5791   1.147   5.131   9.282 -0.4301  1.7537  1.7678
   45CHL1   C22 5792   1.338   5.316   9.267  0.1935 -0.4741 -0.8370
   45CHL1  H22A 5793   1.383   5.417   9.266 -0.7592 -0.0419  0.5574
   45CHL1  H22B 5794   1.414   5.235   9.263  0.2022 -0.5620  0.8477
   45CHL1   C23 5795   1.268   5.322   9.134 -0.1553  0.2266 -0.2005
   45CHL1  H23A 5796   1.207   5.233   9.107  0.0696 -0.7108  2.2698
   45CHL1  H23B 5797   1.196   5.407   9.138 -2.5726 -1.6713 -1.8552
   45CHL1   C24 5798   1.352   5.346   9.008 -0.3221 -0.4204 -0.0644
   45CHL1  H24A 5799   1.412   5.438   9.027 -0.7035 -0.0273 -0.7551
   45CHL1  H24B 5800   1.427   5.263   9.007  1.0451  0.7922 -1.1948
   45CHL1   C25 5801   1.275   5.371   8.878 -0.3803  0.5121  0.0441
   45CHL1   H25 5802   1.193   5.444   8.896  0.2765  0.9315  1.3288
   45CHL1   C26 5803   1.363   5.443   8.768  0.6281 -0.1017  0.3117
   45CHL1  H26A 5804   1.455   5.388   8.740  1.0670  1.1230 -0.7290
   45CHL1  H26B 5805   1.300   5.451   8.677  0.7339 -0.4042  0.2125
   45CHL1  H26C 5806   1.387   5.543   8.811 -0.7553  0.1892  0.4129
   45CHL1   C27 5807   1.211   5.246   8.818  0.0664 -0.3041 -0.1630
   45CHL1  H27A 5808   1.286   5.167   8.796  0.8418  0.3604  0.0670
   45CHL1  H27B 5809   1.134   5.208   8.888  1.1744 -1.2982  0.5335
   45CHL1  H27C 5810   1.161   5.267   8.721  0.9868 -2.5839 -1.1771
   46CHL1    C3 5811   4.391   1.873   9.957 -0.5397 -0.1979  0.3925
   46CHL1    H3 5812   4.457   1.784   9.963  0.8153  0.7953  0.5043
   46CHL1    O3 5813   4.369   1.933  10.085 -0.9053 -0.1022 -0.4631
   46CHL1   H3' 5814   4.293   1.886  10.122 -0.2791  0.1488  1.1965
   46CHL1    C4 5815   4.463   1.974   9.870 -0.0738  0.4260 -0.0163
   46CHL1   H4A 5816   4.397   2.063   9.870  0.8263  1.1140 -0.8805
   46CHL1   H4B 5817   4.555   2.008   9.923  0.3365  1.3981 -1.3435
   46CHL1    C5 5818   4.484   1.938   9.723 -0.4515 -0.2344 -0.1986
   46CHL1    C6 5819   4.608   1.944   9.667  0.5861 -0.2941 -0.1707
   46CHL1    H6 5820   4.693   1.965   9.734 -1.5395 -1.2913  3.0089
   46CHL1    C7 5821   4.635   1.919   9.523 -0.0265 -0.0160 -0.0975
   46CHL1   H7A 5822   4.683   2.009   9.480 -1.2942  0.9533  0.5034
   46CHL1   H7B 5823   4.707   1.835   9.508 -2.1933 -1.4665 -2.7851
   46CHL1    C8 5824   4.512   1.905   9.439 -0.1793 -0.0629  0.1542
   46CHL1    H8 5825   4.480   2.011   9.433  1.1860  0.4291  1.2948
   46CHL1   C14 5826   4.533   1.842   9.306 -0.2213  0.4141  0.1856
   46CHL1   H14 5827   4.562   1.736   9.321 -1.7637 -0.3753 -2.1553
   46CHL1   C15 5828   4.646   1.908   9.217  0.7623 -0.3185 -0.4303
   46CHL1  H15A 5829   4.629   2.017   9.232 -2.2043 -0.3908 -2.9983
   46CHL1  H15B 5830   4.750   1.889   9.252  1.1251  1.9955 -0.1986
   46CHL1   C16 5831   4.613   1.863   9.071  0.5597  0.4497 -0.2345
   46CHL1  H16A 5832   4.611   1.957   9.012 -0.5595 -0.8205 -2.2947
   46CHL1  H16B 5833   4.698   1.806   9.028  0.2333  0.9757 -1.6093
   46CHL1   C17 5834   4.476   1.779   9.080  0.2575  0.5797 -0.5377
   46CHL1   H17 5835   4.505   1.674   9.100 -2.4552  0.4579  3.2410
   46CHL1   C13 5836   4.407   1.829   9.213  0.6551  0.3168 -0.0310
   46CHL1   C18 5837   4.347   1.967   9.183  0.3978  0.3035 -0.8068
   46CHL1  H18A 5838   4.315   2.000   9.285  1.3553 -2.4333  0.4321
   46CHL1  H18B 5839   4.430   2.028   9.142  1.3878 -0.4561  0.0331
   46CHL1  H18C 5840   4.257   1.957   9.119 -0.4963  0.8051  0.3559
   46CHL1   C12 5841   4.309   1.737   9.283  0.0446  0.7373 -0.4057
   46CHL1  H12A 5842   4.214   1.743   9.226  0.6046  0.5593 -1.3645
   46CHL1  H12B 5843   4.354   1.636   9.295  2.1014  1.6777  0.1409
   46CHL1   C11 5844   4.276   1.790   9.428  0.9187 -0.4044 -0.7548
   46CHL1  H11A 5845   4.213   1.880   9.418 -0.6324 -1.4860 -0.9700
   46CHL1  H11B 5846   4.215   1.719   9.488  0.0780 -2.2448 -3.6761
   46CHL1    C9 5847   4.400   1.823   9.518 -0.2377 -0.2137 -0.0247
   46CHL1    H9 5848   4.445   1.725   9.544  1.9781  0.7649 -0.0868
   46CHL1   C10 5849   4.359   1.888   9.653  0.6342 -0.2856 -0.6354
   46CHL1   C19 5850   4.266   2.009   9.628 -0.9870  0.2165 -0.3453
   46CHL1  H19A 5851   4.257   2.076   9.716 -1.9419  0.6980 -0.7927
   46CHL1  H19B 5852   4.296   2.081   9.548 -0.8415 -0.9888 -1.4012
   46CHL1  H19C 5853   4.167   1.971   9.596 -1.5947  1.0820  0.4783
   46CHL1    C1 5854   4.290   1.778   9.743  0.3361 -0.1094 -0.1030
   46CHL1   H1A 5855   4.191   1.756   9.698  0.7149 -2.0256 -0.0151
   46CHL1   H1B 5856   4.349   1.684   9.744 -0.0044 -0.3255  1.7361
   46CHL1    C2 5857   4.267   1.827   9.888 -0.3349 -0.2774  0.5747
   46CHL1   H2A 5858   4.228   1.738   9.942 -1.6754  1.2306  2.1714
   46CHL1   H2B 5859   4.190   1.907   9.890  0.8033  1.0671 -3.7332
   46CHL1   C20 5860   4.408   1.792   8.944  0.1115  0.0795  0.6482
   46CHL1   H20 5861   4.397   1.901   8.927 -2.9437 -0.1709  0.7173
   46CHL1   C21 5862   4.268   1.718   8.959 -0.1960  0.5960 -0.0670
   46CHL1  H21A 5863   4.195   1.794   8.995 -0.8679  0.0481 -0.2513
   46CHL1  H21B 5864   4.275   1.634   9.031  1.6332 -0.1738 -1.1238
   46CHL1  H21C 5865   4.246   1.677   8.858  0.1262 -0.5166  0.3138
   46CHL1   C22 5866   4.498   1.732   8.830 -0.2490 -0.7346  0.4229
   46CHL1  H22A 5867   4.604   1.762   8.836 -0.8333  1.7168 -0.6491
   46CHL1  H22B 5868   4.498   1.621   8.834 -2.0711 -0.7963 -0.5508
   46CHL1   C23 5869   4.458   1.779   8.688 -0.6795 -0.2506 -0.3077
   46CHL1  H23A 5870   4.353   1.748   8.668 -1.2662  0.8777  0.8783
   46CHL1  H23B 5871   4.461   1.890   8.686  0.2381 -0.2857 -1.3173
   46CHL1   C24 5872   4.546   1.713   8.583 -0.4049  0.0675 -0.0252
   46CHL1  H24A 5873   4.648   1.719   8.625 -1.0283  0.0050  1.5216
   46CHL1  H24B 5874   4.515   1.606   8.580  1.3973 -0.4195 -2.8077
   46CHL1   C25 5875   4.512   1.765   8.443 -0.5216 -0.5147  0.2549
   46CHL1   H25 5876   4.401   1.772   8.436 -0.5799 -0.0530  1.5040
   46CHL1   C26 5877   4.572   1.901   8.421 -0.5397 -0.0636  0.3806
   46CHL1  H26A 5878   4.537   1.974   8.498 -0.1204  1.4131 -0.8078
   46CHL1  H26B 5879   4.683   1.903   8.431 -0.6687  2.1934  1.6167
   46CHL1  H26C 5880   4.537   1.934   8.321 -0.4878 -0.4605  0.2317
   46CHL1   C27 5881   4.578   1.663   8.347 -0.2464 -0.6071  0.2234
   46CHL1  H27A 5882   4.559   1.692   8.241  1.3338 -0.4351 -0.0275
   46CHL1  H27B 5883   4.686   1.668   8.371  0.1951 -1.8118 -1.4478
   46CHL1  H27C 5884   4.533   1.562   8.354 -0.9793 -0.4676 -2.0708
   47CHL1    C3 5885   5.439   5.180  10.115 -0.3777  1.1085 -0.3883
   47CHL1    H3 5886   5.422   5.085  10.060 -0.8265  1.0073 -0.0760
   47CHL1    O3 5887   5.448   5.158  10.254 -0.0071 -0.2111  0.4452
   47CHL1   H3' 5888   5.528   5.106  10.266  0.3032 -0.0312 -0.7566
   47CHL1    C4 5889   5.577   5.227  10.062  0.3652  0.2214  0.8072
   47CHL1   H4A 5890   5.617   5.306  10.128 -1.3503  1.4582  0.4082
   47CHL1   H4B 5891   5.644   5.139  10.069  0.2441  0.2589  2.3972
   47CHL1    C5 5892   5.575   5.266   9.915  0.1026  0.0354 -0.0537
   47CHL1    C6 5893   5.667   5.220   9.826  0.5236  0.6741  0.2749
   47CHL1    H6 5894   5.752   5.152   9.846  0.6628  0.2553 -1.6936
   47CHL1    C7 5895   5.667   5.269   9.682 -0.4007  0.2745  1.2454
   47CHL1   H7A 5896   5.771   5.290   9.647  0.3679 -0.4987  3.0155
   47CHL1   H7B 5897   5.614   5.184   9.635 -1.2298  0.3182  2.1056
   47CHL1    C8 5898   5.591   5.402   9.657  0.6973 -0.1829  0.0072
   47CHL1    H8 5899   5.646   5.487   9.703 -1.7233  0.9547  0.8241
   47CHL1   C14 5900   5.572   5.434   9.507  0.2261  0.1578 -0.6995
   47CHL1   H14 5901   5.511   5.348   9.475 -0.7159  0.2027  0.8987
   47CHL1   C15 5902   5.695   5.431   9.414 -0.9400 -0.6134 -0.0688
   47CHL1  H15A 5903   5.777   5.489   9.462 -2.2815 -0.1029  1.6411
   47CHL1  H15B 5904   5.732   5.335   9.373 -0.0854 -0.0557 -0.6431
   47CHL1   C16 5905   5.644   5.507   9.293  0.4687 -0.1017 -0.3332
   47CHL1  H16A 5906   5.702   5.601   9.283 -0.1336  0.4505  1.0829
   47CHL1  H16B 5907   5.644   5.438   9.206 -1.7629 -1.7115  0.8801
   47CHL1   C17 5908   5.494   5.548   9.325 -0.7516 -0.5027 -0.5609
   47CHL1   H17 5909   5.422   5.464   9.311  2.3439 -3.1128 -1.3749
   47CHL1   C13 5910   5.496   5.562   9.476  0.2737 -0.3805  0.9118
   47CHL1   C18 5911   5.571   5.682   9.532 -0.2973  0.1390 -0.2445
   47CHL1  H18A 5912   5.561   5.689   9.643  1.0770 -0.5912 -0.0665
   47CHL1  H18B 5913   5.677   5.662   9.507 -0.4798  1.3002 -1.9931
   47CHL1  H18C 5914   5.538   5.775   9.481 -0.1912  0.3063 -0.0101
   47CHL1   C12 5915   5.353   5.556   9.545  0.4879 -0.9315  0.3047
   47CHL1  H12A 5916   5.313   5.660   9.548  1.9243 -0.2460 -2.4284
   47CHL1  H12B 5917   5.287   5.492   9.484  0.5446  0.3804 -1.1589
   47CHL1   C11 5918   5.355   5.510   9.694 -0.4035 -0.0181 -0.8424
   47CHL1  H11A 5919   5.395   5.598   9.748  0.2123 -0.5695 -0.3939
   47CHL1  H11B 5920   5.253   5.482   9.728  1.1988 -0.9169  3.4928
   47CHL1    C9 5921   5.453   5.391   9.722  0.6578 -0.4418  0.0206
   47CHL1    H9 5922   5.408   5.301   9.676 -0.2506  0.4301 -0.8310
   47CHL1   C10 5923   5.465   5.364   9.879  0.5696  0.2789 -0.0800
   47CHL1   C19 5924   5.509   5.504   9.939 -0.0415 -0.1107 -0.2797
   47CHL1  H19A 5925   5.423   5.575   9.936 -0.8491 -1.0119  0.7245
   47CHL1  H19B 5926   5.544   5.490  10.043 -1.2745  3.0665  0.6181
   47CHL1  H19C 5927   5.596   5.545   9.883 -1.0488 -0.3445 -2.0665
   47CHL1    C1 5928   5.335   5.313   9.934  0.0357 -0.0905  0.2063
   47CHL1   H1A 5929   5.255   5.388   9.918  0.0363  0.0670  0.9145
   47CHL1   H1B 5930   5.309   5.223   9.874 -0.1854 -1.2908  2.0392
   47CHL1    C2 5931   5.332   5.279  10.087 -0.3686 -0.0615  0.9793
   47CHL1   H2A 5932   5.233   5.238  10.116  0.0223 -0.5928  1.5455
   47CHL1   H2B 5933   5.357   5.370  10.146 -2.4576  0.0000  1.8312
   47CHL1   C20 5934   5.460   5.661   9.235  0.2480 -0.9279 -0.4212
   47CHL1   H20 5935   5.522   5.750   9.257 -0.0327 -0.3338 -1.9220
   47CHL1   C21 5936   5.311   5.704   9.258  0.3212  0.4450  0.5558
   47CHL1  H21A 5937   5.252   5.617   9.294 -2.2417  1.3315 -1.3383
   47CHL1  H21B 5938   5.268   5.760   9.172 -0.4837  0.3022  0.8598
   47CHL1  H21C 5939   5.315   5.772   9.346 -0.8473  0.9976  0.1946
   47CHL1   C22 5940   5.482   5.636   9.088 -0.0258 -0.3329  0.3147
   47CHL1  H22A 5941   5.578   5.590   9.056  0.5918  0.5180  0.9252
   47CHL1  H22B 5942   5.408   5.571   9.037  1.0425  0.5634 -2.4847
   47CHL1   C23 5943   5.496   5.759   8.993 -0.6233  0.6227 -0.2703
   47CHL1  H23A 5944   5.406   5.823   9.003 -0.7335  0.1219  2.4032
   47CHL1  H23B 5945   5.581   5.828   9.013 -0.2950 -0.3192  1.7306
   47CHL1   C24 5946   5.521   5.702   8.848 -0.2849 -0.4733 -0.9157
   47CHL1  H24A 5947   5.616   5.644   8.847  0.2480  0.3526  0.2577
   47CHL1  H24B 5948   5.432   5.647   8.809 -0.8139 -0.0632 -0.2919
   47CHL1   C25 5949   5.564   5.812   8.745 -0.1700  0.4571  0.2161
   47CHL1   H25 5950   5.477   5.881   8.735  0.3393  0.8584 -1.5541
   47CHL1   C26 5951   5.682   5.891   8.791 -0.7379  0.8958 -0.6041
   47CHL1  H26A 5952   5.766   5.829   8.830 -1.8651  0.4870  1.2179
   47CHL1  H26B 5953   5.657   5.965   8.870  1.9542  1.4365 -0.1964
   47CHL1  H26C 5954   5.720   5.943   8.701 -0.1592  1.2549 -0.1650
   47CHL1   C27 5955   5.587   5.762   8.603 -0.5888 -0.3314 -0.4099
   47CHL1  H27A 5956   5.502   5.692   8.593 -2.3582  2.0924 -3.0561
   47CHL1  H27B 5957   5.585   5.844   8.528  0.2893 -1.3235 -1.5214
   47CHL1  H27C 5958   5.683   5.707   8.590 -0.8404 -1.0930  0.8963
   48CHL1    C3 5959   5.959   6.736  10.331  0.7766 -0.5173  0.5343
   48CHL1    H3 5960   5.991   6.842  10.325  1.4955 -0.5168  3.6281
   48CHL1    O3 5961   5.892   6.708  10.456 -0.3499  0.4884 -0.5665
   48CHL1   H3' 5962   5.941   6.749  10.528  1.6513 -0.0399 -1.5909
   48CHL1    C4 5963   5.863   6.702  10.223  0.6713 -0.3259  0.1271
   48CHL1   H4A 5964   5.821   6.599  10.232  0.5059 -0.1652  1.2847
   48CHL1   H4B 5965   5.772   6.763  10.243 -0.6188 -1.9639 -0.6247
   48CHL1    C5 5966   5.919   6.728  10.090  0.0329  0.1472  0.8382
   48CHL1    C6 5967   5.850   6.813  10.010  0.2055  0.5513  0.8393
   48CHL1    H6 5968   5.762   6.866  10.050  1.3624  1.0008  2.8528
   48CHL1    C7 5969   5.901   6.861   9.876 -0.0557  0.0863 -0.3667
   48CHL1   H7A 5970   5.816   6.845   9.806  0.1798  0.2809 -0.7025
   48CHL1   H7B 5971   5.913   6.970   9.860  0.0130  0.0908 -0.2787
   48CHL1    C8 5972   6.026   6.787   9.824  0.0617  0.0444  0.2486
   48CHL1    H8 5973   5.990   6.697   9.770  2.0611  1.1478 -3.0264
   48CHL1   C14 5974   6.106   6.881   9.729  0.5750  0.5111  0.5852
   48CHL1   H14 5975   6.152   6.970   9.778  0.7796  0.9582 -0.4179
   48CHL1   C15 5976   6.028   6.937   9.612  0.0945  0.5507 -0.1269
   48CHL1  H15A 5977   5.962   6.863   9.560  2.0903 -0.3357 -1.4944
   48CHL1  H15B 5978   5.967   7.026   9.637  0.1743  0.8407 -0.9549
   48CHL1   C16 5979   6.129   6.960   9.496 -0.3853 -0.9466 -0.0268
   48CHL1  H16A 5980   6.112   6.897   9.406 -2.0729  1.4164 -1.4161
   48CHL1  H16B 5981   6.143   7.064   9.460  1.3457 -1.8147 -1.9601
   48CHL1   C17 5982   6.264   6.908   9.552 -0.2671 -0.8943 -0.4792
   48CHL1   H17 5983   6.316   6.990   9.606 -0.0716 -2.6042  2.0014
   48CHL1   C13 5984   6.225   6.809   9.667  0.0420 -0.8092  0.4558
   48CHL1   C18 5985   6.180   6.680   9.602 -0.6903  0.3008 -0.2730
   48CHL1  H18A 5986   6.141   6.611   9.679  0.1903  0.5715  0.4120
   48CHL1  H18B 5987   6.102   6.694   9.523  0.2621  0.3967 -1.1983
   48CHL1  H18C 5988   6.265   6.635   9.547 -1.4168  1.8911 -2.8247
   48CHL1   C12 5989   6.323   6.774   9.776  0.1425 -0.8346  0.3825
   48CHL1  H12A 5990   6.410   6.709   9.751 -1.1919 -1.6288 -2.2475
   48CHL1  H12B 5991   6.359   6.871   9.817  1.8227 -1.6336  0.8462
   48CHL1   C11 5992   6.261   6.703   9.893  0.1163  0.0233  0.1009
   48CHL1  H11A 5993   6.240   6.601   9.854 -1.3666  1.0490 -1.8385
   48CHL1  H11B 5994   6.333   6.692   9.978 -0.8311 -0.2572  0.8753
   48CHL1    C9 5995   6.123   6.758   9.937 -0.2651  0.1833 -0.0258
   48CHL1    H9 5996   6.147   6.857   9.981 -1.6821  1.9023 -3.0348
   48CHL1   C10 5997   6.068   6.672  10.057  0.3731 -0.1011  0.2094
   48CHL1   C19 5998   6.059   6.521  10.025  0.0739 -0.8954 -0.1742
   48CHL1  H19A 5999   6.005   6.506   9.930  1.0083  0.9846 -1.0290
   48CHL1  H19B 6000   6.163   6.485  10.015 -0.5208 -2.6604 -0.0321
   48CHL1  H19C 6001   6.004   6.467  10.105  1.3630  2.3402  3.0886
   48CHL1    C1 6002   6.156   6.695  10.184  0.0098 -0.4442 -0.1080
   48CHL1   H1A 6003   6.248   6.632  10.178  0.1697 -0.0698 -2.3097
   48CHL1   H1B 6004   6.184   6.802  10.194  0.4429 -0.7561  2.1620
   48CHL1    C2 6005   6.088   6.652  10.317 -0.0809 -0.1319 -0.1687
   48CHL1   H2A 6006   6.162   6.658  10.400  1.4696 -1.2684 -1.4470
   48CHL1   H2B 6007   6.050   6.548  10.308  0.6011 -0.2765 -1.4110
   48CHL1   C20 6008   6.353   6.855   9.437 -0.0569  0.3950 -0.2670
   48CHL1   H20 6009   6.295   6.776   9.385  2.0613 -1.2629 -0.1674
   48CHL1   C21 6010   6.490   6.803   9.500  0.2772 -0.5737 -0.4871
   48CHL1  H21A 6011   6.543   6.881   9.558 -1.5119  0.8865 -0.7755
   48CHL1  H21B 6012   6.559   6.788   9.415  1.5051 -0.0779  0.3976
   48CHL1  H21C 6013   6.468   6.704   9.547  0.5524 -1.4654 -2.1935
   48CHL1   C22 6014   6.385   6.963   9.327 -0.3490 -0.2869 -0.1574
   48CHL1  H22A 6015   6.293   7.014   9.290  0.8964  1.7145 -0.5416
   48CHL1  H22B 6016   6.456   7.044   9.354 -0.9730 -0.4296  2.0742
   48CHL1   C23 6017   6.453   6.902   9.206  0.2724  0.4567 -0.4617
   48CHL1  H23A 6018   6.561   6.914   9.229 -0.1121 -0.9160  2.3456
   48CHL1  H23B 6019   6.439   6.792   9.203  3.6209 -0.2057  3.2717
   48CHL1   C24 6020   6.429   6.968   9.063 -0.2629  0.3078 -0.4333
   48CHL1  H24A 6021   6.344   6.915   9.014 -1.0840  0.3973  0.8773
   48CHL1  H24B 6022   6.414   7.077   9.076 -0.3038  0.0723  1.5836
   48CHL1   C25 6023   6.551   6.949   8.966  0.3105  0.2153  0.6289
   48CHL1   H25 6024   6.594   6.847   8.978  0.5720  0.6099  3.3552
   48CHL1   C26 6025   6.505   6.968   8.814 -0.3552  0.6846  0.2582
   48CHL1  H26A 6026   6.589   6.946   8.745 -0.0886  0.1507  0.7463
   48CHL1  H26B 6027   6.429   6.896   8.778  0.3490  1.3065 -2.6435
   48CHL1  H26C 6028   6.469   7.072   8.800 -1.2555  0.3183 -0.1347
   48CHL1   C27 6029   6.656   7.051   9.004 -0.1211 -0.1745  0.0507
   48CHL1  H27A 6030   6.706   7.104   8.920 -0.3443 -0.0795 -0.0240
   48CHL1  H27B 6031   6.613   7.124   9.076 -0.2455 -0.3686  0.1717
   48CHL1  H27C 6032   6.736   7.001   9.062 -0.7200 -0.4843  0.6124
   49CHL1    C3 6033   3.777   1.696  10.121 -0.5797  0.9756  0.1938
   49CHL1    H3 6034   3.710   1.607  10.121 -0.8707  1.1914  0.2112
   49CHL1    O3 6035   3.797   1.730  10.260 -0.3891  0.2861  0.2272
   49CHL1   H3' 6036   3.855   1.806  10.257 -1.8603  1.6332  3.4487
   49CHL1    C4 6037   3.910   1.660  10.055 -0.4934 -0.6110  1.0892
   49CHL1   H4A 6038   3.965   1.757  10.054  0.0141 -0.8127 -3.2263
   49CHL1   H4B 6039   3.973   1.593  10.117 -0.6197 -1.3348  0.4498
   49CHL1    C5 6040   3.896   1.628   9.900  0.2690  0.4556 -0.3322
   49CHL1    C6 6041   3.940   1.512   9.845 -0.3937 -0.2063 -0.2610
   49CHL1    H6 6042   3.997   1.436   9.900  0.8816  0.2285 -0.9553
   49CHL1    C7 6043   3.935   1.492   9.702  0.1278 -0.4327 -0.0547
   49CHL1   H7A 6044   4.035   1.450   9.679  0.2833 -0.2991  0.3699
   49CHL1   H7B 6045   3.860   1.416   9.675  0.5862 -1.8390  2.4857
   49CHL1    C8 6046   3.907   1.622   9.614 -0.7588 -0.0758 -0.4591
   49CHL1    H8 6047   3.996   1.688   9.618 -2.5595  2.4940 -1.5226
   49CHL1   C14 6048   3.883   1.583   9.470  0.9330 -0.5970  0.2185
   49CHL1   H14 6049   3.797   1.513   9.477  0.1669  0.2322 -0.7118
   49CHL1   C15 6050   3.991   1.507   9.382 -0.0993 -0.5805 -0.6404
   49CHL1  H15A 6051   4.087   1.561   9.400 -0.6577  0.2241 -0.0551
   49CHL1  H15B 6052   4.004   1.398   9.401  3.4283  0.0715  1.2709
   49CHL1   C16 6053   3.942   1.530   9.243  0.3798 -0.0619  0.5352
   49CHL1  H16A 6054   4.009   1.579   9.169 -1.1408  1.4732  0.1296
   49CHL1  H16B 6055   3.894   1.441   9.198 -0.7665 -1.1268  3.7249
   49CHL1   C17 6056   3.825   1.634   9.242  0.6825 -0.5576  0.7779
   49CHL1   H17 6057   3.728   1.579   9.244 -0.2608  1.0037 -1.0730
   49CHL1   C13 6058   3.832   1.700   9.378 -0.3436 -0.0961 -0.7573
   49CHL1   C18 6059   3.935   1.816   9.378 -0.2809 -0.6924 -0.1439
   49CHL1  H18A 6060   3.949   1.853   9.482  0.6895  2.5010 -1.3629
   49CHL1  H18B 6061   4.029   1.784   9.329 -0.1861 -1.6966  0.6726
   49CHL1  H18C 6062   3.901   1.898   9.311  2.1585  0.9181  0.4987
   49CHL1   C12 6063   3.704   1.756   9.437  0.9757 -0.1935 -0.2526
   49CHL1  H12A 6064   3.669   1.843   9.377  0.9740  1.5543  2.2428
   49CHL1  H12B 6065   3.625   1.678   9.428  0.3760  0.5656 -1.7786
   49CHL1   C11 6066   3.717   1.801   9.578 -0.4632  0.3616  0.1629
   49CHL1  H11A 6067   3.786   1.888   9.573  1.2417 -0.7005  3.5580
   49CHL1  H11B 6068   3.622   1.843   9.618  0.0286  2.2498 -0.5751
   49CHL1    C9 6069   3.779   1.690   9.675 -0.1723 -0.7554 -0.3342
   49CHL1    H9 6070   3.697   1.617   9.690 -1.4987  0.5989 -0.9195
   49CHL1   C10 6071   3.817   1.735   9.817 -0.0946  0.0120 -0.4101
   49CHL1   C19 6072   3.898   1.860   9.811  0.3762  0.4561 -0.2118
   49CHL1  H19A 6073   3.993   1.856   9.753 -0.2403  2.1704 -1.4032
   49CHL1  H19B 6074   3.826   1.932   9.766 -1.6033 -1.3382  0.0264
   49CHL1  H19C 6075   3.922   1.896   9.913  2.2602  2.9458 -1.4775
   49CHL1    C1 6076   3.678   1.771   9.888 -0.6018 -0.4159 -1.1301
   49CHL1   H1A 6077   3.645   1.865   9.838 -0.2986 -0.7196 -1.9025
   49CHL1   H1B 6078   3.606   1.687   9.878 -0.5162 -1.2611  4.2031
   49CHL1    C2 6079   3.707   1.807  10.036  0.0595  0.9346 -0.0019
   49CHL1   H2A 6080   3.605   1.816  10.079  0.1228 -0.7816  0.5652
   49CHL1   H2B 6081   3.753   1.907  10.049 -0.3883  1.1923 -0.4220
   49CHL1   C20 6082   3.819   1.715   9.111  0.8733 -0.2375  0.3198
   49CHL1   H20 6083   3.916   1.768   9.096  1.2066 -1.1259 -0.7504
   49CHL1   C21 6084   3.701   1.814   9.119  0.1321  0.1391 -0.4858
   49CHL1  H21A 6085   3.680   1.853   9.018  1.9155 -1.8413 -1.6588
   49CHL1  H21B 6086   3.717   1.905   9.180 -1.4389 -0.6988  1.2473
   49CHL1  H21C 6087   3.615   1.752   9.153 -1.5413  1.3649 -2.3798
   49CHL1   C22 6088   3.815   1.641   8.978 -0.2814 -0.1034  0.0058
   49CHL1  H22A 6089   3.819   1.713   8.894 -3.2651 -0.2633 -0.3470
   49CHL1  H22B 6090   3.900   1.570   8.969 -0.4538 -0.0464 -2.2552
   49CHL1   C23 6091   3.691   1.553   8.960  0.6014  0.2437  0.7196
   49CHL1  H23A 6092   3.663   1.510   9.059 -0.7922  0.4489  0.4340
   49CHL1  H23B 6093   3.602   1.615   8.935 -0.3405 -1.3443  0.0638
   49CHL1   C24 6094   3.715   1.446   8.860 -0.3085 -0.3739  0.6245
   49CHL1  H24A 6095   3.739   1.499   8.766  3.1982 -1.0115  1.0859
   49CHL1  H24B 6096   3.805   1.388   8.890 -0.2107 -1.3667 -1.5223
   49CHL1   C25 6097   3.602   1.341   8.841  0.7504 -0.0603  0.3088
   49CHL1   H25 6098   3.559   1.310   8.939  0.3553 -0.6931 -0.0631
   49CHL1   C26 6099   3.485   1.389   8.748 -0.6520 -0.1868 -0.2933
   49CHL1  H26A 6100   3.432   1.466   8.809 -0.3018 -0.7998  0.7971
   49CHL1  H26B 6101   3.515   1.428   8.649 -0.5323  0.8284  0.1347
   49CHL1  H26C 6102   3.427   1.295   8.733  2.4225 -3.3268  5.5939
   49CHL1   C27 6103   3.677   1.217   8.793  0.0473 -0.2747 -0.2815
   49CHL1  H27A 6104   3.751   1.184   8.869 -0.5934 -4.0543 -1.2171
   49CHL1  H27B 6105   3.598   1.141   8.780  1.9744 -2.3659  0.0448
   49CHL1  H27C 6106   3.735   1.229   8.700 -0.0827  0.8419 -0.2319
   50CHL1    C3 6107   0.497   3.409  10.037 -0.3188  0.2491  0.1262
   50CHL1    H3 6108   0.528   3.488   9.965  3.1736 -1.2270 -0.1314
   50CHL1    O3 6109   0.441   3.464  10.151 -0.2239  0.6185  0.7891
   50CHL1   H3' 6110   0.413   3.386  10.199  2.6891 -0.7137  0.4502
   50CHL1    C4 6111   0.395   3.315   9.961 -0.2533  0.4961 -0.5684
   50CHL1   H4A 6112   0.369   3.227  10.023  2.3391  0.8565  1.1635
   50CHL1   H4B 6113   0.300   3.371   9.948 -0.4035  0.5434  0.6080
   50CHL1    C5 6114   0.457   3.274   9.830  0.8604 -0.3189 -0.5257
   50CHL1    C6 6115   0.401   3.308   9.713 -0.2020  0.1611  0.6566
   50CHL1    H6 6116   0.305   3.361   9.712 -0.9043 -1.0619 -2.1466
   50CHL1    C7 6117   0.452   3.268   9.576 -0.6956 -0.3080  0.1115
   50CHL1   H7A 6118   0.371   3.225   9.514 -1.5660 -0.7824  1.5498
   50CHL1   H7B 6119   0.501   3.359   9.534 -0.9220 -0.5404 -0.6507
   50CHL1    C8 6120   0.571   3.166   9.585 -0.9105  0.3790 -0.0720
   50CHL1    H8 6121   0.521   3.068   9.601  0.7329 -0.5068 -0.3135
   50CHL1   C14 6122   0.648   3.171   9.457  0.0572 -0.4343  0.5245
   50CHL1   H14 6123   0.687   3.274   9.441 -1.6913  0.1835  0.1641
   50CHL1   C15 6124   0.575   3.154   9.321  0.6247  0.5208 -0.6360
   50CHL1  H15A 6125   0.491   3.082   9.316  1.0528 -0.0048 -0.2143
   50CHL1  H15B 6126   0.534   3.252   9.287  0.1328  0.2421 -0.8563
   50CHL1   C16 6127   0.682   3.100   9.223 -0.4023  0.7346 -0.2814
   50CHL1  H16A 6128   0.659   2.996   9.191  0.3724 -0.0612  1.7051
   50CHL1  H16B 6129   0.681   3.166   9.133  0.3882  1.1513  0.0090
   50CHL1   C17 6130   0.816   3.104   9.304 -0.6810 -0.4086 -0.0848
   50CHL1   H17 6131   0.861   3.206   9.301  0.8496 -1.0104  1.7537
   50CHL1   C13 6132   0.767   3.077   9.450 -0.2481 -0.6837  0.2222
   50CHL1   C18 6133   0.725   2.925   9.468  0.6296 -0.5163  0.2045
   50CHL1  H18A 6134   0.811   2.854   9.465 -0.8200 -2.3268  0.5458
   50CHL1  H18B 6135   0.678   2.906   9.567 -3.7954  1.5336 -1.3699
   50CHL1  H18C 6136   0.650   2.889   9.395 -1.8765 -0.6936  2.8054
   50CHL1   C12 6137   0.867   3.117   9.561  0.5119  0.0125  0.4867
   50CHL1  H12A 6138   0.959   3.055   9.557 -0.5485 -1.4237 -2.5021
   50CHL1  H12B 6139   0.895   3.222   9.539  0.4196  0.4212  2.2268
   50CHL1   C11 6140   0.797   3.111   9.703 -0.7763 -0.6889 -0.4177
   50CHL1  H11A 6141   0.771   3.006   9.729  1.8320 -1.1393  0.4576
   50CHL1  H11B 6142   0.857   3.159   9.782 -1.0527  0.1578 -0.7193
   50CHL1    C9 6143   0.666   3.191   9.702  0.9461 -0.2383 -0.9566
   50CHL1    H9 6144   0.698   3.296   9.684 -2.8663  0.7334 -2.4997
   50CHL1   C10 6145   0.588   3.196   9.841 -0.4339 -0.1365  0.2247
   50CHL1   C19 6146   0.547   3.059   9.884 -0.1983  0.3173 -0.2966
   50CHL1  H19A 6147   0.633   2.994   9.911  0.0777  0.4018 -0.9547
   50CHL1  H19B 6148   0.489   3.059   9.979  1.8269  2.3314  0.9782
   50CHL1  H19C 6149   0.488   3.003   9.808 -0.3776  0.1619 -0.0437
   50CHL1    C1 6150   0.680   3.258   9.952 -0.0257  0.6035 -0.4654
   50CHL1   H1A 6151   0.746   3.179   9.994 -2.3266 -2.0956 -1.8332
   50CHL1   H1B 6152   0.747   3.330   9.899 -0.6157  0.4121 -1.4839
   50CHL1    C2 6153   0.622   3.330  10.070 -0.2801  0.0539 -0.1257
   50CHL1   H2A 6154   0.698   3.395  10.120  2.3164 -2.0358 -1.1879
   50CHL1   H2B 6155   0.580   3.254  10.138 -0.0025  0.6955  0.7754
   50CHL1   C20 6156   0.921   3.008   9.244  0.4468  0.3203  0.3600
   50CHL1   H20 6157   0.905   2.899   9.258  0.1703  0.3070 -0.0532
   50CHL1   C21 6158   1.060   3.036   9.307  0.8729 -0.4354 -0.8338
   50CHL1  H21A 6159   1.077   3.135   9.355 -0.2161 -0.4407 -0.4194
   50CHL1  H21B 6160   1.135   3.013   9.228  0.1572  1.7072 -2.1704
   50CHL1  H21C 6161   1.073   2.969   9.395  2.7198  3.0950  1.6958
   50CHL1   C22 6162   0.928   3.022   9.084  0.4518 -0.8982 -0.6517
   50CHL1  H22A 6163   1.027   2.977   9.061  1.3579  1.0927 -0.8287
   50CHL1  H22B 6164   0.842   2.961   9.050 -1.6091  0.2796  2.2291
   50CHL1   C23 6165   0.945   3.169   9.025 -0.2058  0.4230 -0.6408
   50CHL1  H23A 6166   0.847   3.219   9.013 -0.6783 -0.2328  0.3683
   50CHL1  H23B 6167   1.007   3.232   9.093 -1.5012 -0.2366  1.1841
   50CHL1   C24 6168   1.010   3.162   8.886  0.9484  0.1909 -0.6875
   50CHL1  H24A 6169   1.110   3.114   8.896  0.0271 -1.3627  1.1653
   50CHL1  H24B 6170   0.944   3.093   8.830  0.0092  0.6045 -0.0885
   50CHL1   C25 6171   1.021   3.293   8.809  0.3296  0.1606 -0.2485
   50CHL1   H25 6172   1.073   3.369   8.872 -2.5572  1.5070  0.6197
   50CHL1   C26 6173   1.100   3.286   8.671 -0.4691 -1.1224 -0.8040
   50CHL1  H26A 6174   1.080   3.198   8.607  0.4588 -2.3581  0.5556
   50CHL1  H26B 6175   1.092   3.386   8.623 -3.2485 -1.3459 -0.8929
   50CHL1  H26C 6176   1.206   3.269   8.700 -0.4751  0.9370  0.4661
   50CHL1   C27 6177   0.881   3.341   8.773 -0.3611 -0.2372 -0.2982
   50CHL1  H27A 6178   0.826   3.258   8.723 -1.5342  1.7589 -2.3785
   50CHL1  H27B 6179   0.817   3.369   8.860  0.8895 -0.5726  0.7497
   50CHL1  H27C 6180   0.898   3.435   8.717  0.6508 -0.1959  0.0657
   51CHL1    C3 6181   1.808   6.455  10.219 -0.2995  0.1155 -0.0502
   51CHL1    H3 6182   1.764   6.355  10.197  2.4889 -0.8706 -1.4204
   51CHL1    O3 6183   1.780   6.479  10.356 -0.1683  0.1875 -0.1505
   51CHL1   H3' 6184   1.684   6.479  10.355 -0.1830  0.6882  0.9298
   51CHL1    C4 6185   1.956   6.461  10.190 -0.3331  0.5554  0.3199
   51CHL1   H4A 6186   1.982   6.561  10.232 -0.6097  1.8896 -2.5771
   51CHL1   H4B 6187   2.013   6.387  10.250 -0.6890  0.0701  0.0685
   51CHL1    C5 6188   1.997   6.468  10.045  0.1625  0.0908  0.2912
   51CHL1    C6 6189   2.093   6.390   9.993 -0.1198 -0.2833  0.1203
   51CHL1    H6 6190   2.146   6.324  10.064  0.7695 -0.7934 -1.0126
   51CHL1    C7 6191   2.150   6.384   9.852 -0.0975  0.1489  0.5303
   51CHL1   H7A 6192   2.257   6.414   9.848  0.1296 -0.7187 -0.1950
   51CHL1   H7B 6193   2.146   6.287   9.797 -2.1414  1.8506 -2.4650
   51CHL1    C8 6194   2.074   6.486   9.768  0.1726  0.5318  0.0326
   51CHL1    H8 6195   2.124   6.584   9.785 -2.4552  2.3005 -2.0139
   51CHL1   C14 6196   2.089   6.453   9.623  0.5202  0.1225  0.2468
   51CHL1   H14 6197   2.015   6.371   9.611 -0.3817  1.1783 -1.6796
   51CHL1   C15 6198   2.214   6.392   9.562  0.1870  0.5606  0.0540
   51CHL1  H15A 6199   2.300   6.461   9.568 -0.5399  1.6647 -2.0221
   51CHL1  H15B 6200   2.239   6.286   9.587 -3.1010 -0.1613  0.5283
   51CHL1   C16 6201   2.187   6.393   9.412 -1.0952 -0.4824  0.4720
   51CHL1  H16A 6202   2.280   6.425   9.361 -1.6177 -0.4167 -0.4411
   51CHL1  H16B 6203   2.147   6.296   9.374 -0.1038 -0.2665 -1.1775
   51CHL1   C17 6204   2.073   6.497   9.388  0.4782 -0.3360 -0.1824
   51CHL1   H17 6205   1.982   6.435   9.374  1.0713 -1.0695 -0.9022
   51CHL1   C13 6206   2.042   6.561   9.521  0.4815  0.8045 -0.1400
   51CHL1   C18 6207   2.127   6.684   9.536 -0.1020  0.1496  0.1734
   51CHL1  H18A 6208   2.129   6.715   9.643 -0.5334 -0.3185  0.3196
   51CHL1  H18B 6209   2.233   6.675   9.502 -0.0452  0.3301  0.2996
   51CHL1  H18C 6210   2.074   6.765   9.482 -0.0641  0.7453  1.0192
   51CHL1   C12 6211   1.888   6.585   9.556 -0.1976  0.3636 -0.2788
   51CHL1  H12A 6212   1.854   6.667   9.488 -0.9579 -0.3839 -0.8086
   51CHL1  H12B 6213   1.815   6.505   9.535 -1.1639  1.1108  0.2037
   51CHL1   C11 6214   1.868   6.621   9.705  0.0115 -0.0144 -0.1170
   51CHL1  H11A 6215   1.918   6.718   9.724 -1.3742  0.5466  0.6811
   51CHL1  H11B 6216   1.761   6.647   9.721 -0.7509 -3.1912  0.3235
   51CHL1    C9 6217   1.928   6.517   9.805 -0.4406  0.3389 -0.3216
   51CHL1    H9 6218   1.868   6.424   9.790 -0.0081  0.2845 -1.7620
   51CHL1   C10 6219   1.915   6.560   9.957 -1.1739 -0.1759  0.9945
   51CHL1   C19 6220   1.963   6.707   9.977 -0.0764 -0.7013 -0.1736
   51CHL1  H19A 6221   1.957   6.748  10.080 -2.3369  0.4833 -0.7431
   51CHL1  H19B 6222   2.066   6.711   9.935  0.5201 -0.4610  1.2701
   51CHL1  H19C 6223   1.908   6.782   9.916 -0.1072 -0.2280  0.4248
   51CHL1    C1 6224   1.766   6.554   9.993  0.0174  0.2895 -0.6714
   51CHL1   H1A 6225   1.712   6.633   9.938 -0.1938  1.5819  1.3480
   51CHL1   H1B 6226   1.724   6.456   9.960  1.6217 -0.9218  0.7900
   51CHL1    C2 6227   1.730   6.559  10.142 -0.5659 -0.0406 -0.0727
   51CHL1   H2A 6228   1.621   6.544  10.161 -0.2646  0.0912  1.8996
   51CHL1   H2B 6229   1.760   6.657  10.184 -1.0902 -0.0772  0.3927
   51CHL1   C20 6230   2.079   6.586   9.259 -1.3417  0.1561  0.1201
   51CHL1   H20 6231   2.160   6.662   9.267 -1.6120  0.7984 -2.7350
   51CHL1   C21 6232   1.955   6.677   9.244  0.1350 -0.2106 -0.0989
   51CHL1  H21A 6233   1.867   6.611   9.257  2.3288 -2.5034  4.2164
   51CHL1  H21B 6234   1.968   6.718   9.141  2.5411 -0.6124  0.0126
   51CHL1  H21C 6235   1.957   6.764   9.313  1.7107 -0.4996  0.2384
   51CHL1   C22 6236   2.104   6.500   9.134 -0.2290  0.0576 -0.1990
   51CHL1  H22A 6237   2.203   6.454   9.153 -0.2891 -0.1461 -0.3747
   51CHL1  H22B 6238   2.028   6.420   9.126  0.6783 -0.9361  1.0812
   51CHL1   C23 6239   2.108   6.570   8.992 -0.5521 -0.5318  0.7044
   51CHL1  H23A 6240   2.008   6.616   8.976 -0.6458 -0.9430  0.0559
   51CHL1  H23B 6241   2.189   6.646   8.999  0.6381 -1.6930 -0.1130
   51CHL1   C24 6242   2.142   6.468   8.888  0.6977 -0.0404  0.2965
   51CHL1  H24A 6243   2.245   6.429   8.905  2.0025  1.8399 -2.9708
   51CHL1  H24B 6244   2.062   6.391   8.892  0.6779 -0.1173 -1.2630
   51CHL1   C25 6245   2.142   6.517   8.740  0.3237  0.1233 -1.0510
   51CHL1   H25 6246   2.246   6.542   8.709 -0.1285  2.2529 -0.9430
   51CHL1   C26 6247   2.106   6.402   8.643 -0.0906 -0.0853  0.5143
   51CHL1  H26A 6248   2.004   6.365   8.668 -0.8241  0.6205 -1.3511
   51CHL1  H26B 6249   2.089   6.439   8.540  3.0060 -1.4210 -0.5326
   51CHL1  H26C 6250   2.180   6.319   8.650 -0.4859 -1.0649 -4.9832
   51CHL1   C27 6251   2.054   6.636   8.709 -0.4116  0.0488  0.1611
   51CHL1  H27A 6252   2.054   6.655   8.599 -2.3475  1.5300  0.3973
   51CHL1  H27B 6253   1.946   6.623   8.733 -1.1650 -0.7622 -3.3141
   51CHL1  H27C 6254   2.082   6.729   8.761 -2.8278  1.3617 -0.8008
   52CHL1    C3 6255   5.052   4.945  10.047 -0.5427  0.6202  0.3395
   52CHL1    H3 6256   5.089   5.049  10.052  0.8342  0.2160 -0.9394
   52CHL1    O3 6257   4.995   4.903  10.169 -0.5262  0.9887 -0.0142
   52CHL1   H3' 6258   4.961   4.817  10.144  2.0454  0.0285 -0.3894
   52CHL1    C4 6259   4.943   4.939   9.936 -0.8169  0.5410 -0.1440
   52CHL1   H4A 6260   4.904   4.837   9.917 -3.8619  1.9790 -1.9609
   52CHL1   H4B 6261   4.855   4.999   9.968 -0.1166  0.7854  1.3555
   52CHL1    C5 6262   5.009   4.989   9.807 -0.0831 -0.3038  0.4587
   52CHL1    C6 6263   4.963   5.097   9.748  0.5300  0.6165  0.0807
   52CHL1    H6 6264   4.873   5.143   9.790  0.0708 -0.7485  0.6113
   52CHL1    C7 6265   5.014   5.157   9.617 -0.3935 -0.6063 -0.1574
   52CHL1   H7A 6266   4.923   5.188   9.561 -0.4195 -1.4088 -0.5543
   52CHL1   H7B 6267   5.069   5.250   9.644 -2.0874 -0.2301  2.1354
   52CHL1    C8 6268   5.100   5.054   9.544 -0.7234  0.1435 -0.0578
   52CHL1    H8 6269   5.026   4.978   9.512  0.1451  0.2828 -2.5378
   52CHL1   C14 6270   5.179   5.121   9.439  0.6123 -0.0423  0.2672
   52CHL1   H14 6271   5.235   5.196   9.498 -0.9870  0.7652  0.8030
   52CHL1   C15 6272   5.095   5.196   9.340  0.0826 -0.4579  0.2269
   52CHL1  H15A 6273   5.011   5.130   9.313  2.0831 -3.1375  0.4066
   52CHL1  H15B 6274   5.060   5.294   9.382 -2.1282 -0.5218 -1.3857
   52CHL1   C16 6275   5.188   5.227   9.225 -0.3310  0.0790 -0.1173
   52CHL1  H16A 6276   5.125   5.195   9.139 -1.1755  1.8706 -0.1864
   52CHL1  H16B 6277   5.211   5.333   9.203 -0.1421  0.2733  1.0037
   52CHL1   C17 6278   5.316   5.150   9.262  0.9256 -0.1830  0.0749
   52CHL1   H17 6279   5.380   5.224   9.314 -2.2589  1.1881  2.1709
   52CHL1   C13 6280   5.275   5.043   9.365  0.1392  0.0494 -0.1241
   52CHL1   C18 6281   5.205   4.921   9.300 -0.3542  0.1966  0.3029
   52CHL1  H18A 6282   5.161   4.857   9.380  0.0108 -1.0713 -0.4913
   52CHL1  H18B 6283   5.125   4.948   9.227 -1.5024 -2.7688  0.3859
   52CHL1  H18C 6284   5.286   4.868   9.246 -1.0919  0.9737 -1.6187
   52CHL1   C12 6285   5.391   4.999   9.460 -0.5002 -0.8387 -0.2337
   52CHL1  H12A 6286   5.474   4.950   9.406  0.7146  2.3314 -1.3462
   52CHL1  H12B 6287   5.441   5.086   9.507  1.0093 -1.1401 -1.2445
   52CHL1   C11 6288   5.323   4.915   9.572  0.0635  1.2341 -0.0485
   52CHL1  H11A 6289   5.282   4.819   9.535 -1.1279  1.6943  0.0408
   52CHL1  H11B 6290   5.394   4.895   9.654 -0.8470  0.6399  0.6046
   52CHL1    C9 6291   5.209   4.990   9.644  0.5870 -0.2081 -0.4529
   52CHL1    H9 6292   5.254   5.083   9.685  0.4611 -0.1377 -0.4735
   52CHL1   C10 6293   5.138   4.909   9.757 -0.4996 -0.1270 -0.4109
   52CHL1   C19 6294   5.090   4.770   9.709 -0.5769  0.1415 -0.3855
   52CHL1  H19A 6295   5.184   4.722   9.674  0.5152  0.6266  1.7912
   52CHL1  H19B 6296   5.044   4.702   9.783 -0.6488 -1.7383 -2.1101
   52CHL1  H19C 6297   5.023   4.779   9.621 -2.0386 -0.8045  0.6237
   52CHL1    C1 6298   5.236   4.885   9.881  0.2217 -0.4136  0.0201
   52CHL1   H1A 6299   5.313   4.807   9.865  1.4837  0.1579  3.0341
   52CHL1   H1B 6300   5.287   4.978   9.914 -0.0640  0.3271 -1.5661
   52CHL1    C2 6301   5.161   4.847  10.009  0.2144  0.4952 -0.3997
   52CHL1   H2A 6302   5.243   4.852  10.083 -0.6082  2.4737  0.4312
   52CHL1   H2B 6303   5.123   4.743  10.015 -4.4606  2.1255 -0.0560
   52CHL1   C20 6304   5.387   5.099   9.141 -0.5965 -0.0313  0.6412
   52CHL1   H20 6305   5.359   4.994   9.118 -1.1835 -0.1630  1.9007
   52CHL1   C21 6306   5.535   5.104   9.171  0.3462  0.0520  0.1477
   52CHL1  H21A 6307   5.554   5.108   9.281 -1.3841  0.0526  0.4699
   52CHL1  H21B 6308   5.567   5.207   9.145  1.0759 -0.0194  0.7314
   52CHL1  H21C 6309   5.592   5.019   9.129  0.4970 -0.3510  1.1373
   52CHL1   C22 6310   5.355   5.182   9.011 -0.3618  0.4999 -0.2978
   52CHL1  H22A 6311   5.247   5.169   8.986 -0.1827  0.2082 -0.9460
   52CHL1  H22B 6312   5.372   5.290   9.031  1.2283  0.6075 -2.0691
   52CHL1   C23 6313   5.445   5.139   8.892  0.7534 -0.7022 -0.1367
   52CHL1  H23A 6314   5.553   5.149   8.914  0.2204  2.6701  1.2847
   52CHL1  H23B 6315   5.422   5.030   8.892  0.7374 -0.7131  1.2801
   52CHL1   C24 6316   5.415   5.192   8.754  0.8961 -0.1864  0.5027
   52CHL1  H24A 6317   5.482   5.143   8.679  2.4837  3.5544 -0.6781
   52CHL1  H24B 6318   5.306   5.188   8.737  1.0358  0.1539 -0.5541
   52CHL1   C25 6319   5.447   5.342   8.725 -0.3724  0.6322  0.3172
   52CHL1   H25 6320   5.386   5.410   8.788 -0.5070 -0.4219  1.3358
   52CHL1   C26 6321   5.596   5.373   8.756 -0.2261 -0.5819  0.0594
   52CHL1  H26A 6322   5.630   5.471   8.719 -1.7477  0.4341  1.2850
   52CHL1  H26B 6323   5.618   5.380   8.865 -0.7355  0.5881  0.0984
   52CHL1  H26C 6324   5.657   5.294   8.707  0.4664  0.0180 -0.0346
   52CHL1   C27 6325   5.418   5.367   8.575 -0.1194 -0.0137  0.0072
   52CHL1  H27A 6326   5.458   5.467   8.549 -0.7416  0.2045 -0.1072
   52CHL1  H27B 6327   5.456   5.286   8.510 -0.9448  0.2371 -0.7913
   52CHL1  H27C 6328   5.309   5.374   8.559 -0.4069 -0.9941  1.3894
   53CHL1    C3 6329   6.454   4.797  10.141 -0.3321  0.8542  0.4723
   53CHL1    H3 6330   6.357   4.746  10.126  1.1422 -1.1084 -3.0678
   53CHL1    O3 6331   6.469   4.832  10.273 -0.3633 -1.3503  0.6773
   53CHL1   H3' 6332   6.552   4.880  10.277 -1.5145  0.8434 -0.7135
   53CHL1    C4 6333   6.569   4.707  10.094  0.2043  0.0584  0.7850
   53CHL1   H4A 6334   6.663   4.762  10.116 -0.3358  0.5157  2.0394
   53CHL1   H4B 6335   6.574   4.614  10.154 -1.5251 -0.4785  0.1154
   53CHL1    C5 6336   6.568   4.671   9.950 -0.0673  0.2140  0.8911
   53CHL1    C6 6337   6.567   4.543   9.913  0.2558 -0.7993  0.3428
   53CHL1    H6 6338   6.567   4.461   9.986 -0.7728 -0.4017  0.7943
   53CHL1    C7 6339   6.578   4.496   9.768 -0.0727  0.0992  0.2279
   53CHL1   H7A 6340   6.666   4.432   9.745 -0.1327  0.6242 -1.5747
   53CHL1   H7B 6341   6.483   4.447   9.738  1.6698 -2.0764 -1.9614
   53CHL1    C8 6342   6.590   4.610   9.662 -0.5106  0.2097 -0.1347
   53CHL1    H8 6343   6.698   4.635   9.651 -0.1067  0.5375  3.8060
   53CHL1   C14 6344   6.536   4.560   9.527  0.1605 -0.2029 -0.8088
   53CHL1   H14 6345   6.431   4.536   9.553  0.9322 -3.9056 -0.8249
   53CHL1   C15 6346   6.591   4.430   9.474 -0.1719 -0.5862 -0.0682
   53CHL1  H15A 6347   6.699   4.446   9.453 -0.1128  1.6195  1.8131
   53CHL1  H15B 6348   6.587   4.344   9.544 -0.2937  1.3622  2.3880
   53CHL1   C16 6349   6.520   4.409   9.341  0.6140 -0.7306  0.5003
   53CHL1  H16A 6350   6.588   4.375   9.260  1.4781 -2.2088  1.8255
   53CHL1  H16B 6351   6.423   4.354   9.340 -0.0517  0.4258  1.1743
   53CHL1   C17 6352   6.469   4.559   9.317 -0.1328  0.2212  0.1502
   53CHL1   H17 6353   6.361   4.562   9.344 -0.0436  3.0486  0.3339
   53CHL1   C13 6354   6.539   4.651   9.417 -0.2505  0.5055 -0.9807
   53CHL1   C18 6355   6.677   4.684   9.373  0.7425  0.6660 -1.1345
   53CHL1  H18A 6356   6.727   4.598   9.323 -0.0225 -0.5724  0.2204
   53CHL1  H18B 6357   6.666   4.775   9.310 -1.0114  1.4588  0.3057
   53CHL1  H18C 6358   6.751   4.704   9.454 -1.5481  0.9167  0.9446
   53CHL1   C12 6359   6.460   4.772   9.459  0.1691 -0.3303  0.4611
   53CHL1  H12A 6360   6.464   4.854   9.384 -1.4832  0.7546  1.5367
   53CHL1  H12B 6361   6.354   4.741   9.467  0.2290 -0.3306  1.2824
   53CHL1   C11 6362   6.510   4.836   9.595  0.6281 -0.3767  0.5789
   53CHL1  H11A 6363   6.613   4.874   9.581  0.7468 -1.4024 -1.4615
   53CHL1  H11B 6364   6.447   4.925   9.616  0.0526 -0.6396 -0.0402
   53CHL1    C9 6365   6.510   4.732   9.709  0.5320  0.4500 -0.2486
   53CHL1    H9 6366   6.402   4.706   9.710  0.8534 -0.9610 -1.2400
   53CHL1   C10 6367   6.553   4.788   9.848 -0.5898 -0.1604 -0.2698
   53CHL1   C19 6368   6.687   4.859   9.839 -0.4313 -0.2178 -0.0490
   53CHL1  H19A 6369   6.769   4.791   9.810 -0.5862 -0.6753  0.5823
   53CHL1  H19B 6370   6.697   4.951   9.778 -2.7962 -0.0207 -0.2113
   53CHL1  H19C 6371   6.708   4.897   9.941  0.9746  2.7447 -1.3644
   53CHL1    C1 6372   6.439   4.884   9.902  0.3094 -0.1809 -0.1703
   53CHL1   H1A 6373   6.434   4.971   9.833  0.4777 -1.2250 -1.5176
   53CHL1   H1B 6374   6.335   4.848   9.889  0.0274  0.5658  0.0043
   53CHL1    C2 6375   6.447   4.923  10.049  0.0750  1.1699 -0.1657
   53CHL1   H2A 6376   6.361   4.990  10.071 -0.7660  0.3799 -1.0085
   53CHL1   H2B 6377   6.543   4.979  10.054  0.6133  0.3859 -1.4955
   53CHL1   C20 6378   6.470   4.591   9.166  0.2593 -0.3121 -0.0021
   53CHL1   H20 6379   6.575   4.600   9.132  1.1502  0.2659  2.7234
   53CHL1   C21 6380   6.403   4.730   9.147 -0.0221  0.2809 -0.3424
   53CHL1  H21A 6381   6.309   4.741   9.205  0.8251  0.2099  1.0885
   53CHL1  H21B 6382   6.396   4.762   9.041 -0.7880 -0.4353 -0.5172
   53CHL1  H21C 6383   6.478   4.802   9.187  1.9242 -1.4851 -0.7244
   53CHL1   C22 6384   6.398   4.487   9.084  0.3536 -0.1883 -0.2886
   53CHL1  H22A 6385   6.433   4.385   9.113 -0.1435  0.4544  2.7215
   53CHL1  H22B 6386   6.289   4.491   9.103  0.3705  0.4849 -0.3478
   53CHL1   C23 6387   6.426   4.504   8.930 -0.1811  0.4876  0.0851
   53CHL1  H23A 6388   6.399   4.608   8.903 -2.8733  0.4543  2.4041
   53CHL1  H23B 6389   6.536   4.494   8.922 -0.1230  1.2370 -0.0180
   53CHL1   C24 6390   6.344   4.408   8.839  0.3184  0.2875 -1.0241
   53CHL1  H24A 6391   6.383   4.304   8.852  1.1413  0.8764  1.5560
   53CHL1  H24B 6392   6.238   4.399   8.873  0.3200  0.0616 -1.0736
   53CHL1   C25 6393   6.353   4.444   8.689  0.0328  0.7350 -0.4519
   53CHL1   H25 6394   6.459   4.478   8.678  0.5096 -1.0217 -1.4415
   53CHL1   C26 6395   6.339   4.333   8.593  0.1091 -0.6029  0.5916
   53CHL1  H26A 6396   6.321   4.365   8.488  0.3062 -0.7645  0.5065
   53CHL1  H26B 6397   6.440   4.285   8.593  1.3224  1.8291  3.9494
   53CHL1  H26C 6398   6.252   4.271   8.624 -1.5827  0.6091 -1.5640
   53CHL1   C27 6399   6.266   4.565   8.647  0.6638  0.3155  0.0039
   53CHL1  H27A 6400   6.297   4.654   8.705  0.3523  0.1382  0.4493
   53CHL1  H27B 6401   6.288   4.594   8.542  2.0140  0.3413  0.2898
   53CHL1  H27C 6402   6.158   4.551   8.672  0.6659  2.5496  1.4454
   54CHL1    C3 6403   6.329   6.315  10.318  0.2960 -0.2850 -0.3587
   54CHL1    H3 6404   6.247   6.389  10.304 -0.1143 -0.2794  1.8891
   54CHL1    O3 6405   6.334   6.289  10.459 -0.2670 -0.7521  0.1321
   54CHL1   H3' 6406   6.380   6.365  10.495 -1.2433 -0.2491  0.3349
   54CHL1    C4 6407   6.282   6.187  10.240  1.0956  0.3523 -0.3875
   54CHL1   H4A 6408   6.349   6.104  10.273 -0.3030 -0.2604  0.9781
   54CHL1   H4B 6409   6.183   6.166  10.286  1.8078 -0.7895  0.6713
   54CHL1    C5 6410   6.295   6.202  10.091 -0.2368 -0.1793  0.0105
   54CHL1    C6 6411   6.190   6.159  10.016  0.3084  0.1531 -0.7893
   54CHL1    H6 6412   6.111   6.100  10.066  0.7110 -1.1212 -1.6389
   54CHL1    C7 6413   6.189   6.161   9.862  0.1523 -0.5198 -0.3202
   54CHL1   H7A 6414   6.149   6.067   9.819 -0.7275 -1.3079  2.0883
   54CHL1   H7B 6415   6.107   6.228   9.830 -0.2172 -0.8542 -0.0841
   54CHL1    C8 6416   6.322   6.202   9.805 -0.4313  0.1198 -0.7509
   54CHL1    H8 6417   6.393   6.116   9.799 -0.4071  0.0536  0.3428
   54CHL1   C14 6418   6.307   6.249   9.659 -0.5286 -0.1077 -0.0630
   54CHL1   H14 6419   6.235   6.333   9.663  0.4277  0.6768  1.2568
   54CHL1   C15 6420   6.233   6.153   9.559  0.5603 -0.0344  0.1907
   54CHL1  H15A 6421   6.274   6.052   9.580 -2.8104 -1.7230 -0.9695
   54CHL1  H15B 6422   6.122   6.153   9.571  0.4225 -0.9037 -0.9427
   54CHL1   C16 6423   6.281   6.204   9.419 -0.3517 -0.1952  0.2327
   54CHL1  H16A 6424   6.335   6.122   9.367  0.0630 -0.5294  1.1823
   54CHL1  H16B 6425   6.193   6.235   9.358 -0.4099  1.6660  1.2366
   54CHL1   C17 6426   6.387   6.320   9.442 -0.3701  0.0966  0.3023
   54CHL1   H17 6427   6.323   6.412   9.443 -2.0377 -1.0339 -0.0934
   54CHL1   C13 6428   6.434   6.298   9.595  0.1522 -0.3730 -0.3128
   54CHL1   C18 6429   6.543   6.188   9.586  0.0482 -0.4706 -0.0708
   54CHL1  H18A 6430   6.637   6.236   9.551  0.7406  0.3302  2.7594
   54CHL1  H18B 6431   6.576   6.158   9.688 -1.3933  0.9486  0.8563
   54CHL1  H18C 6432   6.525   6.092   9.533 -0.6177 -0.9256  0.9583
   54CHL1   C12 6433   6.485   6.418   9.672 -0.1285  0.6024  0.3729
   54CHL1  H12A 6434   6.567   6.462   9.612  0.0101  1.7361  1.3941
   54CHL1  H12B 6435   6.408   6.498   9.662 -1.3577 -0.1919  3.1549
   54CHL1   C11 6436   6.510   6.385   9.820 -0.1532  0.1297  0.1377
   54CHL1  H11A 6437   6.604   6.326   9.819 -0.0199  0.3466 -1.0777
   54CHL1  H11B 6438   6.536   6.474   9.881  1.7145 -0.5343  0.3348
   54CHL1    C9 6439   6.388   6.317   9.882 -0.7620 -0.0291 -0.1492
   54CHL1    H9 6440   6.302   6.388   9.883 -0.6806  0.0861 -1.4628
   54CHL1   C10 6441   6.416   6.272  10.033  0.1696  0.2615 -0.0571
   54CHL1   C19 6442   6.536   6.173  10.037 -0.4462 -0.4306 -0.0838
   54CHL1  H19A 6443   6.628   6.233  10.023 -2.5432  2.2892 -3.2217
   54CHL1  H19B 6444   6.533   6.119  10.134  1.5269  0.0495  0.2631
   54CHL1  H19C 6445   6.527   6.100   9.954  0.1637  0.4518 -0.9398
   54CHL1    C1 6446   6.454   6.392  10.122 -0.3920 -0.0399 -0.2187
   54CHL1   H1A 6447   6.559   6.422  10.101 -0.5157  0.9520  0.5321
   54CHL1   H1B 6448   6.398   6.481  10.086 -0.2771  0.0103 -0.2751
   54CHL1    C2 6449   6.461   6.371  10.272  0.4730 -0.0706 -0.3103
   54CHL1   H2A 6450   6.492   6.468  10.315  0.2884 -0.0846 -0.1438
   54CHL1   H2B 6451   6.548   6.303  10.284  1.4193  1.2750  0.6193
   54CHL1   C20 6452   6.485   6.332   9.329  0.1905 -0.1322 -0.2375
   54CHL1   H20 6453   6.562   6.253   9.347  2.2976  2.0651  0.7550
   54CHL1   C21 6454   6.564   6.465   9.353 -0.6378 -0.0657  0.0369
   54CHL1  H21A 6455   6.605   6.494   9.253 -1.0200  0.5167  0.0476
   54CHL1  H21B 6456   6.649   6.442   9.420  0.7366  0.5423 -1.4621
   54CHL1  H21C 6457   6.493   6.542   9.388 -0.2468  0.6991 -0.8152
   54CHL1   C22 6458   6.432   6.329   9.185 -0.0730  0.7304 -0.2715
   54CHL1  H22A 6459   6.363   6.243   9.165  1.8123 -0.6019 -1.1667
   54CHL1  H22B 6460   6.383   6.427   9.170  0.1848  1.0326  0.8258
   54CHL1   C23 6461   6.548   6.299   9.079 -0.8973 -0.2912  0.2119
   54CHL1  H23A 6462   6.647   6.339   9.111 -2.3045  1.3333  2.7271
   54CHL1  H23B 6463   6.566   6.189   9.077  2.7459  0.2430  0.5087
   54CHL1   C24 6464   6.521   6.344   8.931  0.4644  0.2043 -0.0164
   54CHL1  H24A 6465   6.596   6.295   8.866  0.7076  0.0763  0.3609
   54CHL1  H24B 6466   6.418   6.316   8.898  1.8621 -2.1617 -2.5859
   54CHL1   C25 6467   6.523   6.495   8.916  0.0084  0.0913 -0.6019
   54CHL1   H25 6468   6.440   6.537   8.977  1.6414  0.4725  1.4462
   54CHL1   C26 6469   6.659   6.556   8.957  0.6627  0.0931 -0.5452
   54CHL1  H26A 6470   6.676   6.563   9.066  2.7504  1.0019 -0.8948
   54CHL1  H26B 6471   6.744   6.499   8.913  1.1197  0.9805 -0.8326
   54CHL1  H26C 6472   6.680   6.658   8.918 -1.4628  0.3838 -1.0052
   54CHL1   C27 6473   6.505   6.525   8.769  0.1197  0.4901  0.7275
   54CHL1  H27A 6474   6.596   6.492   8.715 -0.1066  2.5279 -0.9838
   54CHL1  H27B 6475   6.422   6.471   8.719  2.2732 -2.6444  0.4221
   54CHL1  H27C 6476   6.479   6.632   8.755 -3.8051 -0.4769 -0.0875
   55CHL1    C3 6477   6.585   3.569  10.098 -1.1418  0.2093 -0.0891
   55CHL1    H3 6478   6.485   3.597  10.057 -2.5891 -1.4623  2.1786
   55CHL1    O3 6479   6.594   3.622  10.228  0.8490 -0.4686  0.0059
   55CHL1   H3' 6480   6.676   3.672  10.228  0.8554 -0.4782 -0.0716
   55CHL1    C4 6481   6.610   3.418  10.096  0.7607 -0.0700  0.2034
   55CHL1   H4A 6482   6.712   3.401  10.135  1.0211  1.1738  0.1120
   55CHL1   H4B 6483   6.528   3.369  10.152 -0.5519  0.6106 -1.0623
   55CHL1    C5 6484   6.613   3.363   9.952 -0.1125  0.2249  0.5733
   55CHL1    C6 6485   6.521   3.268   9.914 -0.4819  0.0978  0.2921
   55CHL1    H6 6486   6.447   3.226   9.984 -1.6918 -0.3868 -1.2540
   55CHL1    C7 6487   6.522   3.200   9.776 -0.2492  0.2349  0.5717
   55CHL1   H7A 6488   6.515   3.089   9.782 -0.3873  0.1827 -0.4835
   55CHL1   H7B 6489   6.432   3.226   9.715  0.1420  1.0430  0.3285
   55CHL1    C8 6490   6.662   3.229   9.699  0.2763  0.7406 -1.0149
   55CHL1    H8 6491   6.745   3.172   9.747 -0.2869  0.5449 -0.2730
   55CHL1   C14 6492   6.651   3.189   9.554  0.1198 -0.0588 -0.3453
   55CHL1   H14 6493   6.575   3.252   9.505 -1.0144  1.5369  3.2810
   55CHL1   C15 6494   6.611   3.043   9.524 -0.0737 -0.5469 -0.7974
   55CHL1  H15A 6495   6.669   2.972   9.587 -1.1770  0.1659  1.0643
   55CHL1  H15B 6496   6.501   3.032   9.534 -0.0048 -1.0128 -0.5124
   55CHL1   C16 6497   6.650   3.021   9.370 -0.0333 -0.0831 -0.1867
   55CHL1  H16A 6498   6.728   2.942   9.365  1.4193  1.2322  1.3268
   55CHL1  H16B 6499   6.571   2.998   9.295 -1.0579  1.1048  0.5083
   55CHL1   C17 6500   6.724   3.155   9.331 -0.0062  0.0212 -0.3588
   55CHL1   H17 6501   6.641   3.215   9.289 -0.9846 -2.2248 -1.7299
   55CHL1   C13 6502   6.772   3.219   9.463 -0.1792 -1.0861 -0.8238
   55CHL1   C18 6503   6.901   3.154   9.514  0.0041  0.1841 -0.0399
   55CHL1  H18A 6504   6.987   3.195   9.458 -0.8286  1.7146 -0.2160
   55CHL1  H18B 6505   6.920   3.185   9.619 -0.5177 -0.1496  0.1606
   55CHL1  H18C 6506   6.900   3.044   9.497  0.1365  0.4251 -1.6827
   55CHL1   C12 6507   6.789   3.371   9.461 -0.6106  0.9587 -0.3726
   55CHL1  H12A 6508   6.891   3.397   9.426  0.3900 -0.0994  1.6743
   55CHL1  H12B 6509   6.711   3.417   9.396 -2.3462  0.2168  1.1474
   55CHL1   C11 6510   6.790   3.439   9.599  0.0685  0.3102  0.3415
   55CHL1  H11A 6511   6.893   3.438   9.641 -0.0704 -2.2432  0.6644
   55CHL1  H11B 6512   6.768   3.548   9.594  1.2902  0.5365 -0.1832
   55CHL1    C9 6513   6.682   3.384   9.704  0.0126  0.1102 -0.4460
   55CHL1    H9 6514   6.581   3.421   9.676  1.0505  0.5061 -3.9960
   55CHL1   C10 6515   6.707   3.427   9.851  0.3158 -0.0693  0.1019
   55CHL1   C19 6516   6.851   3.391   9.900  0.1305  0.1552  0.4124
   55CHL1  H19A 6517   6.858   3.425  10.006  3.0856 -2.4004  1.1026
   55CHL1  H19B 6518   6.869   3.282   9.897  0.0897  0.1781 -2.3538
   55CHL1  H19C 6519   6.916   3.455   9.836 -1.4400  1.0843 -0.2928
   55CHL1    C1 6520   6.681   3.579   9.865 -0.7508  0.4319  0.0269
   55CHL1   H1A 6521   6.765   3.625   9.809 -0.9701  1.3347  0.4328
   55CHL1   H1B 6522   6.586   3.618   9.822 -0.1082  0.0319 -1.8105
   55CHL1    C2 6523   6.685   3.633  10.006  0.3090  0.7308  0.0017
   55CHL1   H2A 6524   6.665   3.742   9.995  1.2689  0.6408 -3.1059
   55CHL1   H2B 6525   6.784   3.617  10.053  0.0117  1.4137  0.8570
   55CHL1   C20 6526   6.827   3.138   9.213 -0.5725  0.4328  0.1089
   55CHL1   H20 6527   6.910   3.066   9.234 -0.4188  0.6116  0.1180
   55CHL1   C21 6528   6.901   3.270   9.188 -1.0476 -0.2604 -0.0678
   55CHL1  H21A 6529   6.950   3.282   9.089 -1.2586 -2.0485 -0.3997
   55CHL1  H21B 6530   6.982   3.294   9.261 -0.9518  3.1237 -1.1835
   55CHL1  H21C 6531   6.829   3.354   9.183 -1.2007 -0.3430  0.6222
   55CHL1   C22 6532   6.754   3.089   9.090 -0.4590 -0.1353 -0.0720
   55CHL1  H22A 6533   6.692   3.004   9.126 -0.2960 -1.3054 -2.4937
   55CHL1  H22B 6534   6.687   3.171   9.057 -1.0888 -0.9210 -0.7712
   55CHL1   C23 6535   6.842   3.026   8.976 -0.2400 -0.6293  0.2796
   55CHL1  H23A 6536   6.901   3.105   8.924  1.4092 -1.6609  0.5196
   55CHL1  H23B 6537   6.914   2.958   9.027 -0.2060 -0.4091  0.5249
   55CHL1   C24 6538   6.749   2.961   8.875 -0.0278  0.1752 -0.0138
   55CHL1  H24A 6539   6.685   2.879   8.915 -0.2510  0.6131  0.5289
   55CHL1  H24B 6540   6.682   3.042   8.840  0.3208  1.9696  3.2488
   55CHL1   C25 6541   6.813   2.919   8.743  0.2527 -0.5634 -1.2327
   55CHL1   H25 6542   6.870   3.004   8.700  1.3084  0.3066  1.7404
   55CHL1   C26 6543   6.913   2.806   8.765 -0.2459  0.1877 -0.4373
   55CHL1  H26A 6544   6.946   2.762   8.668  1.9344  1.4723 -0.3140
   55CHL1  H26B 6545   7.001   2.856   8.810  0.5361 -1.9747  0.5290
   55CHL1  H26C 6546   6.869   2.723   8.824  0.9397 -1.7436 -2.2037
   55CHL1   C27 6547   6.709   2.862   8.650 -0.0414 -0.0358 -0.8774
   55CHL1  H27A 6548   6.753   2.832   8.553  0.4325 -0.5377 -0.5080
   55CHL1  H27B 6549   6.648   2.783   8.699  1.0355 -0.4251 -0.1627
   55CHL1  H27C 6550   6.650   2.954   8.630  1.5766  1.5877  1.5009
   56CHL1    C3 6551   4.424   1.512  10.127  0.5640 -0.2871  0.0985
   56CHL1    H3 6552   4.385   1.608  10.085  0.0412 -0.3758  0.3723
   56CHL1    O3 6553   4.403   1.503  10.272 -0.1943 -0.8030  0.4689
   56CHL1   H3' 6554   4.417   1.410  10.286 -1.5390 -0.9450  0.9527
   56CHL1    C4 6555   4.361   1.385  10.067 -1.3377 -0.5985  0.4779
   56CHL1   H4A 6556   4.407   1.294  10.110  1.0786 -0.0540 -0.8517
   56CHL1   H4B 6557   4.252   1.392  10.088 -2.0123 -2.6406 -2.0621
   56CHL1    C5 6558   4.386   1.384   9.918 -0.2965  0.4243  0.1804
   56CHL1    C6 6559   4.291   1.370   9.828  0.5544 -0.0149 -0.0636
   56CHL1    H6 6560   4.186   1.368   9.862  0.3443 -1.6574 -0.7776
   56CHL1    C7 6561   4.304   1.389   9.679  0.1681  0.5712  0.8237
   56CHL1   H7A 6562   4.236   1.314   9.632  1.6284 -0.7816  0.8268
   56CHL1   H7B 6563   4.301   1.493   9.641 -1.2702 -0.6899 -2.7267
   56CHL1    C8 6564   4.444   1.336   9.642  0.4239 -0.0495 -0.0361
   56CHL1    H8 6565   4.438   1.230   9.675  0.6914  0.2930  1.1451
   56CHL1   C14 6566   4.467   1.362   9.491  0.0872  0.1895 -0.3973
   56CHL1   H14 6567   4.459   1.471   9.474  2.6664  0.0481 -2.8157
   56CHL1   C15 6568   4.358   1.302   9.395  0.3699 -0.0186 -0.2400
   56CHL1  H15A 6569   4.352   1.193   9.416  2.0844  0.3462  2.3485
   56CHL1  H15B 6570   4.259   1.349   9.410  0.4996  1.0783 -2.6492
   56CHL1   C16 6571   4.427   1.332   9.260  0.1431  0.1252 -0.1024
   56CHL1  H16A 6572   4.411   1.249   9.188 -0.7363  0.6731 -0.5436
   56CHL1  H16B 6573   4.393   1.430   9.221 -0.8880 -0.5746 -0.9863
   56CHL1   C17 6574   4.581   1.362   9.279  0.3640  0.0927  1.5644
   56CHL1   H17 6575   4.590   1.473   9.277  0.0336  0.1119  1.2168
   56CHL1   C13 6576   4.605   1.329   9.428  0.1795 -0.0049 -0.6782
   56CHL1   C18 6577   4.634   1.180   9.433  0.9890 -0.4163  0.0211
   56CHL1  H18A 6578   4.609   1.142   9.534 -2.6795 -2.3296 -1.4972
   56CHL1  H18B 6579   4.563   1.135   9.360  1.3826  0.6206 -1.0170
   56CHL1  H18C 6580   4.738   1.164   9.398  0.0286 -1.3824 -2.5619
   56CHL1   C12 6581   4.702   1.417   9.511 -0.0560 -0.2735 -0.8468
   56CHL1  H12A 6582   4.802   1.403   9.466  1.0115  1.7649  0.7910
   56CHL1  H12B 6583   4.661   1.517   9.484  1.7248  0.2166 -1.8060
   56CHL1   C11 6584   4.692   1.386   9.660 -0.5528 -0.6864  0.0248
   56CHL1  H11A 6585   4.723   1.279   9.663 -2.4754 -1.2240  2.2939
   56CHL1  H11B 6586   4.771   1.442   9.714  0.3322 -1.0668 -0.8528
   56CHL1    C9 6587   4.545   1.416   9.715  0.2334  0.2579  0.1683
   56CHL1    H9 6588   4.531   1.525   9.701 -0.2143 -0.0979 -2.4685
   56CHL1   C10 6589   4.536   1.390   9.876  0.8481 -0.1652 -0.3860
   56CHL1   C19 6590   4.621   1.265   9.914 -0.3442  0.6190  0.1030
   56CHL1  H19A 6591   4.727   1.279   9.883 -1.1232  1.7594 -2.1494
   56CHL1  H19B 6592   4.618   1.245  10.024 -0.4181 -3.1181 -0.5146
   56CHL1  H19C 6593   4.586   1.179   9.853  1.2204 -0.3666  0.5501
   56CHL1    C1 6594   4.610   1.509   9.946 -0.2509  0.2130  0.8277
   56CHL1   H1A 6595   4.721   1.502   9.945 -0.2140  0.1338  2.7900
   56CHL1   H1B 6596   4.573   1.599   9.892  0.1331 -1.3364 -2.0524
   56CHL1    C2 6597   4.578   1.510  10.096 -0.3105 -0.4074  0.4701
   56CHL1   H2A 6598   4.617   1.606  10.134 -3.0644 -0.1001  2.7012
   56CHL1   H2B 6599   4.626   1.419  10.139 -1.2631 -1.0322  0.2496
   56CHL1   C20 6600   4.669   1.301   9.167 -0.2563 -0.6264 -0.0275
   56CHL1   H20 6601   4.657   1.191   9.178 -2.2766 -0.2654  1.4419
   56CHL1   C21 6602   4.814   1.323   9.189 -0.1696 -0.5371  0.3193
   56CHL1  H21A 6603   4.841   1.319   9.296  3.1727  2.9155 -0.2827
   56CHL1  H21B 6604   4.838   1.427   9.158  0.0268 -0.3905  0.9586
   56CHL1  H21C 6605   4.881   1.252   9.135  3.1739  1.5704  1.5300
   56CHL1   C22 6606   4.627   1.345   9.022  0.8975 -1.3975  0.2198
   56CHL1  H22A 6607   4.518   1.329   9.010  0.6079 -0.0497  0.9259
   56CHL1  H22B 6608   4.640   1.455   9.030 -1.3200 -1.1001 -0.1184
   56CHL1   C23 6609   4.719   1.292   8.906 -0.2021  0.0170 -0.2975
   56CHL1  H23A 6610   4.826   1.321   8.902 -0.1523 -0.3195 -1.6245
   56CHL1  H23B 6611   4.718   1.181   8.912  0.1034 -0.0030 -0.5839
   56CHL1   C24 6612   4.666   1.333   8.763  0.5586 -0.1447 -0.2119
   56CHL1  H24A 6613   4.559   1.308   8.746  0.4755 -1.0762  1.6236
   56CHL1  H24B 6614   4.687   1.442   8.767  1.2612 -0.3326  1.1856
   56CHL1   C25 6615   4.735   1.262   8.656  0.2464 -0.8922  0.0923
   56CHL1   H25 6616   4.836   1.247   8.701  0.4785  0.8258  0.1856
   56CHL1   C26 6617   4.675   1.123   8.622 -0.0608  0.4213 -0.9614
   56CHL1  H26A 6618   4.581   1.127   8.563 -1.6917  0.7384  1.5847
   56CHL1  H26B 6619   4.752   1.072   8.561 -0.3685 -0.7787 -0.3805
   56CHL1  H26C 6620   4.644   1.059   8.708  0.2297 -0.4574 -1.5053
   56CHL1   C27 6621   4.762   1.345   8.535 -0.6006  0.5827  0.5106
   56CHL1  H27A 6622   4.825   1.434   8.559  1.2011 -0.2720 -0.9558
   56CHL1  H27B 6623   4.808   1.283   8.455 -1.4303  0.4992  0.1001
   56CHL1  H27C 6624   4.664   1.369   8.488 -0.2397 -0.9637 -1.0683
   57CHL1    C3 6625   0.301   4.444  10.266  0.4554  0.3121  0.4207
   57CHL1    H3 6626   0.397   4.387  10.269  1.6168  2.3007  1.6978
   57CHL1    O3 6627   0.248   4.456  10.397 -0.4122 -0.7403  0.0834
   57CHL1   H3' 6628   0.179   4.388  10.397  1.2032 -2.4808 -2.6918
   57CHL1    C4 6629   0.326   4.582  10.199  0.1168 -0.2491 -0.1415
   57CHL1   H4A 6630   0.233   4.643  10.194 -1.6286 -2.6622  1.4821
   57CHL1   H4B 6631   0.386   4.658  10.253 -0.8666 -0.2374  0.9665
   57CHL1    C5 6632   0.363   4.570  10.050 -0.7786 -0.6547  0.3572
   57CHL1    C6 6633   0.478   4.624   9.998  0.2557 -0.3951 -0.3545
   57CHL1    H6 6634   0.550   4.672  10.066  2.6004 -1.2237 -2.1919
   57CHL1    C7 6635   0.505   4.636   9.850 -0.1420 -0.3100  0.4535
   57CHL1   H7A 6636   0.531   4.740   9.821 -1.0900 -0.5978 -1.4887
   57CHL1   H7B 6637   0.592   4.572   9.825  0.5492  0.4276  0.9280
   57CHL1    C8 6638   0.384   4.590   9.767  0.3381 -0.2716 -0.1770
   57CHL1    H8 6639   0.307   4.670   9.770 -0.5087 -1.0418 -0.9616
   57CHL1   C14 6640   0.418   4.565   9.619  0.1903  0.0439 -0.3019
   57CHL1   H14 6641   0.495   4.486   9.630  1.8091  1.5930 -0.3047
   57CHL1   C15 6642   0.479   4.692   9.542 -0.0533  0.1151  0.0380
   57CHL1  H15A 6643   0.419   4.784   9.561 -2.6131 -1.1430 -1.6097
   57CHL1  H15B 6644   0.584   4.696   9.578  0.1049  1.1588 -0.5426
   57CHL1   C16 6645   0.464   4.644   9.396  0.8079  0.2706 -0.8905
   57CHL1  H16A 6646   0.395   4.714   9.343 -2.9488  0.1686  3.5391
   57CHL1  H16B 6647   0.561   4.629   9.344  0.9661 -0.4177 -0.3933
   57CHL1   C17 6648   0.388   4.509   9.396  0.0488  0.2346 -0.2211
   57CHL1   H17 6649   0.468   4.436   9.418 -1.1075 -0.5411  1.4591
   57CHL1   C13 6650   0.312   4.499   9.529  0.3743 -0.0755  0.1047
   57CHL1   C18 6651   0.188   4.594   9.532 -0.2801 -0.6117 -0.2032
   57CHL1  H18A 6652   0.200   4.671   9.453  2.6259  2.0167  2.6691
   57CHL1  H18B 6653   0.098   4.532   9.514 -2.1665  1.7990  0.5494
   57CHL1  H18C 6654   0.180   4.648   9.629  0.7880  0.0697 -0.4860
   57CHL1   C12 6655   0.272   4.366   9.587 -0.0803  1.0951  0.7154
   57CHL1  H12A 6656   0.201   4.311   9.522 -0.3622  0.1596  1.7892
   57CHL1  H12B 6657   0.361   4.300   9.589  0.2437  1.4991 -0.4615
   57CHL1   C11 6658   0.217   4.388   9.730 -0.2790 -0.3978  0.3134
   57CHL1  H11A 6659   0.121   4.445   9.723  0.1862  0.2353 -1.1104
   57CHL1  H11B 6660   0.179   4.294   9.774 -3.8697  0.8075 -0.0023
   57CHL1    C9 6661   0.320   4.463   9.821 -0.4548  0.3244  0.4344
   57CHL1    H9 6662   0.399   4.385   9.826 -1.5980 -0.7218  2.6882
   57CHL1   C10 6663   0.266   4.483   9.969 -0.3789  1.0955  0.7947
   57CHL1   C19 6664   0.128   4.563   9.955 -0.2102  0.3807  0.1995
   57CHL1  H19A 6665   0.094   4.608  10.051  0.5735 -1.8681  1.5640
   57CHL1  H19B 6666   0.143   4.646   9.883 -0.5538  1.5490  1.4630
   57CHL1  H19C 6667   0.050   4.495   9.916  0.7575 -1.4561  1.3694
   57CHL1    C1 6668   0.255   4.346  10.035  0.3917 -0.1034 -0.2121
   57CHL1   H1A 6669   0.179   4.290   9.976  0.0751 -0.1343  0.2127
   57CHL1   H1B 6670   0.347   4.286  10.020  0.3177 -0.2421 -0.1219
   57CHL1    C2 6671   0.208   4.359  10.183 -0.2696  0.0175  0.0116
   57CHL1   H2A 6672   0.211   4.254  10.220 -1.7960 -0.7769 -2.0127
   57CHL1   H2B 6673   0.107   4.403  10.191 -1.2007 -2.3187  1.5537
   57CHL1   C20 6674   0.319   4.454   9.266 -0.2350  0.4370 -0.6478
   57CHL1   H20 6675   0.291   4.349   9.288 -0.5238  0.2156 -2.0197
   57CHL1   C21 6676   0.434   4.452   9.153  0.1815  0.8415 -0.7593
   57CHL1  H21A 6677   0.398   4.389   9.069  0.0489  1.7020 -1.3466
   57CHL1  H21B 6678   0.522   4.391   9.182 -0.2932  0.7328  0.5172
   57CHL1  H21C 6679   0.453   4.552   9.110  1.1231  1.1753  0.4047
   57CHL1   C22 6680   0.199   4.543   9.208 -0.4854 -0.1157  0.2196
   57CHL1  H22A 6681   0.119   4.542   9.285 -0.7338 -0.8737 -0.0442
   57CHL1  H22B 6682   0.242   4.645   9.196  1.8277 -0.9500  1.0327
   57CHL1   C23 6683   0.135   4.487   9.089 -0.0839  0.5680  0.7800
   57CHL1  H23A 6684   0.057   4.550   9.040  1.7573  0.6308 -2.1857
   57CHL1  H23B 6685   0.214   4.488   9.011 -0.5800 -0.5996  0.2658
   57CHL1   C24 6686   0.094   4.347   9.108 -0.4257  0.2752  0.2385
   57CHL1  H24A 6687   0.183   4.288   9.137  1.5633  2.3836 -1.4398
   57CHL1  H24B 6688   0.020   4.338   9.190  1.0716 -0.7549  1.5060
   57CHL1   C25 6689   0.031   4.286   8.982  0.5263 -0.2344 -0.1237
   57CHL1   H25 6690  -0.059   4.347   8.959  1.3324  1.7732  1.8646
   57CHL1   C26 6691   0.123   4.280   8.856 -0.3376 -0.1535 -0.9128
   57CHL1  H26A 6692   0.089   4.200   8.786 -1.6884 -0.2921 -0.1229
   57CHL1  H26B 6693   0.122   4.385   8.821  0.5983  0.3194  0.4471
   57CHL1  H26C 6694   0.224   4.263   8.899 -0.6582  0.3546  0.0678
   57CHL1   C27 6695   0.002   4.142   9.019  0.6078 -0.0290  0.2341
   57CHL1  H27A 6696   0.095   4.090   9.051 -0.4470 -0.0945  3.3935
   57CHL1  H27B 6697  -0.058   4.137   9.113  1.4355  0.4701  0.7930
   57CHL1  H27C 6698  -0.043   4.078   8.940  1.9600 -1.5172  0.6264
   58CHL1    C3 6699   2.725   2.914  10.093  0.0955 -0.3695  0.1621
   58CHL1    H3 6700   2.674   2.824  10.054  1.4025 -0.3163 -1.7348
   58CHL1    O3 6701   2.741   2.903  10.233 -0.4029  0.2666  0.0323
   58CHL1   H3' 6702   2.763   2.992  10.262 -0.0945 -0.9010  3.7159
   58CHL1    C4 6703   2.862   2.932  10.030 -0.1211 -0.5344 -0.1634
   58CHL1   H4A 6704   2.913   3.026  10.057  0.3855 -1.0524  0.6928
   58CHL1   H4B 6705   2.937   2.858  10.067  0.4591 -0.7207 -1.6634
   58CHL1    C5 6706   2.834   2.921   9.879  0.2768 -0.5163  0.4994
   58CHL1    C6 6707   2.880   2.823   9.806  0.3635 -0.1939 -0.1624
   58CHL1    H6 6708   2.941   2.754   9.867  0.4620 -2.1950 -2.4523
   58CHL1    C7 6709   2.846   2.800   9.655  0.2694  0.3127 -0.2444
   58CHL1   H7A 6710   2.927   2.756   9.593  1.9000  2.5676  0.2445
   58CHL1   H7B 6711   2.754   2.738   9.645  1.9455 -2.1652 -0.7928
   58CHL1    C8 6712   2.803   2.938   9.589 -0.7139  0.6749  0.5572
   58CHL1    H8 6713   2.902   2.988   9.578 -0.8604  0.5760 -1.3420
   58CHL1   C14 6714   2.749   2.913   9.447 -0.1415 -0.0808  0.1506
   58CHL1   H14 6715   2.662   2.844   9.452 -0.6072  0.3030 -2.1283
   58CHL1   C15 6716   2.842   2.851   9.346  0.0268 -0.1050 -0.1920
   58CHL1  H15A 6717   2.936   2.908   9.329  0.5217 -0.8015  0.2024
   58CHL1  H15B 6718   2.863   2.746   9.375 -0.0035 -0.1396 -0.2957
   58CHL1   C16 6719   2.764   2.870   9.216 -0.2838  0.2418  0.4574
   58CHL1  H16A 6720   2.835   2.895   9.135 -1.2810  0.5284 -0.3408
   58CHL1  H16B 6721   2.727   2.767   9.193  2.4426 -0.4643 -0.9885
   58CHL1   C17 6722   2.650   2.971   9.235 -0.1562  0.1782  0.0756
   58CHL1   H17 6723   2.550   2.926   9.254 -0.2963  0.1613 -0.6914
   58CHL1   C13 6724   2.687   3.033   9.371  0.2196  0.2865  0.9388
   58CHL1   C18 6725   2.798   3.134   9.335 -0.3453  0.7300  0.1003
   58CHL1  H18A 6726   2.754   3.232   9.308  0.5097  1.3224  0.8227
   58CHL1  H18B 6727   2.856   3.162   9.425 -2.5459  3.0773  0.8371
   58CHL1  H18C 6728   2.869   3.096   9.257  1.3880  0.0273  1.9713
   58CHL1   C12 6729   2.583   3.106   9.463  0.3799 -0.1801  0.2238
   58CHL1  H12A 6730   2.542   3.193   9.407 -1.8102  0.2914  2.4884
   58CHL1  H12B 6731   2.495   3.042   9.487  0.7654 -0.5844  0.5621
   58CHL1   C11 6732   2.645   3.140   9.598  0.9753 -0.1281  0.2544
   58CHL1  H11A 6733   2.732   3.207   9.579 -0.3866  1.4941 -0.2954
   58CHL1  H11B 6734   2.576   3.176   9.677 -0.8710  0.4884 -1.6106
   58CHL1    C9 6735   2.699   3.015   9.675 -0.0330 -0.1929 -0.1061
   58CHL1    H9 6736   2.614   2.944   9.679  0.6036 -0.9152  0.5350
   58CHL1   C10 6737   2.745   3.034   9.822 -0.3721  0.9119 -0.4429
   58CHL1   C19 6738   2.829   3.161   9.820  0.1713  0.0871  0.0275
   58CHL1  H19A 6739   2.907   3.136   9.746 -0.8986  0.3213 -1.2136
   58CHL1  H19B 6740   2.768   3.249   9.788 -0.6945 -0.7337 -0.6204
   58CHL1  H19C 6741   2.875   3.187   9.918  0.8441 -1.6648  0.1938
   58CHL1    C1 6742   2.615   3.044   9.901  0.0529  0.0836  0.2087
   58CHL1   H1A 6743   2.555   3.133   9.871 -0.6168 -0.0506  1.1086
   58CHL1   H1B 6744   2.550   2.960   9.870 -0.2134  0.6488 -0.7654
   58CHL1    C2 6745   2.632   3.031  10.057  0.1714 -0.2550  0.5351
   58CHL1   H2A 6746   2.534   3.022  10.110 -0.7292  3.8949 -0.2983
   58CHL1   H2B 6747   2.680   3.119  10.104 -1.3606  0.6876  0.3589
   58CHL1   C20 6748   2.637   3.053   9.105  0.4170  0.3730  0.4398
   58CHL1   H20 6749   2.733   3.101   9.080  0.2272 -0.7373 -2.6257
   58CHL1   C21 6750   2.523   3.153   9.123 -0.2162 -0.1244  0.3756
   58CHL1  H21A 6751   2.428   3.100   9.144 -1.1861  0.5087 -2.2851
   58CHL1  H21B 6752   2.516   3.206   9.025  1.1153  0.0796  0.3816
   58CHL1  H21C 6753   2.555   3.230   9.197  0.7118 -0.5785  0.4647
   58CHL1   C22 6754   2.598   2.957   8.991 -0.5481  0.0163 -0.3697
   58CHL1  H22A 6755   2.689   2.895   8.971 -0.7428 -1.1703  2.1393
   58CHL1  H22B 6756   2.507   2.900   9.018 -0.1756 -0.9618 -1.1413
   58CHL1   C23 6757   2.566   3.040   8.858 -0.1478  0.1842  0.7598
   58CHL1  H23A 6758   2.470   3.097   8.859 -2.1114 -2.9592 -0.9665
   58CHL1  H23B 6759   2.654   3.105   8.840  1.3880 -2.3432 -1.2992
   58CHL1   C24 6760   2.561   2.955   8.736 -0.2517 -0.4636 -0.0010
   58CHL1  H24A 6761   2.666   2.921   8.726 -0.0435  0.2378 -0.2126
   58CHL1  H24B 6762   2.498   2.864   8.753  0.6364 -1.8568 -3.6269
   58CHL1   C25 6763   2.521   3.022   8.603 -0.7099 -0.6956  0.1197
   58CHL1   H25 6764   2.414   3.052   8.613  0.2229  2.6447  0.9689
   58CHL1   C26 6765   2.610   3.138   8.571 -0.2494  0.8287 -0.1118
   58CHL1  H26A 6766   2.604   3.214   8.652 -0.9188  1.1263 -0.4364
   58CHL1  H26B 6767   2.717   3.110   8.561  0.0700  2.2098 -0.7353
   58CHL1  H26C 6768   2.581   3.186   8.475 -0.3387 -1.0303 -1.0332
   58CHL1   C27 6769   2.513   2.929   8.484 -0.3451 -0.8525  0.2032
   58CHL1  H27A 6770   2.448   2.847   8.519 -0.4342 -0.6845  0.4282
   58CHL1  H27B 6771   2.473   2.966   8.387  0.8000 -1.4896 -0.5388
   58CHL1  H27C 6772   2.616   2.889   8.466 -0.8956 -1.7925 -0.9596
   59CHL1    C3 6773   2.126   2.315  10.328  0.5809  0.5997  0.2923
   59CHL1    H3 6774   2.187   2.401  10.293  0.1523  2.0397  2.9405
   59CHL1    O3 6775   2.094   2.330  10.467  0.2437  0.1567  0.0588
   59CHL1   H3' 6776   2.003   2.298  10.471 -0.5839  2.3062 -0.8800
   59CHL1    C4 6777   1.998   2.322  10.248 -0.2161 -0.1452  0.4402
   59CHL1   H4A 6778   1.921   2.248  10.278 -1.0798  0.4731 -0.2616
   59CHL1   H4B 6779   1.949   2.418  10.277 -0.0773  0.3264 -0.8532
   59CHL1    C5 6780   2.025   2.311  10.103  0.4197  0.4492  0.3359
   59CHL1    C6 6781   1.978   2.405  10.020  0.9941  0.1775  0.1814
   59CHL1    H6 6782   1.906   2.483  10.049  0.4255 -0.3461  0.2012
   59CHL1    C7 6783   2.000   2.393   9.871 -0.1334 -0.3767 -0.2777
   59CHL1   H7A 6784   1.901   2.414   9.825 -1.1771 -0.1093  2.0215
   59CHL1   H7B 6785   2.078   2.465   9.838 -0.2080  0.8880  2.1780
   59CHL1    C8 6786   2.052   2.263   9.809 -0.0198  0.2873 -0.0789
   59CHL1    H8 6787   1.962   2.197   9.804  0.0656  0.1904 -0.3806
   59CHL1   C14 6788   2.111   2.263   9.670 -0.1801 -0.4679  0.2088
   59CHL1   H14 6789   2.203   2.325   9.675  0.1344 -1.0217  1.3103
   59CHL1   C15 6790   2.023   2.325   9.561  0.1522  1.0043  0.3068
   59CHL1  H15A 6791   1.917   2.289   9.562  0.3145  0.3986 -2.1740
   59CHL1  H15B 6792   2.013   2.436   9.565  1.6661  1.2639 -2.3733
   59CHL1   C16 6793   2.086   2.286   9.428 -0.1114 -0.2484 -0.4092
   59CHL1  H16A 6794   2.012   2.243   9.358  0.6723  1.3271 -2.2791
   59CHL1  H16B 6795   2.133   2.375   9.380 -0.4597 -0.3626 -0.9656
   59CHL1   C17 6796   2.203   2.192   9.463 -0.2604 -0.5753 -0.3192
   59CHL1   H17 6797   2.294   2.255   9.465 -0.2087 -0.6033 -1.5483
   59CHL1   C13 6798   2.167   2.138   9.605  0.2100 -0.0594 -0.5341
   59CHL1   C18 6799   2.054   2.033   9.595 -0.4269 -0.4618 -0.2270
   59CHL1  H18A 6800   2.002   2.024   9.692  0.2755  2.6421  0.4920
   59CHL1  H18B 6801   1.988   2.064   9.511 -0.4319  2.8642  0.9293
   59CHL1  H18C 6802   2.111   1.942   9.567  1.5526 -0.1269  2.4937
   59CHL1   C12 6803   2.281   2.086   9.697  0.3892  0.7238 -0.2087
   59CHL1  H12A 6804   2.315   1.982   9.677  0.2742  0.4749  0.8348
   59CHL1  H12B 6805   2.367   2.156   9.700  2.0254 -1.2919  1.1888
   59CHL1   C11 6806   2.227   2.075   9.844 -0.4771  0.5757 -0.1962
   59CHL1  H11A 6807   2.154   1.991   9.843 -1.4652  1.3788  1.6052
   59CHL1  H11B 6808   2.311   2.047   9.911 -1.2200  2.3790  1.5305
   59CHL1    C9 6809   2.157   2.202   9.899 -0.0428  0.1165  0.3562
   59CHL1    H9 6810   2.236   2.276   9.923 -1.4818  1.2429  1.8217
   59CHL1   C10 6811   2.107   2.189  10.049 -0.4586  0.4275  0.2777
   59CHL1   C19 6812   2.019   2.064  10.070  0.2654 -0.7197 -0.3031
   59CHL1  H19A 6813   2.074   1.970  10.051  1.4863  0.3980 -2.5591
   59CHL1  H19B 6814   1.967   2.066  10.168 -0.4488  0.7111 -0.6904
   59CHL1  H19C 6815   1.935   2.075   9.998  0.1492  0.5247  0.0021
   59CHL1    C1 6816   2.238   2.160  10.135  0.1929 -0.2647 -0.5908
   59CHL1   H1A 6817   2.260   2.051  10.126  0.5098 -0.2082 -0.5033
   59CHL1   H1B 6818   2.323   2.222  10.100 -0.6310  1.7707  0.9612
   59CHL1    C2 6819   2.207   2.185  10.287 -0.3199 -0.2178  0.1267
   59CHL1   H2A 6820   2.303   2.182  10.342  0.7896 -0.9003 -1.7912
   59CHL1   H2B 6821   2.150   2.102  10.333 -0.5465  0.5623  1.2763
   59CHL1   C20 6822   2.235   2.089   9.352 -0.4889  0.1654  0.1089
   59CHL1   H20 6823   2.146   2.025   9.339 -0.9208  0.9562 -0.8394
   59CHL1   C21 6824   2.358   1.995   9.382 -0.1271 -0.1808  0.3206
   59CHL1  H21A 6825   2.443   2.058   9.415 -0.0756  0.5538 -1.1920
   59CHL1  H21B 6826   2.384   1.939   9.290 -4.0935  2.0312 -2.2836
   59CHL1  H21C 6827   2.331   1.922   9.462  0.8773 -3.0124 -1.8227
   59CHL1   C22 6828   2.264   2.156   9.222 -0.1201 -0.0431  0.5281
   59CHL1  H22A 6829   2.199   2.245   9.215 -0.8877 -0.6662 -0.4980
   59CHL1  H22B 6830   2.363   2.206   9.225 -0.8713  1.4020  1.4618
   59CHL1   C23 6831   2.243   2.081   9.086  0.1551 -0.6577  0.0233
   59CHL1  H23A 6832   2.311   1.994   9.075 -0.3782 -1.1999  1.0051
   59CHL1  H23B 6833   2.138   2.046   9.089 -0.3560  0.6695 -1.3215
   59CHL1   C24 6834   2.269   2.185   8.968 -0.0006 -0.3003  0.4646
   59CHL1  H24A 6835   2.204   2.274   8.986  1.2741  0.8228 -0.3788
   59CHL1  H24B 6836   2.369   2.227   8.993  0.6360 -1.6042  0.1286
   59CHL1   C25 6837   2.277   2.124   8.828  1.0007 -0.5734 -0.7047
   59CHL1   H25 6838   2.320   2.189   8.747 -0.0086 -0.0681 -0.8453
   59CHL1   C26 6839   2.378   2.006   8.826  0.6642  0.1271 -0.3050
   59CHL1  H26A 6840   2.331   1.909   8.855 -1.2646  0.3529 -2.5256
   59CHL1  H26B 6841   2.408   1.997   8.720  2.0163  2.2506 -0.1268
   59CHL1  H26C 6842   2.465   2.030   8.891  0.6250  0.2664 -0.3025
   59CHL1   C27 6843   2.142   2.076   8.768  0.2509  1.0510 -0.5558
   59CHL1  H27A 6844   2.101   1.987   8.821 -0.5620  2.0056  0.4394
   59CHL1  H27B 6845   2.066   2.157   8.758 -0.3023  0.3222 -2.4930
   59CHL1  H27C 6846   2.169   2.037   8.668 -1.5399 -0.6370 -0.4089
   60CHL1    C3 6847   2.574   1.145  10.330  0.1936  0.0815  0.4545
   60CHL1    H3 6848   2.652   1.101  10.264  0.4846  1.5350 -0.1965
   60CHL1    O3 6849   2.637   1.207  10.445 -0.3532 -0.1784  0.0453
   60CHL1   H3' 6850   2.724   1.232  10.415 -0.8963  1.9758  0.2292
   60CHL1    C4 6851   2.490   1.253  10.264  0.0364  0.2803 -0.6527
   60CHL1   H4A 6852   2.436   1.305  10.346 -0.4442 -1.3629  0.0799
   60CHL1   H4B 6853   2.557   1.328  10.215  0.7211 -0.3839 -0.7329
   60CHL1    C5 6854   2.391   1.216  10.161 -0.6061  0.1209 -0.3265
   60CHL1    C6 6855   2.380   1.274  10.040  0.1346 -0.0563  0.3191
   60CHL1    H6 6856   2.448   1.355  10.010  0.1426 -0.7278 -1.5746
   60CHL1    C7 6857   2.286   1.224   9.930 -0.3735 -0.5913 -0.3918
   60CHL1   H7A 6858   2.245   1.312   9.877 -0.7958 -1.5865 -1.7314
   60CHL1   H7B 6859   2.351   1.172   9.857 -2.7239 -0.2284 -2.7973
   60CHL1    C8 6860   2.172   1.131   9.981 -0.5930  0.0670 -0.0670
   60CHL1    H8 6861   2.101   1.199  10.033  2.2488  2.5144  0.7306
   60CHL1   C14 6862   2.108   1.060   9.875  0.9377 -0.3877  0.3550
   60CHL1   H14 6863   2.190   0.998   9.834 -0.1541 -0.3964 -1.9266
   60CHL1   C15 6864   2.062   1.139   9.752  0.0258 -0.5405  0.9468
   60CHL1  H15A 6865   1.994   1.220   9.786  0.0968  0.7420 -1.7953
   60CHL1  H15B 6866   2.155   1.172   9.701  0.0546 -0.6458  0.9311
   60CHL1   C16 6867   1.966   1.041   9.673  0.8847  0.0612  0.1185
   60CHL1  H16A 6868   1.873   1.097   9.650 -0.0705 -1.2777  0.5780
   60CHL1  H16B 6869   2.011   0.999   9.581 -0.3218 -0.0391 -0.4386
   60CHL1   C17 6870   1.943   0.915   9.767 -0.5568 -0.1529  0.2807
   60CHL1   H17 6871   2.022   0.842   9.737 -0.7642  0.1061 -0.8994
   60CHL1   C13 6872   1.990   0.966   9.907 -0.9537 -0.3548  0.0653
   60CHL1   C18 6873   1.894   1.042   9.994  0.5496  0.0766  0.8183
   60CHL1  H18A 6874   1.809   0.982  10.035 -0.0893 -0.5323 -1.3100
   60CHL1  H18B 6875   1.942   1.101  10.074  2.1104  2.2850 -1.6691
   60CHL1  H18C 6876   1.851   1.129   9.940  0.5338  0.4243  1.3848
   60CHL1   C12 6877   2.071   0.864   9.991 -0.3880  0.1393  0.5777
   60CHL1  H12A 6878   2.013   0.773  10.015  1.5806 -1.2160  0.2788
   60CHL1  H12B 6879   2.157   0.827   9.931 -0.7944 -0.3825  0.3181
   60CHL1   C11 6880   2.139   0.913  10.116 -0.4773  0.2288 -0.3500
   60CHL1  H11A 6881   2.061   0.948  10.186  0.3805  1.4442  0.0187
   60CHL1  H11B 6882   2.205   0.837  10.162  1.5101  0.8693 -2.0234
   60CHL1    C9 6883   2.236   1.031  10.079  0.0689 -0.2445  0.4166
   60CHL1    H9 6884   2.315   0.981  10.020 -0.6528  1.9128 -2.5157
   60CHL1   C10 6885   2.310   1.096  10.199 -0.0186  0.1517  0.4222
   60CHL1   C19 6886   2.205   1.136  10.306 -0.2055 -0.1354 -0.9457
   60CHL1  H19A 6887   2.123   1.192  10.256 -0.1039  0.7623 -0.1156
   60CHL1  H19B 6888   2.164   1.055  10.370  0.2478  0.0903 -0.3650
   60CHL1  H19C 6889   2.257   1.211  10.369  0.2689 -0.0388 -1.4435
   60CHL1    C1 6890   2.405   0.982  10.258 -0.1306 -0.6029  0.3474
   60CHL1   H1A 6891   2.339   0.903  10.300 -1.3179 -1.0166 -2.2184
   60CHL1   H1B 6892   2.456   0.936  10.171 -3.6117 -0.3765 -1.9187
   60CHL1    C2 6893   2.490   1.029  10.379 -0.0058  0.1007  0.0111
   60CHL1   H2A 6894   2.557   0.953  10.424  1.4841  1.8661  0.8284
   60CHL1   H2B 6895   2.415   1.055  10.457 -1.2104 -1.9836 -0.4304
   60CHL1   C20 6896   1.807   0.840   9.756  0.4584  1.0659 -0.0267
   60CHL1   H20 6897   1.740   0.920   9.795  0.7555  1.3445 -0.0795
   60CHL1   C21 6898   1.816   0.712   9.834 -0.1020 -0.1238  0.5307
   60CHL1  H21A 6899   1.739   0.635   9.815  1.3981 -1.5200  0.0482
   60CHL1  H21B 6900   1.814   0.744   9.940 -0.1188 -0.0339  0.5047
   60CHL1  H21C 6901   1.917   0.671   9.813 -0.4955 -1.0774  0.4766
   60CHL1   C22 6902   1.747   0.813   9.612  0.4129  0.4668  0.5805
   60CHL1  H22A 6903   1.648   0.765   9.625 -0.0930  1.5675  0.8399
   60CHL1  H22B 6904   1.739   0.906   9.551 -1.1395 -0.4992 -0.7241
   60CHL1   C23 6905   1.835   0.729   9.524  0.9899 -0.4862  0.4758
   60CHL1  H23A 6906   1.935   0.777   9.528  1.1211 -0.4912 -1.9044
   60CHL1  H23B 6907   1.829   0.628   9.570  1.4554 -1.1319 -0.8430
   60CHL1   C24 6908   1.789   0.720   9.378 -0.4270  0.1755  0.0738
   60CHL1  H24A 6909   1.687   0.677   9.386 -0.1442 -1.3668 -3.6634
   60CHL1  H24B 6910   1.786   0.823   9.334  0.6563  0.6674  1.1382
   60CHL1   C25 6911   1.868   0.620   9.288  0.3745  0.4530  0.3913
   60CHL1   H25 6912   1.868   0.517   9.331  2.0115  0.2749 -0.0021
   60CHL1   C26 6913   1.804   0.621   9.145  0.4348 -0.1706 -0.3861
   60CHL1  H26A 6914   1.696   0.638   9.162  0.1747 -1.3946 -0.8100
   60CHL1  H26B 6915   1.850   0.709   9.095  2.9090 -0.0183  1.9981
   60CHL1  H26C 6916   1.824   0.525   9.093 -0.3617 -0.1637 -0.7069
   60CHL1   C27 6917   2.014   0.666   9.268 -0.3561 -0.1201  1.0698
   60CHL1  H27A 6918   2.074   0.598   9.204  3.0181  3.5675  0.1350
   60CHL1  H27B 6919   2.008   0.762   9.213 -0.3702  0.1203  1.4915
   60CHL1  H27C 6920   2.057   0.682   9.370 -0.1616  0.2499  0.9289
   61CHL1    C3 6921   5.655   0.618  10.336 -0.1935 -0.5249  0.2938
   61CHL1    H3 6922   5.764   0.600  10.340  0.1049  0.9300 -0.6552
   61CHL1    O3 6923   5.618   0.668  10.463  0.8388  0.0490  0.1743
   61CHL1   H3' 6924   5.702   0.704  10.491 -0.3679  1.3161  2.3847
   61CHL1    C4 6925   5.613   0.718  10.232 -0.8186  0.2094  0.3341
   61CHL1   H4A 6926   5.503   0.732  10.237 -0.6625  0.8128  3.0021
   61CHL1   H4B 6927   5.659   0.818  10.250 -2.0731  0.7015  0.8502
   61CHL1    C5 6928   5.650   0.673  10.096  0.0136  0.7009 -0.2164
   61CHL1    C6 6929   5.739   0.742  10.022  0.3517  0.1923  0.1452
   61CHL1    H6 6930   5.790   0.826  10.071  0.8095  0.7799 -1.3172
   61CHL1    C7 6931   5.784   0.702   9.881  0.3322 -0.3854 -0.2565
   61CHL1   H7A 6932   5.779   0.797   9.823 -0.9324 -0.7963 -0.8530
   61CHL1   H7B 6933   5.885   0.657   9.890  0.7637  0.6017 -0.1096
   61CHL1    C8 6934   5.688   0.604   9.816 -0.4171  0.2006 -0.1074
   61CHL1    H8 6935   5.591   0.653   9.796 -1.2553 -1.0749  0.7400
   61CHL1   C14 6936   5.747   0.547   9.686 -0.7120 -0.0348 -0.1278
   61CHL1   H14 6937   5.844   0.495   9.702 -0.5305 -0.0652 -1.2612
   61CHL1   C15 6938   5.763   0.649   9.577 -0.4349  0.3588  0.3706
   61CHL1  H15A 6939   5.671   0.709   9.561 -1.5072 -1.8007 -1.9238
   61CHL1  H15B 6940   5.849   0.715   9.603  0.4745 -1.0960  1.0734
   61CHL1   C16 6941   5.781   0.570   9.451  0.3019 -0.3411  0.7155
   61CHL1  H16A 6942   5.709   0.596   9.371 -0.4244 -0.7824  1.2248
   61CHL1  H16B 6943   5.889   0.571   9.424  0.0731  1.1576 -0.2428
   61CHL1   C17 6944   5.744   0.416   9.492 -0.1352  0.4969  0.1852
   61CHL1   H17 6945   5.843   0.372   9.516  0.5046  0.4107 -2.4008
   61CHL1   C13 6946   5.667   0.433   9.629 -0.4677 -0.4887  0.5185
   61CHL1   C18 6947   5.516   0.474   9.607  0.1536  0.2411 -0.5447
   61CHL1  H18A 6948   5.459   0.386   9.571  1.3827 -0.5190 -0.6965
   61CHL1  H18B 6949   5.477   0.506   9.705  0.7355  0.3237 -0.3346
   61CHL1  H18C 6950   5.500   0.557   9.534  1.5744  0.0903 -1.0535
   61CHL1   C12 6951   5.671   0.314   9.734 -0.3897 -0.8716 -0.1149
   61CHL1  H12A 6952   5.603   0.235   9.695 -0.2793 -0.2325 -1.6413
   61CHL1  H12B 6953   5.776   0.280   9.748 -0.5110 -1.5401 -0.8054
   61CHL1   C11 6954   5.605   0.353   9.866  0.2181  0.1008 -0.7041
   61CHL1  H11A 6955   5.496   0.372   9.860  0.3994  1.5902  0.5037
   61CHL1  H11B 6956   5.623   0.281   9.948 -1.0039  2.7861  2.0335
   61CHL1    C9 6957   5.661   0.494   9.918 -0.0547 -0.2013 -0.0171
   61CHL1    H9 6958   5.766   0.468   9.945  0.1417  0.8213  0.2385
   61CHL1   C10 6959   5.587   0.538  10.048 -0.2484 -0.4420  0.0495
   61CHL1   C19 6960   5.433   0.566  10.014  0.5863 -0.3879  0.0318
   61CHL1  H19A 6961   5.424   0.622   9.919 -1.4849 -0.5165  0.1238
   61CHL1  H19B 6962   5.381   0.470   9.989 -0.4250  0.4994 -1.3140
   61CHL1  H19C 6963   5.381   0.618  10.098 -0.5652  1.4067 -1.7527
   61CHL1    C1 6964   5.606   0.443  10.169  0.3557  0.0999  0.3371
   61CHL1   H1A 6965   5.563   0.343  10.145  1.1009 -0.0427 -0.4074
   61CHL1   H1B 6966   5.714   0.418  10.175  0.0832 -1.0253  0.9600
   61CHL1    C2 6967   5.576   0.489  10.314  0.0651 -0.0429  0.4610
   61CHL1   H2A 6968   5.611   0.417  10.391  0.1853 -1.2052 -0.6598
   61CHL1   H2B 6969   5.468   0.495  10.336 -0.3419 -1.8134 -0.8984
   61CHL1   C20 6970   5.683   0.334   9.374  0.1170 -0.0907 -0.6901
   61CHL1   H20 6971   5.572   0.340   9.382 -0.1396 -1.8220 -2.4360
   61CHL1   C21 6972   5.730   0.186   9.398  1.0312 -0.3018  0.5604
   61CHL1  H21A 6973   5.665   0.111   9.348  0.6127 -0.2375  1.0064
   61CHL1  H21B 6974   5.720   0.160   9.506 -1.8545 -2.5400 -0.2024
   61CHL1  H21C 6975   5.833   0.156   9.370  0.1286 -0.8722 -2.2701
   61CHL1   C22 6976   5.732   0.375   9.229  0.5989  0.1928 -0.4134
   61CHL1  H22A 6977   5.681   0.305   9.159 -1.4877  2.5563 -1.3269
   61CHL1  H22B 6978   5.694   0.476   9.201  1.2253  0.5673  0.0578
   61CHL1   C23 6979   5.884   0.356   9.202  0.1541 -0.3837 -0.3499
   61CHL1  H23A 6980   5.950   0.397   9.281 -0.8720 -0.1585  0.4164
   61CHL1  H23B 6981   5.903   0.247   9.209  1.9575 -0.0414  0.1873
   61CHL1   C24 6982   5.926   0.407   9.063 -0.2482  0.1611 -0.2690
   61CHL1  H24A 6983   6.036   0.390   9.065 -0.2248  0.3918  2.3427
   61CHL1  H24B 6984   5.882   0.333   8.993 -1.4536  1.0495 -0.4583
   61CHL1   C25 6985   5.899   0.551   9.026 -0.2974 -0.3246  0.0464
   61CHL1   H25 6986   5.789   0.565   9.029 -0.3107 -0.5507  0.7396
   61CHL1   C26 6987   5.955   0.664   9.120 -0.4743 -0.5197 -0.0494
   61CHL1  H26A 6988   5.933   0.763   9.076  0.1931 -0.1737  0.3801
   61CHL1  H26B 6989   5.904   0.639   9.215 -0.0871 -1.6157 -0.1180
   61CHL1  H26C 6990   6.062   0.637   9.139 -0.9887 -2.5191  0.0747
   61CHL1   C27 6991   5.938   0.575   8.881  0.2807  0.1087 -0.6950
   61CHL1  H27A 6992   5.911   0.681   8.866  0.8891  0.2663 -0.7100
   61CHL1  H27B 6993   6.050   0.572   8.882  0.2754 -0.1013 -0.6268
   61CHL1  H27C 6994   5.901   0.510   8.799 -0.5465  0.5295 -0.6543
   62CHL1    C3 6995   0.350   3.792  10.094 -0.3375 -0.7210  0.3500
   62CHL1    H3 6996   0.328   3.684  10.105  0.8748 -0.8448  1.8653
   62CHL1    O3 6997   0.404   3.847  10.215  0.1067 -0.6432 -0.1591
   62CHL1   H3' 6998   0.425   3.940  10.202 -0.6605 -0.4985 -0.3321
   62CHL1    C4 6999   0.455   3.813   9.981  0.0459 -0.4759 -0.2322
   62CHL1   H4A 7000   0.490   3.918   9.975 -2.1450  0.2806 -0.2313
   62CHL1   H4B 7001   0.538   3.745  10.009 -0.6926 -2.2998 -2.3693
   62CHL1    C5 7002   0.400   3.781   9.839 -0.4049  1.0555 -0.8405
   62CHL1    C6 7003   0.458   3.688   9.761  0.1219  0.9314  0.0466
   62CHL1    H6 7004   0.545   3.633   9.799 -0.8310  0.1311  1.1085
   62CHL1    C7 7005   0.399   3.652   9.631  0.0345  0.0786  0.0941
   62CHL1   H7A 7006   0.474   3.637   9.550 -0.5434  1.5850 -0.7489
   62CHL1   H7B 7007   0.339   3.559   9.640 -1.8430  1.2636  0.1492
   62CHL1    C8 7008   0.300   3.754   9.574 -0.7663  0.3030 -0.2576
   62CHL1    H8 7009   0.354   3.845   9.538  1.4908 -0.3981  1.3077
   62CHL1   C14 7010   0.231   3.693   9.436 -0.2739 -0.1636 -0.5635
   62CHL1   H14 7011   0.180   3.597   9.459  2.6012 -1.8911 -1.1785
   62CHL1   C15 7012   0.327   3.648   9.326  0.3516 -0.4384  0.2505
   62CHL1  H15A 7013   0.409   3.723   9.315 -0.4861  0.3040 -1.0520
   62CHL1  H15B 7014   0.380   3.551   9.333  2.2168  0.6571  1.7125
   62CHL1   C16 7015   0.235   3.667   9.194  0.0514  0.0454 -0.0854
   62CHL1  H16A 7016   0.284   3.730   9.117  0.5698 -1.0381 -0.6386
   62CHL1  H16B 7017   0.228   3.563   9.157 -2.0710  0.8354 -2.0399
   62CHL1   C17 7018   0.097   3.716   9.249 -0.0085  0.0244 -1.1845
   62CHL1   H17 7019   0.048   3.623   9.283  1.8683  0.0300  1.6671
   62CHL1   C13 7020   0.131   3.793   9.374 -0.7272 -0.5282 -0.0258
   62CHL1   C18 7021   0.209   3.920   9.335  0.3592 -0.5488  0.1889
   62CHL1  H18A 7022   0.127   3.986   9.301  1.8086  1.5643  0.6775
   62CHL1  H18B 7023   0.262   3.974   9.416  0.5816  0.8500 -0.8778
   62CHL1  H18C 7024   0.276   3.918   9.246  1.3702 -0.8880  0.9387
   62CHL1   C12 7025   0.023   3.822   9.486  0.1236 -0.2323 -0.3698
   62CHL1  H12A 7026  -0.055   3.895   9.457  1.2643  0.4171 -1.8506
   62CHL1  H12B 7027  -0.040   3.733   9.510 -0.9721  0.7369  0.4167
   62CHL1   C11 7028   0.085   3.890   9.608  0.3677 -0.5481 -0.5369
   62CHL1  H11A 7029   0.115   3.997   9.598 -0.0084 -0.4201 -0.3274
   62CHL1  H11B 7030   0.003   3.899   9.684 -0.1869 -3.8106 -0.6976
   62CHL1    C9 7031   0.196   3.802   9.674  0.1458  0.4727  0.2138
   62CHL1    H9 7032   0.150   3.702   9.690 -0.4718  0.6169 -0.5976
   62CHL1   C10 7033   0.272   3.853   9.801  0.0080  1.0895 -0.3357
   62CHL1   C19 7034   0.310   3.999   9.762 -0.2201  0.2259  0.0874
   62CHL1  H19A 7035   0.370   4.007   9.668 -2.0237  2.7480 -0.9077
   62CHL1  H19B 7036   0.226   4.070   9.755  0.0510  0.5042 -0.4302
   62CHL1  H19C 7037   0.372   4.034   9.847 -1.0500 -0.1469  0.8453
   62CHL1    C1 7038   0.168   3.853   9.920  0.1704  0.5383  1.0153
   62CHL1   H1A 7039   0.089   3.928   9.903 -1.1075 -0.8984  0.4620
   62CHL1   H1B 7040   0.121   3.752   9.929  0.2579  0.5000  1.0469
   62CHL1    C2 7041   0.229   3.876  10.060  0.1836 -0.1730  0.4173
   62CHL1   H2A 7042   0.158   3.853  10.142 -1.1773 -1.2824 -1.0426
   62CHL1   H2B 7043   0.264   3.980  10.077  2.2229 -1.1096  2.1341
   62CHL1   C20 7044   0.005   3.777   9.140  0.1253 -0.0087 -0.4277
   62CHL1   H20 7045   0.031   3.884   9.129 -0.5670  0.3412  1.2051
   62CHL1   C21 7046  -0.141   3.775   9.183  0.0005 -0.9136  0.2740
   62CHL1  H21A 7047  -0.175   3.674   9.212 -0.6990 -1.1248 -1.2332
   62CHL1  H21B 7048  -0.212   3.800   9.101  0.6177  0.4209  0.1202
   62CHL1  H21C 7049  -0.145   3.834   9.277  1.1874  1.4305 -1.0816
   62CHL1   C22 7050   0.022   3.715   9.007 -0.2725  0.3522 -0.6012
   62CHL1  H22A 7051   0.060   3.612   8.995 -2.1751 -0.2644 -1.6314
   62CHL1  H22B 7052  -0.078   3.714   8.959  0.8312 -4.7592 -3.0664
   62CHL1   C23 7053   0.099   3.800   8.894  0.2180  0.5430 -0.3636
   62CHL1  H23A 7054   0.015   3.858   8.851 -2.0437 -1.7369  0.8061
   62CHL1  H23B 7055   0.184   3.858   8.936 -0.2142  1.8286 -1.2509
   62CHL1   C24 7056   0.148   3.705   8.777  0.6475 -0.2636  0.3660
   62CHL1  H24A 7057   0.213   3.627   8.822  0.6106 -0.5451 -0.0716
   62CHL1  H24B 7058   0.053   3.668   8.732  0.5661  1.3044 -0.7912
   62CHL1   C25 7059   0.234   3.763   8.666  0.1858 -0.9701  0.8723
   62CHL1   H25 7060   0.321   3.812   8.715  0.2471  0.4948 -0.6712
   62CHL1   C26 7061   0.264   3.652   8.568  0.6286  0.8528 -0.1502
   62CHL1  H26A 7062   0.314   3.694   8.479 -0.3148 -1.6830 -1.9491
   62CHL1  H26B 7063   0.330   3.572   8.610 -0.6849 -1.0198 -1.5513
   62CHL1  H26C 7064   0.169   3.612   8.527  1.7163  0.0044 -1.9014
   62CHL1   C27 7065   0.168   3.888   8.601  0.3374 -1.0425 -0.0839
   62CHL1  H27A 7066   0.059   3.865   8.589  0.2620 -0.0186 -1.5120
   62CHL1  H27B 7067   0.173   3.980   8.663 -0.6974 -0.1457 -1.2848
   62CHL1  H27C 7068   0.207   3.912   8.500 -0.7754  1.0677 -0.0385
   63CHL1    C3 7069   2.148   5.828  10.480 -0.0900 -0.2977 -0.4034
   63CHL1    H3 7070   2.153   5.721  10.452  2.0318  0.2004 -2.0144
   63CHL1    O3 7071   2.188   5.847  10.615  0.4896  0.1357  0.0750
   63CHL1   H3' 7072   2.211   5.940  10.611 -1.9259  0.6801 -2.7142
   63CHL1    C4 7073   2.243   5.908  10.391  0.7037 -0.0838 -0.1687
   63CHL1   H4A 7074   2.232   6.013  10.426  2.4662  0.6093 -1.6121
   63CHL1   H4B 7075   2.349   5.875  10.405  1.5623  1.8110 -1.8900
   63CHL1    C5 7076   2.209   5.888  10.249 -0.1575 -0.5661 -0.5424
   63CHL1    C6 7077   2.286   5.818  10.168  0.5889  0.2208 -0.3181
   63CHL1    H6 7078   2.385   5.791  10.209  0.1888  2.6801  2.4329
   63CHL1    C7 7079   2.264   5.801  10.024 -0.0472  0.1632 -0.0342
   63CHL1   H7A 7080   2.356   5.821   9.965  0.8679  1.8966  1.9109
   63CHL1   H7B 7081   2.244   5.692  10.013 -1.6586  0.4819 -0.3872
   63CHL1    C8 7082   2.147   5.882   9.965  0.5194  0.5038  0.0308
   63CHL1    H8 7083   2.187   5.981   9.936  0.6903  0.7702  1.1361
   63CHL1   C14 7084   2.098   5.822   9.837  0.1889 -0.2315  0.2906
   63CHL1   H14 7085   2.059   5.722   9.867 -0.8140  0.4732  1.4174
   63CHL1   C15 7086   2.200   5.804   9.729 -0.3994 -0.1864 -0.6254
   63CHL1  H15A 7087   2.261   5.893   9.704 -0.7762  0.3701  0.3685
   63CHL1  H15B 7088   2.267   5.717   9.743 -1.9159 -1.3503 -0.4083
   63CHL1   C16 7089   2.110   5.770   9.613 -0.2126 -0.8782  0.2520
   63CHL1  H16A 7090   2.131   5.837   9.528 -1.0193 -0.5960  0.2721
   63CHL1  H16B 7091   2.118   5.666   9.574  1.7973  0.3793 -2.7846
   63CHL1   C17 7092   1.960   5.786   9.655 -0.4043 -0.1173 -0.5978
   63CHL1   H17 7093   1.930   5.692   9.705  0.5912 -0.9082 -1.4508
   63CHL1   C13 7094   1.975   5.888   9.770 -0.1614 -0.1019  0.3315
   63CHL1   C18 7095   2.010   6.031   9.716 -0.1956  0.1465 -0.1909
   63CHL1  H18A 7096   2.110   6.026   9.668 -0.5214 -0.0008 -0.8691
   63CHL1  H18B 7097   1.932   6.066   9.644 -0.3981 -1.1493 -0.6274
   63CHL1  H18C 7098   2.014   6.105   9.799  0.7944  1.4491 -1.3836
   63CHL1   C12 7099   1.856   5.897   9.878 -0.1087 -0.1779 -0.0772
   63CHL1  H12A 7100   1.768   5.950   9.836  0.5178  0.9012 -0.0472
   63CHL1  H12B 7101   1.823   5.795   9.907 -0.8942  0.2691  0.6458
   63CHL1   C11 7102   1.904   5.963  10.013  0.2926  0.0052 -0.3923
   63CHL1  H11A 7103   1.913   6.073   9.997 -0.7403  0.2089  0.3678
   63CHL1  H11B 7104   1.823   5.958  10.089  0.8258  1.2439  0.2729
   63CHL1    C9 7105   2.027   5.892  10.066 -0.1099  0.2120  0.1661
   63CHL1    H9 7106   2.001   5.786  10.088 -0.2134 -0.1500 -1.6526
   63CHL1   C10 7107   2.072   5.938  10.212  0.1368  0.0056  0.5697
   63CHL1   C19 7108   2.077   6.089  10.211 -0.3571 -0.0070 -0.5635
   63CHL1  H19A 7109   1.979   6.136  10.185  0.0782  0.3680 -1.5660
   63CHL1  H19B 7110   2.103   6.134  10.309 -0.3135  1.3777 -1.2066
   63CHL1  H19C 7111   2.158   6.120  10.142 -0.1116 -1.1487 -0.8093
   63CHL1    C1 7112   1.959   5.888  10.318 -0.0766  0.2435  0.1376
   63CHL1   H1A 7113   1.876   5.960  10.304 -0.3689 -0.5281 -2.3004
   63CHL1   H1B 7114   1.939   5.782  10.291 -2.2802  0.2292  1.7347
   63CHL1    C2 7115   1.995   5.877  10.465 -1.0764 -0.8914 -0.4427
   63CHL1   H2A 7116   1.923   5.818  10.526 -1.8622  2.1755  1.6907
   63CHL1   H2B 7117   1.986   5.976  10.514  2.9231 -1.3308  1.4157
   63CHL1   C20 7118   1.863   5.801   9.547 -0.5566 -0.6201 -0.1342
   63CHL1   H20 7119   1.877   5.900   9.498 -0.5239 -0.1909  0.7364
   63CHL1   C21 7120   1.716   5.775   9.590  0.0671  0.3501  0.3275
   63CHL1  H21A 7121   1.687   5.841   9.674 -1.3478  0.5008 -0.2663
   63CHL1  H21B 7122   1.706   5.681   9.648  0.5837 -0.6054 -1.0903
   63CHL1  H21C 7123   1.642   5.778   9.507  0.0412 -0.7686  0.3007
   63CHL1   C22 7124   1.888   5.697   9.432 -0.3086 -0.1761  0.2730
   63CHL1  H22A 7125   1.991   5.705   9.393 -1.0047  0.9355 -1.3713
   63CHL1  H22B 7126   1.869   5.591   9.458  0.1090 -0.3177 -0.0087
   63CHL1   C23 7127   1.813   5.730   9.301  0.2660  0.4713 -0.5674
   63CHL1  H23A 7128   1.706   5.707   9.323  1.2661 -3.8867  0.0062
   63CHL1  H23B 7129   1.833   5.830   9.256  1.7866  1.1312  1.4641
   63CHL1   C24 7130   1.854   5.625   9.194  0.1724 -0.3110  0.6739
   63CHL1  H24A 7131   1.959   5.657   9.179 -0.5139  1.9595  0.6282
   63CHL1  H24B 7132   1.845   5.524   9.240  0.3240 -0.4556  0.3894
   63CHL1   C25 7133   1.787   5.642   9.056 -0.0705  0.0253 -0.1073
   63CHL1   H25 7134   1.789   5.749   9.024 -0.5230  0.8348  2.4276
   63CHL1   C26 7135   1.870   5.562   8.952  0.1763 -0.5827 -0.7843
   63CHL1  H26A 7136   1.845   5.579   8.845  0.1009  2.9228 -0.2889
   63CHL1  H26B 7137   1.979   5.579   8.963 -0.0336 -0.6937  1.7704
   63CHL1  H26C 7138   1.840   5.455   8.959 -0.7904 -0.1288  2.9221
   63CHL1   C27 7139   1.641   5.597   9.065 -0.0402  0.1348  0.9623
   63CHL1  H27A 7140   1.599   5.644   9.156 -0.3784 -1.3032  1.5690
   63CHL1  H27B 7141   1.597   5.632   8.969  0.4034  1.5787  1.2762
   63CHL1  H27C 7142   1.621   5.488   9.076  2.0117 -0.4421 -0.7215
   64CHL1    C3 7143   0.448   5.441   9.997 -0.7758 -0.1252 -0.3893
   64CHL1    H3 7144   0.478   5.334   9.995 -1.7083 -0.4410  1.3919
   64CHL1    O3 7145   0.408   5.467  10.126  0.1893  0.8338  0.7944
   64CHL1   H3' 7146   0.483   5.458  10.185 -0.0825  1.1347  1.1955
   64CHL1    C4 7147   0.575   5.534   9.959  0.3647 -0.4517  0.2859
   64CHL1   H4A 7148   0.566   5.641   9.990  1.0635 -0.0036 -1.0237
   64CHL1   H4B 7149   0.649   5.502  10.035  2.0417  2.8608  0.1339
   64CHL1    C5 7150   0.610   5.516   9.814  0.0756  0.1379  0.2218
   64CHL1    C6 7151   0.740   5.486   9.783  0.2564 -0.2690  0.5687
   64CHL1    H6 7152   0.808   5.480   9.869 -0.2374  0.2956  1.0087
   64CHL1    C7 7153   0.789   5.473   9.640 -0.1531 -0.8288 -0.4741
   64CHL1   H7A 7154   0.885   5.528   9.631 -0.3641 -0.3322  0.2368
   64CHL1   H7B 7155   0.809   5.365   9.625  1.2402 -1.3118  3.9156
   64CHL1    C8 7156   0.687   5.529   9.541  0.0798  0.1600  0.3269
   64CHL1    H8 7157   0.693   5.640   9.545 -0.0926  0.1681  0.3485
   64CHL1   C14 7158   0.726   5.481   9.397  0.1633  0.3895  0.3242
   64CHL1   H14 7159   0.728   5.371   9.407  1.3229  0.3429 -0.2843
   64CHL1   C15 7160   0.872   5.518   9.351 -0.1679 -0.1882  0.3819
   64CHL1  H15A 7161   0.900   5.625   9.362  1.8699 -0.7970  1.3341
   64CHL1  H15B 7162   0.938   5.443   9.399  0.9733  1.1029  0.8528
   64CHL1   C16 7163   0.859   5.478   9.200  0.1211  0.0512 -0.8819
   64CHL1  H16A 7164   0.913   5.553   9.138 -1.2731  1.1607 -0.7647
   64CHL1  H16B 7165   0.909   5.381   9.181 -0.4913 -0.0579 -1.9896
   64CHL1   C17 7166   0.714   5.469   9.164  0.1863  0.3062  0.8162
   64CHL1   H17 7167   0.692   5.360   9.159 -0.5330  0.5340 -1.7693
   64CHL1   C13 7168   0.637   5.523   9.285 -0.0090 -0.4224 -0.2503
   64CHL1   C18 7169   0.636   5.680   9.263  0.3830  0.0236 -0.5859
   64CHL1  H18A 7170   0.622   5.738   9.356  1.5759 -0.3654 -0.1464
   64CHL1  H18B 7171   0.736   5.720   9.233  0.1411  2.0743  1.1917
   64CHL1  H18C 7172   0.555   5.718   9.198 -0.3306  1.2760  1.0233
   64CHL1   C12 7173   0.495   5.478   9.307  0.3293  0.0259 -0.3150
   64CHL1  H12A 7174   0.421   5.509   9.229  0.1754 -0.2496 -0.2805
   64CHL1  H12B 7175   0.503   5.368   9.295  1.7140 -0.0727  1.3737
   64CHL1   C11 7176   0.441   5.519   9.451  0.3015  0.1701 -0.5432
   64CHL1  H11A 7177   0.421   5.628   9.462 -1.8179 -0.1958 -0.5097
   64CHL1  H11B 7178   0.345   5.469   9.476  1.4683 -0.7403  2.3766
   64CHL1    C9 7179   0.539   5.490   9.566 -0.2996  0.2692 -0.4001
   64CHL1    H9 7180   0.560   5.381   9.567 -2.0736 -0.0904  0.0207
   64CHL1   C10 7181   0.496   5.534   9.712 -0.1481  0.6740 -0.1275
   64CHL1   C19 7182   0.469   5.683   9.717 -0.5463  0.1366 -0.3096
   64CHL1  H19A 7183   0.438   5.706   9.821  1.0473  0.9867  0.0038
   64CHL1  H19B 7184   0.561   5.744   9.703 -1.0545  0.3085 -3.0949
   64CHL1  H19C 7185   0.378   5.709   9.660 -1.2975 -0.7074  0.4913
   64CHL1    C1 7186   0.368   5.463   9.757 -0.4112 -0.4922 -0.1106
   64CHL1   H1A 7187   0.287   5.497   9.689 -0.5936  0.6416  0.6667
   64CHL1   H1B 7188   0.370   5.353   9.740  0.1004 -0.5415  0.2647
   64CHL1    C2 7189   0.328   5.474   9.902  0.2330 -0.3210  0.0660
   64CHL1   H2A 7190   0.239   5.410   9.917 -0.6366  0.6634 -0.7258
   64CHL1   H2B 7191   0.303   5.581   9.922  0.6161 -0.1785 -0.2016
   64CHL1   C20 7192   0.681   5.519   9.026 -0.5247  0.1605 -0.1873
   64CHL1   H20 7193   0.697   5.629   9.024 -1.1387  0.3913  3.9193
   64CHL1   C21 7194   0.534   5.489   8.987 -0.5463 -0.3779  0.1633
   64CHL1  H21A 7195   0.508   5.383   9.010  0.7941 -0.6353  0.5088
   64CHL1  H21B 7196   0.501   5.500   8.881  1.9333  1.5815 -0.4572
   64CHL1  H21C 7197   0.465   5.556   9.041 -0.0482  1.1402 -1.0532
   64CHL1   C22 7198   0.763   5.458   8.911  0.2513 -0.7050  0.2314
   64CHL1  H22A 7199   0.870   5.488   8.921 -0.3956  2.7526 -2.4533
   64CHL1  H22B 7200   0.761   5.347   8.910 -2.0883 -0.6713 -3.2360
   64CHL1   C23 7201   0.709   5.482   8.767 -0.4595  0.5015 -0.4484
   64CHL1  H23A 7202   0.615   5.429   8.741 -1.3233  0.1438  3.2359
   64CHL1  H23B 7203   0.685   5.590   8.759  1.5513  1.2148  2.4964
   64CHL1   C24 7204   0.817   5.450   8.661 -0.6232 -0.3459 -0.7445
   64CHL1  H24A 7205   0.915   5.492   8.692 -1.2810 -0.5245  1.6574
   64CHL1  H24B 7206   0.815   5.339   8.670 -1.7068 -0.3187 -0.6147
   64CHL1   C25 7207   0.790   5.489   8.517  0.8213  1.0610  0.4391
   64CHL1   H25 7208   0.692   5.442   8.495  0.8653 -0.0255  2.4871
   64CHL1   C26 7209   0.780   5.635   8.499 -0.0396  0.6343 -0.1111
   64CHL1  H26A 7210   0.729   5.649   8.401 -1.2083 -2.6687 -0.0486
   64CHL1  H26B 7211   0.709   5.666   8.578 -0.8474 -2.2880  0.3743
   64CHL1  H26C 7212   0.879   5.683   8.510  0.2056  0.1930 -0.3465
   64CHL1   C27 7213   0.889   5.405   8.435 -0.7150  0.1935  0.7634
   64CHL1  H27A 7214   0.897   5.298   8.467  0.5790  0.3302  0.9395
   64CHL1  H27B 7215   0.848   5.403   8.332 -1.5481  0.5505  1.0933
   64CHL1  H27C 7216   0.992   5.447   8.435 -0.2673 -0.8247 -0.8203
   65CHL1    C3 7217   2.687   2.233  10.272 -0.3274 -0.3663  0.5107
   65CHL1    H3 7218   2.662   2.126  10.257  0.3343 -0.6716  1.5005
   65CHL1    O3 7219   2.694   2.258  10.410 -0.8028 -0.1490 -0.2605
   65CHL1   H3' 7220   2.735   2.345  10.419  0.4961 -0.6920 -0.7405
   65CHL1    C4 7221   2.826   2.257  10.205 -0.2401 -0.2052  0.6505
   65CHL1   H4A 7222   2.863   2.358  10.232 -0.9993  0.7804 -1.8240
   65CHL1   H4B 7223   2.895   2.183  10.249  0.9715 -0.4363 -1.5750
   65CHL1    C5 7224   2.823   2.246  10.057  0.1286  0.2856 -0.5965
   65CHL1    C6 7225   2.915   2.162   9.997  0.3460 -0.3115 -0.7018
   65CHL1    H6 7226   2.987   2.103  10.056  1.2470 -0.4708 -1.9234
   65CHL1    C7 7227   2.929   2.153   9.847  0.0535  0.5835  0.1217
   65CHL1   H7A 7228   3.034   2.135   9.814 -0.3489  1.5962 -1.7628
   65CHL1   H7B 7229   2.873   2.060   9.822 -0.0225  1.4645 -3.2373
   65CHL1    C8 7230   2.853   2.258   9.765  0.7042 -0.1111 -0.5326
   65CHL1    H8 7231   2.909   2.354   9.755 -1.2083  0.9702 -0.9950
   65CHL1   C14 7232   2.825   2.209   9.624  0.6448 -0.0770  0.3660
   65CHL1   H14 7233   2.759   2.119   9.624  3.1915 -2.0175  0.3957
   65CHL1   C15 7234   2.946   2.156   9.546  0.0426 -0.8656 -0.0314
   65CHL1  H15A 7235   3.031   2.227   9.555 -0.0081 -1.0180  1.8717
   65CHL1  H15B 7236   2.970   2.055   9.586 -0.6912 -1.2053 -0.4418
   65CHL1   C16 7237   2.897   2.147   9.396 -0.2221 -0.0512 -0.5903
   65CHL1  H16A 7238   2.970   2.203   9.333  0.4638  0.6085  0.7571
   65CHL1  H16B 7239   2.886   2.041   9.365  1.2989 -1.3582  3.0859
   65CHL1   C17 7240   2.760   2.224   9.395 -0.0350 -1.1162  0.5582
   65CHL1   H17 7241   2.675   2.155   9.412 -0.7115 -0.3257  0.4049
   65CHL1   C13 7242   2.754   2.301   9.527  0.4881 -0.5033  0.2105
   65CHL1   C18 7243   2.837   2.435   9.499 -0.2446 -0.1340 -0.8565
   65CHL1  H18A 7244   2.775   2.499   9.434 -0.4782 -1.0736 -1.5784
   65CHL1  H18B 7245   2.864   2.485   9.594 -2.2092 -2.3325  0.9109
   65CHL1  H18C 7246   2.928   2.402   9.443  0.8583  0.4235  0.5800
   65CHL1   C12 7247   2.615   2.337   9.585  0.3674  0.1923  0.2384
   65CHL1  H12A 7248   2.559   2.422   9.541  2.0896  0.6455 -1.1459
   65CHL1  H12B 7249   2.544   2.252   9.587  1.9265 -1.1307  0.1517
   65CHL1   C11 7250   2.644   2.393   9.731  0.1045 -0.4344 -0.1593
   65CHL1  H11A 7251   2.703   2.486   9.719  0.8800 -1.0924 -1.4781
   65CHL1  H11B 7252   2.544   2.421   9.772  0.6437  1.6989 -0.2402
   65CHL1    C9 7253   2.715   2.290   9.826  0.1822  0.4699  0.3923
   65CHL1    H9 7254   2.652   2.199   9.828  2.4256 -1.1097  1.4634
   65CHL1   C10 7255   2.716   2.330   9.973 -1.2665 -0.3510 -0.9845
   65CHL1   C19 7256   2.750   2.484   9.976 -0.3482  0.3771 -0.7484
   65CHL1  H19A 7257   2.668   2.539   9.924 -0.1518  1.8936  0.4823
   65CHL1  H19B 7258   2.750   2.528  10.078 -1.3990 -0.2314 -0.4721
   65CHL1  H19C 7259   2.844   2.502   9.920 -0.9379 -1.3199 -2.3045
   65CHL1    C1 7260   2.579   2.305  10.047  0.7120 -0.5311  0.5967
   65CHL1   H1A 7261   2.511   2.381  10.002 -0.3139 -2.1511 -0.6484
   65CHL1   H1B 7262   2.531   2.209  10.021 -1.5150  0.9590 -0.9615
   65CHL1    C2 7263   2.584   2.326  10.199  0.5098  0.0577 -0.9983
   65CHL1   H2A 7264   2.483   2.300  10.238  0.7731  0.3420 -0.1298
   65CHL1   H2B 7265   2.615   2.425  10.238 -0.2348 -1.3831  3.5262
   65CHL1   C20 7266   2.702   2.289   9.266  0.0572 -0.2050  0.2167
   65CHL1   H20 7267   2.615   2.349   9.302 -0.3864 -0.6622 -0.0823
   65CHL1   C21 7268   2.654   2.171   9.179 -0.1064 -0.3182  1.0386
   65CHL1  H21A 7269   2.557   2.126   9.208 -0.7195  1.2228  1.4300
   65CHL1  H21B 7270   2.728   2.090   9.164 -1.3081 -1.6858  2.3672
   65CHL1  H21C 7271   2.637   2.215   9.078 -0.5560 -1.3979  0.6431
   65CHL1   C22 7272   2.806   2.368   9.173  0.1921  0.2538 -0.8764
   65CHL1  H22A 7273   2.875   2.430   9.234 -0.8355  1.7377 -1.1977
   65CHL1  H22B 7274   2.862   2.293   9.114  1.4484 -0.3830  1.0536
   65CHL1   C23 7275   2.746   2.474   9.073  0.7222  0.3643 -0.7873
   65CHL1  H23A 7276   2.660   2.418   9.029  1.1374 -1.4012  0.5762
   65CHL1  H23B 7277   2.703   2.567   9.116 -0.2241 -0.6487  0.5153
   65CHL1   C24 7278   2.854   2.522   8.969  0.0634  0.0320 -0.8647
   65CHL1  H24A 7279   2.909   2.604   9.019  0.6289 -0.1515 -1.1820
   65CHL1  H24B 7280   2.926   2.438   8.960  0.1854  0.2155 -1.6784
   65CHL1   C25 7281   2.811   2.540   8.819  1.0055 -0.0750  0.0201
   65CHL1   H25 7282   2.738   2.623   8.803  1.3834  0.1805 -0.4202
   65CHL1   C26 7283   2.932   2.589   8.742  0.0308 -0.0366 -0.1648
   65CHL1  H26A 7284   3.013   2.514   8.748 -0.7889 -1.1791 -2.7379
   65CHL1  H26B 7285   2.895   2.597   8.638 -0.4856 -0.4882 -0.0202
   65CHL1  H26C 7286   2.979   2.681   8.782 -0.5593  0.2501 -0.1259
   65CHL1   C27 7287   2.764   2.409   8.754  0.4679  0.0902 -0.6992
   65CHL1  H27A 7288   2.845   2.333   8.764  0.5905  0.5345  2.1754
   65CHL1  H27B 7289   2.662   2.381   8.786  0.1090  0.2832 -1.6619
   65CHL1  H27C 7290   2.751   2.412   8.644  0.4777 -0.3580 -0.7145
   66CHL1    C3 7291   1.228   0.322  10.439 -0.1818 -0.2348 -0.3195
   66CHL1    H3 7292   1.256   0.217  10.415  0.2503 -0.1571 -0.1529
   66CHL1    O3 7293   1.228   0.320  10.581  0.5955  0.0691 -0.0888
   66CHL1   H3' 7294   1.139   0.345  10.604  0.8150  0.2497  0.5641
   66CHL1    C4 7295   1.318   0.432  10.379 -0.7190  0.3257 -0.0036
   66CHL1   H4A 7296   1.293   0.531  10.423 -1.0096 -1.0324  2.9653
   66CHL1   H4B 7297   1.424   0.412  10.407 -0.1373  0.3255 -2.0928
   66CHL1    C5 7298   1.299   0.444  10.227  0.7596 -0.3573  0.1873
   66CHL1    C6 7299   1.409   0.455  10.142  0.2910 -0.0320  0.4451
   66CHL1    H6 7300   1.510   0.463  10.184  0.9287 -1.9659 -0.6533
   66CHL1    C7 7301   1.414   0.474   9.991  0.7040 -0.2616  0.0240
   66CHL1   H7A 7302   1.479   0.554   9.949  1.1464 -0.9521 -0.6073
   66CHL1   H7B 7303   1.432   0.375   9.945 -1.7533 -0.0728 -1.4709
   66CHL1    C8 7304   1.272   0.514   9.938  0.7990  0.1607 -0.1545
   66CHL1    H8 7305   1.252   0.621   9.961  2.7278  0.2363  1.3745
   66CHL1   C14 7306   1.258   0.483   9.786 -0.2851  0.2599 -0.2184
   66CHL1   H14 7307   1.266   0.372   9.786  0.5905  0.3010  1.2826
   66CHL1   C15 7308   1.364   0.531   9.687 -0.4425 -0.2501  0.0926
   66CHL1  H15A 7309   1.409   0.626   9.723  0.4950 -1.3038  1.7620
   66CHL1  H15B 7310   1.441   0.451   9.681  0.2274  0.4184 -0.3644
   66CHL1   C16 7311   1.302   0.537   9.545  0.4592 -0.0026  0.3565
   66CHL1  H16A 7312   1.295   0.639   9.502 -2.6561 -0.2969  0.0180
   66CHL1  H16B 7313   1.351   0.465   9.476  1.4854  1.0217 -0.0066
   66CHL1   C17 7314   1.154   0.485   9.569 -0.7057 -0.0871  0.7686
   66CHL1   H17 7315   1.160   0.376   9.551 -0.3221  0.0735 -0.1179
   66CHL1   C13 7316   1.126   0.513   9.719  1.0580  0.0260  0.0796
   66CHL1   C18 7317   1.082   0.660   9.741  0.2542  0.0607  0.4446
   66CHL1  H18A 7318   1.068   0.684   9.849  2.6341 -0.8367  0.9900
   66CHL1  H18B 7319   1.156   0.735   9.706 -2.2012  2.5621  0.3915
   66CHL1  H18C 7320   0.985   0.676   9.689 -1.0019 -3.0986  1.6801
   66CHL1   C12 7321   1.022   0.417   9.795  0.4291  0.6874  0.7900
   66CHL1  H12A 7322   0.917   0.435   9.765  0.1522 -3.2096 -0.7538
   66CHL1  H12B 7323   1.046   0.309   9.786  0.7481  0.7586  0.7568
   66CHL1   C11 7324   1.018   0.437   9.942 -1.3506  0.6827  0.5166
   66CHL1  H11A 7325   0.984   0.541   9.965  0.0531  1.0693  0.8901
   66CHL1  H11B 7326   0.946   0.372   9.997 -1.6441  0.2827 -0.3395
   66CHL1    C9 7327   1.162   0.423  10.009 -0.5485 -0.3149 -0.4381
   66CHL1    H9 7328   1.209   0.323  10.002  0.4900  0.0245  1.3967
   66CHL1   C10 7329   1.155   0.453  10.162  0.1278 -0.5705 -0.0843
   66CHL1   C19 7330   1.088   0.586  10.196  0.3921 -0.5741  0.7285
   66CHL1  H19A 7331   0.983   0.602  10.162  0.7431 -0.7558 -0.4714
   66CHL1  H19B 7332   1.090   0.626  10.300 -1.1867  0.4374  0.4032
   66CHL1  H19C 7333   1.144   0.666  10.142 -1.9060  0.8738  0.3992
   66CHL1    C1 7334   1.077   0.336  10.229 -0.7095 -0.0780 -0.0971
   66CHL1   H1A 7335   0.970   0.357  10.208 -0.6518 -0.5124 -0.8534
   66CHL1   H1B 7336   1.116   0.245  10.178  0.7809  0.8550 -0.6494
   66CHL1    C2 7337   1.088   0.327  10.388  0.2432  0.7107  0.2474
   66CHL1   H2A 7338   1.026   0.241  10.423 -0.6848  1.2823  0.0023
   66CHL1   H2B 7339   1.042   0.419  10.430 -1.1623  1.2352 -2.3634
   66CHL1   C20 7340   1.055   0.540   9.466  0.1342  0.1553  0.1333
   66CHL1   H20 7341   1.031   0.648   9.464 -1.7243 -0.2625 -1.0953
   66CHL1   C21 7342   0.923   0.471   9.500  1.2853 -0.1631  0.1073
   66CHL1  H21A 7343   0.875   0.518   9.589  0.3242 -0.9827  0.0325
   66CHL1  H21B 7344   0.933   0.363   9.521  0.6575  0.1240  1.9500
   66CHL1  H21C 7345   0.852   0.493   9.417  0.7566  1.7124  1.0192
   66CHL1   C22 7346   1.093   0.508   9.319 -1.1525 -0.1860 -0.0589
   66CHL1  H22A 7347   1.197   0.543   9.303 -1.0896  0.0435  0.8523
   66CHL1  H22B 7348   1.092   0.397   9.309 -0.5723 -0.0129 -2.5401
   66CHL1   C23 7349   1.009   0.576   9.200 -0.6990  0.6749  0.3323
   66CHL1  H23A 7350   0.904   0.540   9.205 -1.6883  2.9648 -2.5265
   66CHL1  H23B 7351   1.005   0.684   9.228 -2.8139  0.4156  1.0868
   66CHL1   C24 7352   1.079   0.553   9.067  0.2581  0.5581  0.3682
   66CHL1  H24A 7353   1.178   0.603   9.074  0.9194 -1.0123  3.1986
   66CHL1  H24B 7354   1.096   0.445   9.046  0.4768  0.4039  1.3204
   66CHL1   C25 7355   1.004   0.606   8.947 -0.7745 -0.1086  0.6383
   66CHL1   H25 7356   0.897   0.586   8.971 -0.9511 -0.0810 -0.1163
   66CHL1   C26 7357   1.030   0.761   8.937 -0.1065 -0.5001  0.3234
   66CHL1  H26A 7358   1.140   0.769   8.948  0.0143 -1.2507 -0.3122
   66CHL1  H26B 7359   0.987   0.804   8.844 -0.1714 -0.5780  0.3181
   66CHL1  H26C 7360   0.981   0.809   9.025  3.3568  0.0886  1.9952
   66CHL1   C27 7361   1.049   0.533   8.824 -0.2401 -1.0391  0.1459
   66CHL1  H27A 7362   1.036   0.423   8.833 -2.1338 -0.8483  0.0255
   66CHL1  H27B 7363   0.985   0.574   8.743  0.8442  1.8530  0.6906
   66CHL1  H27C 7364   1.158   0.553   8.813 -0.3143 -1.4708 -1.4713
   67CHL1    C3 7365   5.010   0.855  10.365 -0.4039 -0.3256  0.5839
   67CHL1    H3 7366   5.107   0.907  10.348 -0.0886 -1.2653 -0.6700
   67CHL1    O3 7367   4.981   0.871  10.507 -0.0525  0.1970  1.1528
   67CHL1   H3' 7368   4.896   0.828  10.517 -1.7340  3.5894  2.2192
   67CHL1    C4 7369   4.890   0.906  10.288  0.5268 -0.2754 -0.4764
   67CHL1   H4A 7370   4.796   0.865  10.331 -0.1826  3.3548  1.6570
   67CHL1   H4B 7371   4.864   1.007  10.326  0.6285  1.1194 -3.9845
   67CHL1    C5 7372   4.911   0.901  10.138  0.6554 -0.7645 -0.2708
   67CHL1    C6 7373   4.911   1.014  10.067  0.0941  0.0304 -0.0832
   67CHL1    H6 7374   4.877   1.114  10.100 -2.5495 -0.4645 -1.1812
   67CHL1    C7 7375   4.936   1.006   9.918  0.8349 -0.3238 -0.3436
   67CHL1   H7A 7376   4.877   1.077   9.856  0.2254 -0.6985 -0.1884
   67CHL1   H7B 7377   5.040   1.032   9.889  0.2083  0.8859 -1.5461
   67CHL1    C8 7378   4.915   0.874   9.846  0.3298  0.6455 -0.4624
   67CHL1    H8 7379   4.806   0.853   9.851  0.7820 -1.3925  1.6833
   67CHL1   C14 7380   4.960   0.872   9.700  0.0963  1.1368 -1.1562
   67CHL1   H14 7381   5.069   0.895   9.702  0.9539 -2.6928  1.0574
   67CHL1   C15 7382   4.892   0.974   9.608 -0.1777 -0.0414 -0.4674
   67CHL1  H15A 7383   4.787   0.965   9.642 -0.0492  1.1845  0.3026
   67CHL1  H15B 7384   4.925   1.077   9.633  1.5874 -0.4920 -0.8326
   67CHL1   C16 7385   4.914   0.923   9.470 -1.0150 -0.0658 -0.2667
   67CHL1  H16A 7386   4.819   0.930   9.414 -1.7989 -1.9425  0.7913
   67CHL1  H16B 7387   5.003   0.974   9.427  0.2024 -0.5005  1.6933
   67CHL1   C17 7388   4.965   0.770   9.488 -1.1904  0.0615 -0.0909
   67CHL1   H17 7389   5.076   0.769   9.494 -1.0143  2.7098 -2.3006
   67CHL1   C13 7390   4.936   0.737   9.638 -0.4482 -0.3236 -0.1279
   67CHL1   C18 7391   4.783   0.698   9.646  0.1247 -1.3439 -0.0357
   67CHL1  H18A 7392   4.774   0.589   9.623 -1.5228 -0.8566 -1.8669
   67CHL1  H18B 7393   4.751   0.699   9.752 -0.6077  3.1950 -0.2239
   67CHL1  H18C 7394   4.713   0.761   9.587  2.0248  0.1740 -0.7506
   67CHL1   C12 7395   5.024   0.636   9.713  0.3492 -0.6229  0.4998
   67CHL1  H12A 7396   5.006   0.537   9.666 -2.6430  0.4381 -0.6878
   67CHL1  H12B 7397   5.131   0.666   9.704  0.3241 -1.2483 -2.2729
   67CHL1   C11 7398   4.989   0.630   9.864  1.0879  0.1587 -0.5624
   67CHL1  H11A 7399   4.888   0.584   9.874  1.3675 -0.1431  1.1054
   67CHL1  H11B 7400   5.054   0.560   9.921  0.5854 -2.4409 -3.0743
   67CHL1    C9 7401   4.987   0.766   9.933 -0.3845  0.3866  0.1647
   67CHL1    H9 7402   5.093   0.800   9.928 -0.0324 -0.6859  0.4299
   67CHL1   C10 7403   4.941   0.766  10.080  0.2125  0.2558  0.6049
   67CHL1   C19 7404   4.808   0.699  10.090  0.3090  0.1642  0.7795
   67CHL1  H19A 7405   4.769   0.675  10.191 -1.1681  3.6399  1.0805
   67CHL1  H19B 7406   4.727   0.748  10.031  2.2346  0.9438 -1.2891
   67CHL1  H19C 7407   4.822   0.593  10.057 -0.9645  0.5391 -1.0264
   67CHL1    C1 7408   5.050   0.691  10.168  0.2049  0.6099  0.0023
   67CHL1   H1A 7409   5.071   0.584  10.144 -2.8349 -0.2009  0.6312
   67CHL1   H1B 7410   5.146   0.742  10.145  0.0687  0.1672 -1.6052
   67CHL1    C2 7411   5.033   0.712  10.319  0.2889  0.1209  0.1888
   67CHL1   H2A 7412   5.122   0.671  10.371 -0.4243 -1.2764  0.3639
   67CHL1   H2B 7413   4.943   0.648  10.335 -0.9391  1.6890 -0.3142
   67CHL1   C20 7414   4.924   0.680   9.370 -0.3403  0.2672 -0.1317
   67CHL1   H20 7415   4.814   0.670   9.377 -0.1365 -2.6947 -0.4151
   67CHL1   C21 7416   4.981   0.544   9.376 -1.2019 -0.0606 -0.2153
   67CHL1  H21A 7417   5.092   0.553   9.367 -0.9693 -1.8585  0.7053
   67CHL1  H21B 7418   4.938   0.483   9.294  1.2450 -0.2315 -1.4302
   67CHL1  H21C 7419   4.950   0.492   9.469  0.3977 -0.4713  0.1170
   67CHL1   C22 7420   4.949   0.732   9.230  0.1423 -0.0524 -0.1250
   67CHL1  H22A 7421   4.941   0.843   9.238  0.5450 -0.1635  2.2839
   67CHL1  H22B 7422   5.057   0.711   9.214  0.0582 -2.1759  1.8519
   67CHL1   C23 7423   4.859   0.697   9.108  0.3646  0.0712  0.3561
   67CHL1  H23A 7424   4.867   0.589   9.083  1.0533  0.5990 -1.7188
   67CHL1  H23B 7425   4.758   0.718   9.151 -1.0291 -0.8952 -2.3175
   67CHL1   C24 7426   4.878   0.774   8.973  0.0612 -0.1869 -0.2973
   67CHL1  H24A 7427   4.824   0.871   8.976 -1.0102 -0.7653 -0.6561
   67CHL1  H24B 7428   4.981   0.798   8.941 -0.8512  1.2992 -2.1637
   67CHL1   C25 7429   4.825   0.700   8.847 -0.4015 -0.2731 -0.1562
   67CHL1   H25 7430   4.856   0.594   8.836 -1.0371 -0.3636 -1.0454
   67CHL1   C26 7431   4.669   0.702   8.844  0.3755 -0.0409  0.5135
   67CHL1  H26A 7432   4.631   0.666   8.746  1.4138  1.7404 -0.5792
   67CHL1  H26B 7433   4.615   0.664   8.933 -1.8394  1.9384  0.0781
   67CHL1  H26C 7434   4.651   0.812   8.844 -1.0220 -0.2616 -0.1915
   67CHL1   C27 7435   4.883   0.771   8.727 -0.3326  0.1241  0.1983
   67CHL1  H27A 7436   4.837   0.732   8.634  1.4300 -0.2306 -0.5499
   67CHL1  H27B 7437   4.865   0.880   8.719  1.2360  0.4157  0.3789
   67CHL1  H27C 7438   4.992   0.757   8.709 -0.7715 -2.5648 -0.7105
   68CHL1    C3 7439   2.594   1.717  10.415  0.4648  0.4567 -0.1009
   68CHL1    H3 7440   2.654   1.624  10.420 -1.3828 -0.7937 -0.5325
   68CHL1    O3 7441   2.561   1.762  10.542 -0.0190 -0.3760 -0.2756
   68CHL1   H3' 7442   2.535   1.854  10.539  0.3840 -0.2749 -0.8752
   68CHL1    C4 7443   2.664   1.834  10.344  0.5533  0.1532 -0.4604
   68CHL1   H4A 7444   2.607   1.929  10.355  1.9784  0.9818 -0.0304
   68CHL1   H4B 7445   2.759   1.851  10.399  0.6868 -0.5178 -0.4831
   68CHL1    C5 7446   2.687   1.794  10.197  0.0252  0.1019  0.1372
   68CHL1    C6 7447   2.806   1.788  10.143  0.4248 -0.3754 -0.2917
   68CHL1    H6 7448   2.888   1.820  10.210 -0.2077 -2.6421  1.6288
   68CHL1    C7 7449   2.836   1.766   9.999 -0.0558  0.3560 -0.0037
   68CHL1   H7A 7450   2.905   1.839   9.951  1.4620 -1.4628 -0.6587
   68CHL1   H7B 7451   2.878   1.665   9.978 -2.9377 -0.5673 -1.5546
   68CHL1    C8 7452   2.711   1.770   9.914  0.4820 -0.2783  0.2251
   68CHL1    H8 7453   2.686   1.876   9.893  0.5250 -0.4798 -0.8586
   68CHL1   C14 7454   2.737   1.716   9.771 -0.2614 -0.2355 -0.2807
   68CHL1   H14 7455   2.757   1.609   9.791  0.8476 -0.0256 -0.2375
   68CHL1   C15 7456   2.859   1.770   9.694  0.3837  0.1108 -0.3108
   68CHL1  H15A 7457   2.852   1.881   9.691 -0.4037  0.1525  2.2494
   68CHL1  H15B 7458   2.954   1.745   9.746 -0.8214 -1.8686  1.0463
   68CHL1   C16 7459   2.840   1.699   9.555 -0.2649 -0.4547 -0.0827
   68CHL1  H16A 7460   2.830   1.775   9.475 -1.7436 -0.3570  0.1822
   68CHL1  H16B 7461   2.912   1.617   9.536 -0.2859 -0.6421  0.6048
   68CHL1   C17 7462   2.696   1.629   9.551  0.3404  0.6997 -0.5975
   68CHL1   H17 7463   2.709   1.521   9.575 -1.2134  0.6602  0.1307
   68CHL1   C13 7464   2.627   1.698   9.674  0.7305  0.7113  0.0752
   68CHL1   C18 7465   2.574   1.837   9.626  0.1850  0.2780  0.4576
   68CHL1  H18A 7466   2.641   1.870   9.544  2.8897 -1.4260  1.8781
   68CHL1  H18B 7467   2.469   1.829   9.592 -0.3539  0.3997  2.0774
   68CHL1  H18C 7468   2.584   1.920   9.699  0.1168 -1.2331  2.2323
   68CHL1   C12 7469   2.519   1.619   9.741  0.5296  0.3321 -0.6841
   68CHL1  H12A 7470   2.428   1.610   9.678 -0.0282  0.1543  0.1326
   68CHL1  H12B 7471   2.564   1.519   9.754 -0.3351 -0.1497 -1.4118
   68CHL1   C11 7472   2.478   1.687   9.879  0.1252  0.7447 -0.0944
   68CHL1  H11A 7473   2.438   1.788   9.854  0.6075  1.1745  0.8559
   68CHL1  H11B 7474   2.394   1.624   9.915  0.4295  0.5633  0.3012
   68CHL1    C9 7475   2.594   1.694   9.976 -0.3625 -0.1415  0.7904
   68CHL1    H9 7476   2.626   1.589   9.993 -0.7022 -1.0322 -3.4933
   68CHL1   C10 7477   2.563   1.753  10.118 -0.3126  0.4207  0.0460
   68CHL1   C19 7478   2.464   1.869  10.098 -0.3144  0.5941 -0.1220
   68CHL1  H19A 7479   2.507   1.949  10.034  2.7401 -1.9348 -1.3660
   68CHL1  H19B 7480   2.370   1.829  10.055  0.4698 -1.4089 -0.0472
   68CHL1  H19C 7481   2.439   1.916  10.195  1.2923  1.0101  0.1140
   68CHL1    C1 7482   2.485   1.651  10.207  0.2590  0.1411  0.4037
   68CHL1   H1A 7483   2.386   1.629  10.161  1.9396 -1.1729 -2.7639
   68CHL1   H1B 7484   2.539   1.555  10.192 -1.4766 -0.8036  0.0161
   68CHL1    C2 7485   2.460   1.694  10.350  0.2590 -0.5115  0.1786
   68CHL1   H2A 7486   2.401   1.612  10.395 -2.1105 -1.4837 -4.3239
   68CHL1   H2B 7487   2.401   1.787  10.333  0.4969 -0.2348  0.8465
   68CHL1   C20 7488   2.634   1.631   9.416 -0.6135  0.0160  0.5642
   68CHL1   H20 7489   2.623   1.737   9.386  2.5620 -0.1234 -1.3644
   68CHL1   C21 7490   2.494   1.557   9.405 -0.5751  0.4287 -0.1260
   68CHL1  H21A 7491   2.484   1.555   9.295 -2.6835 -1.4536  0.0633
   68CHL1  H21B 7492   2.410   1.614   9.451 -1.8788 -0.8759 -0.8554
   68CHL1  H21C 7493   2.503   1.449   9.428  0.0340 -0.1946 -3.1619
   68CHL1   C22 7494   2.737   1.566   9.308  0.5456  0.1154 -0.4786
   68CHL1  H22A 7495   2.841   1.599   9.324  0.3943 -0.1470  1.0816
   68CHL1  H22B 7496   2.729   1.455   9.311  2.3985 -0.0222 -0.2323
   68CHL1   C23 7497   2.707   1.606   9.165 -0.0322 -0.0427 -0.5245
   68CHL1  H23A 7498   2.641   1.527   9.124  1.8626 -0.7823 -2.2049
   68CHL1  H23B 7499   2.665   1.709   9.157  0.2852  0.0405 -1.1343
   68CHL1   C24 7500   2.834   1.607   9.078  0.1287  1.2240 -0.0873
   68CHL1  H24A 7501   2.891   1.696   9.111  0.6966 -0.1493  2.8317
   68CHL1  H24B 7502   2.905   1.525   9.101 -0.7082  1.4895  3.9382
   68CHL1   C25 7503   2.792   1.612   8.929  0.1137 -0.2911  1.0807
   68CHL1   H25 7504   2.887   1.624   8.872 -1.6612 -1.1906 -2.2446
   68CHL1   C26 7505   2.737   1.483   8.855  0.1816 -0.0840 -0.8759
   68CHL1  H26A 7506   2.746   1.484   8.744  1.2757  1.4683 -0.7903
   68CHL1  H26B 7507   2.800   1.394   8.875  1.2179  0.8729  0.2453
   68CHL1  H26C 7508   2.633   1.454   8.879  0.1312  0.2181 -0.7157
   68CHL1   C27 7509   2.697   1.720   8.899 -0.4587  0.0764  0.1490
   68CHL1  H27A 7510   2.685   1.740   8.791  1.4424 -1.6031 -0.4067
   68CHL1  H27B 7511   2.593   1.698   8.931 -1.4098  2.2636 -1.3372
   68CHL1  H27C 7512   2.730   1.812   8.952  0.1613  0.6076 -1.1424
   69CHL1    C3 7513   2.280   6.425   6.877  1.0820 -0.4602 -0.3122
   69CHL1    H3 7514   2.298   6.533   6.861 -0.2869 -0.2938 -0.8172
   69CHL1    O3 7515   2.285   6.361   6.752 -0.2369  0.9263  0.2862
   69CHL1   H3' 7516   2.223   6.406   6.694 -1.2637 -3.9924 -2.7437
   69CHL1    C4 7517   2.392   6.355   6.959 -0.6634 -0.5913 -0.1315
   69CHL1   H4A 7518   2.364   6.247   6.959  0.7808 -0.9901  2.3909
   69CHL1   H4B 7519   2.491   6.367   6.909  0.4396  1.0957  2.3950
   69CHL1    C5 7520   2.395   6.410   7.103  0.3722 -0.4642  0.2685
   69CHL1    C6 7521   2.510   6.452   7.162 -0.0137  0.0445 -0.3003
   69CHL1    H6 7522   2.604   6.444   7.106 -0.4452  0.3072 -1.0692
   69CHL1    C7 7523   2.518   6.499   7.302 -0.3924 -0.9305  0.4185
   69CHL1   H7A 7524   2.608   6.460   7.355  1.4353  2.1613 -0.3315
   69CHL1   H7B 7525   2.535   6.608   7.298 -3.2223 -0.4977 -0.6117
   69CHL1    C8 7526   2.390   6.467   7.385 -0.1755 -0.0255 -0.1634
   69CHL1    H8 7527   2.406   6.363   7.419 -2.3786 -0.4984 -0.5153
   69CHL1   C14 7528   2.387   6.563   7.501  0.4984 -0.1603 -0.4069
   69CHL1   H14 7529   2.374   6.665   7.457 -0.8777 -0.1390  0.0194
   69CHL1   C15 7530   2.512   6.574   7.589  0.0645 -0.2937 -0.1500
   69CHL1  H15A 7531   2.533   6.473   7.631  2.1381  0.2781  0.2112
   69CHL1  H15B 7532   2.603   6.614   7.539  1.1647  0.2015  2.1676
   69CHL1   C16 7533   2.461   6.649   7.715  0.1903  0.1966 -0.3954
   69CHL1  H16A 7534   2.505   6.584   7.794 -1.0927 -2.7711 -2.0522
   69CHL1  H16B 7535   2.496   6.754   7.731 -0.6768  0.2204  1.4094
   69CHL1   C17 7536   2.305   6.633   7.721 -0.1972 -0.9742  0.0784
   69CHL1   H17 7537   2.256   6.730   7.700  0.5063 -0.7488 -0.5289
   69CHL1   C13 7538   2.277   6.536   7.599 -0.9103 -0.3421  0.4783
   69CHL1   C18 7539   2.287   6.394   7.668 -0.6395 -0.2248 -0.2107
   69CHL1  H18A 7540   2.199   6.381   7.736 -0.0026 -0.4986  0.5631
   69CHL1  H18B 7541   2.294   6.309   7.598 -1.0308 -1.4950  1.2663
   69CHL1  H18C 7542   2.376   6.376   7.732 -0.6936  0.8829  0.1866
   69CHL1   C12 7543   2.142   6.555   7.525  0.3842  0.7126  0.0854
   69CHL1  H12A 7544   2.056   6.527   7.589 -0.7789  3.8302 -0.0296
   69CHL1  H12B 7545   2.127   6.657   7.484  1.8043  2.0086  2.6357
   69CHL1   C11 7546   2.139   6.460   7.402  0.2660 -0.1779  0.0137
   69CHL1  H11A 7547   2.116   6.355   7.432  0.8874 -0.0056  1.1378
   69CHL1  H11B 7548   2.047   6.492   7.349  0.3576 -0.4236 -0.2982
   69CHL1    C9 7549   2.258   6.485   7.311  0.0691  0.6858  0.0499
   69CHL1    H9 7550   2.255   6.593   7.283  0.6294  1.1242  1.5834
   69CHL1   C10 7551   2.262   6.404   7.186 -0.0277 -0.5902  0.3322
   69CHL1   C19 7552   2.246   6.250   7.224  0.1121 -0.0313  0.2907
   69CHL1  H19A 7553   2.330   6.210   7.285 -1.1825 -0.3924  1.8913
   69CHL1  H19B 7554   2.153   6.227   7.280  1.3627 -0.9825  2.0431
   69CHL1  H19C 7555   2.239   6.188   7.133 -4.0192 -2.1282  1.8877
   69CHL1    C1 7556   2.151   6.464   7.092  1.0818 -0.1447  0.5303
   69CHL1   H1A 7557   2.054   6.475   7.145  0.6170  3.9196 -0.9254
   69CHL1   H1B 7558   2.165   6.574   7.077 -0.7991  0.1179  0.5839
   69CHL1    C2 7559   2.143   6.400   6.952 -0.4524 -0.0926  1.1426
   69CHL1   H2A 7560   2.055   6.442   6.898 -0.5296 -0.5393  0.9204
   69CHL1   H2B 7561   2.111   6.294   6.962 -0.0290 -0.0928  2.5948
   69CHL1   C20 7562   2.249   6.607   7.865  0.1719  0.3607 -0.3210
   69CHL1   H20 7563   2.282   6.509   7.905  0.5736  0.4565 -0.4159
   69CHL1   C21 7564   2.091   6.608   7.857 -0.7144 -0.5793 -0.2203
   69CHL1  H21A 7565   2.051   6.698   7.806 -0.6529 -0.6056 -0.3133
   69CHL1  H21B 7566   2.051   6.605   7.961  1.2567 -0.6071  0.5637
   69CHL1  H21C 7567   2.055   6.518   7.802 -4.4626  0.8543 -0.2118
   69CHL1   C22 7568   2.304   6.708   7.962 -0.8764 -0.0673 -0.8387
   69CHL1  H22A 7569   2.411   6.735   7.953 -0.4518 -1.2009  0.6925
   69CHL1  H22B 7570   2.242   6.799   7.946  1.7813  1.9350 -0.1293
   69CHL1   C23 7571   2.281   6.656   8.107 -0.2375 -0.3812  0.4330
   69CHL1  H23A 7572   2.284   6.739   8.180 -0.6882 -2.2582  2.6294
   69CHL1  H23B 7573   2.188   6.597   8.116  0.2934 -1.3031 -0.0432
   69CHL1   C24 7574   2.399   6.578   8.163  0.3754  0.0686  1.2320
   69CHL1  H24A 7575   2.437   6.498   8.095 -0.8358  2.1934 -2.0249
   69CHL1  H24B 7576   2.483   6.650   8.161  1.1559 -0.8479  0.6366
   69CHL1   C25 7577   2.372   6.525   8.303  0.0883 -0.2882 -0.4006
   69CHL1   H25 7578   2.315   6.596   8.366  1.0960 -1.8997  2.4090
   69CHL1   C26 7579   2.295   6.394   8.300 -0.4527 -0.2066  0.7422
   69CHL1  H26A 7580   2.302   6.330   8.390  0.3208 -0.7033  0.3398
   69CHL1  H26B 7581   2.186   6.412   8.285 -0.2751  1.8337  1.6899
   69CHL1  H26C 7582   2.334   6.333   8.215 -0.8623  0.0458  0.3679
   69CHL1   C27 7583   2.501   6.520   8.380  0.3587  0.1606 -0.6008
   69CHL1  H27A 7584   2.495   6.514   8.490  3.8072 -0.3506 -0.3714
   69CHL1  H27B 7585   2.563   6.432   8.352 -0.5036 -0.4443 -0.6207
   69CHL1  H27C 7586   2.559   6.614   8.364 -0.3679  0.6367 -0.4365
   70CHL1    C3 7587   1.203   3.352   7.178  0.1035  0.2002  0.8101
   70CHL1    H3 7588   1.192   3.462   7.170 -1.8069 -0.1115 -1.1703
   70CHL1    O3 7589   1.178   3.305   7.046  0.1335 -0.0775  0.4950
   70CHL1   H3' 7590   1.224   3.365   6.987 -0.8330 -1.1565 -1.3977
   70CHL1    C4 7591   1.347   3.316   7.216 -0.4334 -0.2621  0.3956
   70CHL1   H4A 7592   1.379   3.210   7.205  2.5677  0.5991  0.3837
   70CHL1   H4B 7593   1.405   3.377   7.144 -1.5354 -0.3565 -0.5952
   70CHL1    C5 7594   1.382   3.361   7.360  0.0006 -0.0468  0.7550
   70CHL1    C6 7595   1.489   3.439   7.380 -0.1271  0.1416 -0.5316
   70CHL1    H6 7596   1.549   3.467   7.292  0.3335  0.3607 -0.1437
   70CHL1    C7 7597   1.539   3.486   7.516 -0.6193  0.3751  0.1894
   70CHL1   H7A 7598   1.648   3.463   7.524 -0.6553 -0.0472 -0.4735
   70CHL1   H7B 7599   1.524   3.595   7.531 -0.6259  0.3972  0.0230
   70CHL1    C8 7600   1.468   3.410   7.632 -0.2046 -0.1964 -0.1529
   70CHL1    H8 7601   1.513   3.311   7.655 -1.5935 -0.7641  0.1685
   70CHL1   C14 7602   1.488   3.501   7.752 -0.2759 -0.1668  0.5099
   70CHL1   H14 7603   1.440   3.601   7.751 -1.2991 -0.6626 -1.7789
   70CHL1   C15 7604   1.630   3.545   7.793 -0.7573  0.5528 -0.3225
   70CHL1  H15A 7605   1.698   3.457   7.799 -0.4200  0.7759 -0.9086
   70CHL1  H15B 7606   1.678   3.620   7.728  0.9035 -1.0248 -0.9513
   70CHL1   C16 7607   1.602   3.599   7.934 -0.2173 -0.3017 -0.3247
   70CHL1  H16A 7608   1.684   3.555   7.996 -0.0633  0.6641  0.1609
   70CHL1  H16B 7609   1.608   3.709   7.942  3.7572 -0.5553  1.5824
   70CHL1   C17 7610   1.465   3.553   7.983 -0.3617 -0.7772 -0.0868
   70CHL1   H17 7611   1.389   3.632   7.963  0.4278  0.2962  1.1309
   70CHL1   C13 7612   1.429   3.437   7.882 -0.0859  0.2483 -0.1721
   70CHL1   C18 7613   1.509   3.311   7.919  0.5962  0.2102  0.2763
   70CHL1  H18A 7614   1.615   3.324   7.950  0.9897 -0.4608 -0.7673
   70CHL1  H18B 7615   1.458   3.265   8.006 -2.0680  1.8045 -0.4025
   70CHL1  H18C 7616   1.509   3.227   7.847  0.3300 -1.1861  1.8597
   70CHL1   C12 7617   1.280   3.398   7.862 -0.7034  0.4492  0.5331
   70CHL1  H12A 7618   1.237   3.335   7.942  1.6914  0.5996  2.0052
   70CHL1  H12B 7619   1.222   3.493   7.863  0.6763  1.3150  0.7463
   70CHL1   C11 7620   1.256   3.316   7.732 -0.5867 -0.4634  0.6201
   70CHL1  H11A 7621   1.297   3.213   7.736  1.1152  0.1580 -0.3520
   70CHL1  H11B 7622   1.148   3.313   7.709 -1.0236 -1.7513  2.6687
   70CHL1    C9 7623   1.319   3.388   7.611 -0.7879  0.3070  0.3138
   70CHL1    H9 7624   1.269   3.487   7.603 -0.0354  0.8173  1.7397
   70CHL1   C10 7625   1.295   3.316   7.474 -0.8993 -0.2125  0.2121
   70CHL1   C19 7626   1.321   3.168   7.486  0.1715  0.2996  0.0998
   70CHL1  H19A 7627   1.322   3.116   7.387 -0.2545 -0.4203  0.4671
   70CHL1  H19B 7628   1.430   3.161   7.510  0.6665 -0.3582 -2.1686
   70CHL1  H19C 7629   1.251   3.113   7.552  2.7304  0.6620  3.2218
   70CHL1    C1 7630   1.148   3.349   7.436  0.0779 -0.3473  0.5788
   70CHL1   H1A 7631   1.074   3.312   7.510  1.3127 -0.9638  1.4985
   70CHL1   H1B 7632   1.133   3.459   7.442 -1.7742 -0.4577 -1.2217
   70CHL1    C2 7633   1.096   3.310   7.290 -0.3030 -0.0252 -0.4381
   70CHL1   H2A 7634   0.993   3.346   7.272 -0.7505 -0.5733  1.0053
   70CHL1   H2B 7635   1.084   3.200   7.296  1.8842 -0.2959 -0.5020
   70CHL1   C20 7636   1.458   3.528   8.125  0.2279  0.0230 -0.5298
   70CHL1   H20 7637   1.529   3.445   8.144 -0.5561 -1.1063 -2.3574
   70CHL1   C21 7638   1.321   3.483   8.170  0.8103  0.5793 -0.0839
   70CHL1  H21A 7639   1.317   3.497   8.280  2.3044  2.5015 -0.2445
   70CHL1  H21B 7640   1.311   3.373   8.154 -0.3487  0.8812 -1.5216
   70CHL1  H21C 7641   1.236   3.536   8.123  0.3247 -1.0377 -1.0814
   70CHL1   C22 7642   1.496   3.646   8.215  0.2923  0.1204 -0.0474
   70CHL1  H22A 7643   1.573   3.708   8.162  0.4045  0.2216  0.2349
   70CHL1  H22B 7644   1.413   3.719   8.227  1.4237  1.4175  0.0777
   70CHL1   C23 7645   1.555   3.613   8.348 -0.1101 -0.2526  0.0562
   70CHL1  H23A 7646   1.462   3.592   8.405 -1.5408 -2.8714 -3.1316
   70CHL1  H23B 7647   1.626   3.528   8.359 -0.7813 -0.7934  0.2318
   70CHL1   C24 7648   1.624   3.732   8.422  0.8549  0.4886 -0.3476
   70CHL1  H24A 7649   1.728   3.743   8.385  0.8181  0.5720 -0.4233
   70CHL1  H24B 7650   1.563   3.824   8.407 -1.0288 -0.5591  0.7062
   70CHL1   C25 7651   1.635   3.707   8.572 -0.9040 -0.4897 -0.5626
   70CHL1   H25 7652   1.550   3.650   8.615  0.6071 -1.1024  1.7110
   70CHL1   C26 7653   1.766   3.631   8.586  0.4350  0.0762  0.2061
   70CHL1  H26A 7654   1.786   3.603   8.692  0.0629  1.9270  0.7785
   70CHL1  H26B 7655   1.761   3.534   8.532  0.3234  0.1075  0.1621
   70CHL1  H26C 7656   1.859   3.680   8.550  0.7837 -0.8030 -0.1164
   70CHL1   C27 7657   1.645   3.842   8.652 -0.1620 -0.4802 -0.1177
   70CHL1  H27A 7658   1.751   3.875   8.647  1.0050 -3.8723  0.5681
   70CHL1  H27B 7659   1.579   3.915   8.601 -0.1963 -2.0054 -2.3304
   70CHL1  H27C 7660   1.614   3.819   8.756  1.7662  1.9709  1.0339
   71CHL1    C3 7661   0.850   5.550   6.846 -0.0921 -0.1177 -0.6080
   71CHL1    H3 7662   0.817   5.655   6.861 -1.3236 -0.5637 -0.0391
   71CHL1    O3 7663   0.878   5.545   6.708 -0.1570 -0.1950 -0.1459
   71CHL1   H3' 7664   0.948   5.607   6.688 -0.5502 -0.2909 -1.8350
   71CHL1    C4 7665   0.965   5.497   6.930 -0.2334  0.6485  0.4887
   71CHL1   H4A 7666   1.002   5.402   6.885 -0.9570 -0.1974  1.6719
   71CHL1   H4B 7667   1.059   5.555   6.919  0.5743 -0.7005  0.2127
   71CHL1    C5 7668   0.924   5.480   7.082 -0.6352  0.0058  0.2442
   71CHL1    C6 7669   0.996   5.549   7.177 -0.0628  0.0462  0.4655
   71CHL1    H6 7670   1.079   5.615   7.146 -1.4028 -0.2175 -3.8882
   71CHL1    C7 7671   0.962   5.539   7.323  0.7811 -0.5481 -0.2967
   71CHL1   H7A 7672   1.052   5.514   7.383 -0.3065  0.9797  2.1112
   71CHL1   H7B 7673   0.918   5.633   7.364  1.5055  0.6697 -2.2567
   71CHL1    C8 7674   0.863   5.421   7.359  0.7509  0.3917 -0.2044
   71CHL1    H8 7675   0.926   5.332   7.337  0.2445  0.2214 -0.9659
   71CHL1   C14 7676   0.803   5.436   7.500 -0.6526 -0.5158 -0.5247
   71CHL1   H14 7677   0.756   5.536   7.501 -1.5494 -0.9295  0.9991
   71CHL1   C15 7678   0.906   5.449   7.613  0.8018 -0.2133 -0.0585
   71CHL1  H15A 7679   0.977   5.363   7.610  2.5291  1.2467 -2.1792
   71CHL1  H15B 7680   0.966   5.542   7.609 -0.5755  0.9108  3.2549
   71CHL1   C16 7681   0.811   5.438   7.731 -0.0798 -0.2774 -0.1270
   71CHL1  H16A 7682   0.853   5.402   7.828  0.9190  2.5762  0.5297
   71CHL1  H16B 7683   0.783   5.543   7.753  0.0611 -0.1381 -0.6076
   71CHL1   C17 7684   0.672   5.384   7.680  0.7194 -0.1118 -0.3223
   71CHL1   H17 7685   0.607   5.474   7.681 -0.8652 -1.1328 -3.4677
   71CHL1   C13 7686   0.693   5.333   7.537 -0.0089 -0.2028  0.0815
   71CHL1   C18 7687   0.749   5.196   7.524  0.1799  0.3109 -0.2155
   71CHL1  H18A 7688   0.679   5.125   7.574  0.4442 -0.3113 -0.7283
   71CHL1  H18B 7689   0.777   5.162   7.422  1.9268 -0.1563  0.4026
   71CHL1  H18C 7690   0.847   5.186   7.576  1.4760  0.6993 -2.5247
   71CHL1   C12 7691   0.574   5.356   7.445  0.1233 -0.2807  0.0204
   71CHL1  H12A 7692   0.500   5.275   7.461 -0.2110 -0.1065 -0.6165
   71CHL1  H12B 7693   0.524   5.454   7.461  1.4684  0.3754  0.2410
   71CHL1   C11 7694   0.618   5.331   7.304 -0.1799 -0.2149 -0.5238
   71CHL1  H11A 7695   0.647   5.227   7.278  0.2992 -0.0799 -0.5376
   71CHL1  H11B 7696   0.534   5.355   7.235  1.2158  1.9259 -1.5460
   71CHL1    C9 7697   0.743   5.425   7.258 -0.2242  0.6831  0.0931
   71CHL1    H9 7698   0.702   5.528   7.259 -0.7238  0.4881 -0.0108
   71CHL1   C10 7699   0.793   5.404   7.109  0.0435 -0.5885  0.5509
   71CHL1   C19 7700   0.820   5.253   7.083 -0.9320  0.7572  0.3392
   71CHL1  H19A 7701   0.852   5.244   6.977  1.6951 -0.4710  1.1911
   71CHL1  H19B 7702   0.898   5.212   7.150 -0.7415  0.7869  0.1382
   71CHL1  H19C 7703   0.724   5.199   7.096  0.6052 -1.6955  1.9205
   71CHL1    C1 7704   0.682   5.460   7.014  0.1982  0.3070 -0.7658
   71CHL1   H1A 7705   0.579   5.421   7.027  0.8381 -1.1390  0.1449
   71CHL1   H1B 7706   0.675   5.565   7.047  0.6347 -0.0514  0.5186
   71CHL1    C2 7707   0.720   5.470   6.865 -0.0907  0.9163 -0.7794
   71CHL1   H2A 7708   0.634   5.522   6.818 -0.1503 -0.0194 -1.7173
   71CHL1   H2B 7709   0.731   5.370   6.817 -0.7723 -0.0599  1.0237
   71CHL1   C20 7710   0.613   5.289   7.782  0.0499  0.8801  0.6400
   71CHL1   H20 7711   0.681   5.201   7.791 -0.5133  0.4877  1.0623
   71CHL1   C21 7712   0.472   5.232   7.738  0.0422 -0.0564  0.5405
   71CHL1  H21A 7713   0.419   5.196   7.829 -0.6084 -1.4510 -0.3763
   71CHL1  H21B 7714   0.489   5.138   7.681 -1.6598  1.0050 -1.7803
   71CHL1  H21C 7715   0.416   5.314   7.688 -0.2553 -1.6497 -1.7676
   71CHL1   C22 7716   0.593   5.363   7.915 -0.4584  0.0712 -1.2602
   71CHL1  H22A 7717   0.681   5.428   7.935  0.4368 -0.8210 -2.1948
   71CHL1  H22B 7718   0.504   5.427   7.900  0.1332  1.7411  1.9216
   71CHL1   C23 7719   0.562   5.283   8.042  0.8521  0.5689 -0.2798
   71CHL1  H23A 7720   0.534   5.353   8.124 -1.2402 -0.1386 -0.3657
   71CHL1  H23B 7721   0.471   5.223   8.022  1.5783 -0.7686  0.3603
   71CHL1   C24 7722   0.669   5.182   8.092 -0.0523 -0.0256  0.9033
   71CHL1  H24A 7723   0.676   5.099   8.018 -4.2356  0.3120  0.0237
   71CHL1  H24B 7724   0.762   5.243   8.100  0.2315 -0.2463 -0.5694
   71CHL1   C25 7725   0.634   5.128   8.235  0.1964 -0.2548  0.0805
   71CHL1   H25 7726   0.605   5.213   8.300  0.8467  0.1988 -0.2217
   71CHL1   C26 7727   0.513   5.037   8.236 -1.2008  0.1734  0.5050
   71CHL1  H26A 7728   0.532   4.971   8.148  1.0589  0.4978  0.7219
   71CHL1  H26B 7729   0.508   4.965   8.321  0.6452 -0.6666 -0.0647
   71CHL1  H26C 7730   0.425   5.101   8.215 -0.4604  0.6828 -1.1095
   71CHL1   C27 7731   0.751   5.047   8.293  0.1595  0.3054 -0.3359
   71CHL1  H27A 7732   0.836   5.101   8.339 -0.1974  1.3848 -0.9243
   71CHL1  H27B 7733   0.718   4.991   8.383  2.0959  0.2667  0.3561
   71CHL1  H27C 7734   0.804   4.984   8.218  2.5579  0.2947  1.3171
   72CHL1    C3 7735   1.129   3.833   6.953 -0.3068 -1.1774 -0.4075
   72CHL1    H3 7736   1.066   3.924   6.959 -0.0093 -0.9614 -0.5094
   72CHL1    O3 7737   1.105   3.774   6.828 -0.4311 -0.0282 -0.2758
   72CHL1   H3' 7738   1.193   3.775   6.790 -0.1599 -1.4783  0.2687
   72CHL1    C4 7739   1.280   3.868   6.968 -0.1729 -0.2630  0.1651
   72CHL1   H4A 7740   1.342   3.780   6.942 -0.2905 -0.6418  1.1541
   72CHL1   H4B 7741   1.302   3.950   6.896 -0.7530 -0.2441  0.0107
   72CHL1    C5 7742   1.305   3.930   7.105 -0.5516  0.3964 -0.8295
   72CHL1    C6 7743   1.361   4.056   7.124 -0.3420  0.1194 -0.4127
   72CHL1    H6 7744   1.377   4.120   7.037 -1.0502  2.2044  0.9343
   72CHL1    C7 7745   1.400   4.111   7.256  0.7087  0.0934 -1.4568
   72CHL1   H7A 7746   1.494   4.169   7.253  0.4507  0.6532  0.6777
   72CHL1   H7B 7747   1.341   4.196   7.297 -1.6528 -2.0282 -0.3249
   72CHL1    C8 7748   1.404   4.005   7.367  0.7871 -0.2899  0.0671
   72CHL1    H8 7749   1.500   3.951   7.357  1.1042  0.3498 -0.4170
   72CHL1   C14 7750   1.409   4.069   7.507  0.2484 -0.1916 -0.8432
   72CHL1   H14 7751   1.318   4.133   7.515  0.7782  0.7019 -1.8068
   72CHL1   C15 7752   1.531   4.164   7.527 -0.9808  0.0193  0.5550
   72CHL1  H15A 7753   1.619   4.108   7.487 -2.5417  0.3037 -3.5824
   72CHL1  H15B 7754   1.529   4.261   7.474 -1.9215 -0.3476 -0.0999
   72CHL1   C16 7755   1.528   4.176   7.682  0.0505 -0.1605 -0.5818
   72CHL1  H16A 7756   1.632   4.157   7.716  0.1170  1.6464  0.3095
   72CHL1  H16B 7757   1.506   4.284   7.700 -0.3402  0.1250 -2.6681
   72CHL1   C17 7758   1.435   4.069   7.746 -0.0184  0.7392  0.1243
   72CHL1   H17 7759   1.332   4.107   7.759 -0.3647 -0.2411  0.2856
   72CHL1   C13 7760   1.404   3.971   7.628  0.1005 -0.6204  0.6067
   72CHL1   C18 7761   1.531   3.879   7.612 -0.3891  0.1945 -0.5683
   72CHL1  H18A 7762   1.532   3.805   7.695  2.0312  0.5986 -0.1835
   72CHL1  H18B 7763   1.532   3.816   7.521 -0.4771 -0.9299  0.1990
   72CHL1  H18C 7764   1.628   3.933   7.619 -1.1986  1.6048 -0.0701
   72CHL1   C12 7765   1.273   3.894   7.622 -0.3703 -0.4316  0.2268
   72CHL1  H12A 7766   1.250   3.819   7.700  2.7326 -1.0785  0.5896
   72CHL1  H12B 7767   1.190   3.968   7.627 -0.5531 -0.7051  1.3356
   72CHL1   C11 7768   1.262   3.820   7.482 -0.0058  0.4599  0.0466
   72CHL1  H11A 7769   1.317   3.724   7.481 -0.2948  0.3127 -2.3793
   72CHL1  H11B 7770   1.156   3.786   7.484  0.6699 -1.7208 -0.2588
   72CHL1    C9 7771   1.280   3.914   7.357  0.6955  0.4401  0.5934
   72CHL1    H9 7772   1.189   3.979   7.359  0.1056 -0.4169  2.7694
   72CHL1   C10 7773   1.262   3.836   7.217  0.2153  0.4001  0.7593
   72CHL1   C19 7774   1.358   3.713   7.208 -0.0024  0.6003 -0.6135
   72CHL1  H19A 7775   1.467   3.731   7.211 -0.2339  2.1843 -0.8886
   72CHL1  H19B 7776   1.322   3.653   7.294 -1.7666  1.3349 -0.7987
   72CHL1  H19C 7777   1.344   3.665   7.109  0.2483 -0.5292 -0.1082
   72CHL1    C1 7778   1.110   3.795   7.210 -0.4198 -0.0867  0.3625
   72CHL1   H1A 7779   1.098   3.719   7.291 -2.5480 -2.0688 -1.7180
   72CHL1   H1B 7780   1.040   3.881   7.221 -1.6202 -0.7241 -1.9148
   72CHL1    C2 7781   1.080   3.743   7.072 -0.7744  0.3292 -0.7451
   72CHL1   H2A 7782   0.971   3.724   7.059 -0.8028 -0.8118  1.0941
   72CHL1   H2B 7783   1.138   3.649   7.074  1.8344  1.9314  1.2994
   72CHL1   C20 7784   1.484   4.017   7.882  0.5972  0.5301 -0.0377
   72CHL1   H20 7785   1.567   3.944   7.868 -1.6944 -2.0178 -0.9693
   72CHL1   C21 7786   1.358   3.951   7.944 -0.5385  0.2347  0.1779
   72CHL1  H21A 7787   1.392   3.909   8.041 -0.1851  1.1722  0.4587
   72CHL1  H21B 7788   1.321   3.861   7.890  3.8184 -1.2961 -0.3977
   72CHL1  H21C 7789   1.291   4.035   7.971  0.5648  0.1968  3.1894
   72CHL1   C22 7790   1.557   4.120   7.976 -0.6417  0.2736  0.4113
   72CHL1  H22A 7791   1.644   4.165   7.925  0.0152  1.0351  2.1700
   72CHL1  H22B 7792   1.489   4.206   7.994 -1.2261 -0.5649  2.3901
   72CHL1   C23 7793   1.610   4.057   8.108 -0.3209 -0.1301  0.1870
   72CHL1  H23A 7794   1.524   4.031   8.173 -2.5354  2.5275 -1.5439
   72CHL1  H23B 7795   1.670   3.965   8.094  2.2703  1.6917 -1.2934
   72CHL1   C24 7796   1.712   4.156   8.164  0.3091 -0.1400 -0.1970
   72CHL1  H24A 7797   1.798   4.174   8.096 -0.1269 -1.3503 -1.1076
   72CHL1  H24B 7798   1.665   4.256   8.168 -0.3557 -0.4181 -0.8541
   72CHL1   C25 7799   1.766   4.117   8.309 -0.2559  0.3898  0.1165
   72CHL1   H25 7800   1.785   4.009   8.331  0.4576  0.1829 -1.4332
   72CHL1   C26 7801   1.888   4.205   8.327 -0.3154 -0.2848  0.1488
   72CHL1  H26A 7802   1.901   4.207   8.438 -0.7975 -1.9317  0.2564
   72CHL1  H26B 7803   1.984   4.168   8.285 -0.3378 -1.2168  0.8968
   72CHL1  H26C 7804   1.872   4.306   8.283  0.5355 -1.0763 -2.0073
   72CHL1   C27 7805   1.662   4.158   8.415 -0.2806  0.1980 -0.4628
   72CHL1  H27A 7806   1.698   4.132   8.517 -1.4238 -0.2577 -0.1597
   72CHL1  H27B 7807   1.646   4.268   8.414 -3.7787 -0.2362  0.4958
   72CHL1  H27C 7808   1.562   4.110   8.410 -0.6043  0.5250  1.9398
   73CHL1    C3 7809   1.184   0.013   6.950 -0.3997 -0.0459 -0.3475
   73CHL1    H3 7810   1.081   0.048   6.972 -0.0265  1.5690 -1.0822
   73CHL1    O3 7811   1.209   0.057   6.816 -0.6132  0.4710 -0.2211
   73CHL1   H3' 7812   1.279   0.002   6.782 -0.2724 -0.4136  1.8227
   73CHL1    C4 7813   1.295   0.073   7.045 -0.1774 -0.4732  0.8020
   73CHL1   H4A 7814   1.395   0.053   7.001  0.1182 -0.4852  1.4840
   73CHL1   H4B 7815   1.278   0.183   7.041  0.2003 -0.3975  1.2417
   73CHL1    C5 7816   1.291   0.020   7.187  0.1594 -0.2311  0.0381
   73CHL1    C6 7817   1.314   0.092   7.290  0.5568 -1.0294  0.1103
   73CHL1    H6 7818   1.344   0.197   7.273 -1.4494 -0.4665 -0.0108
   73CHL1    C7 7819   1.317   0.056   7.437 -0.3605  0.0581 -0.2153
   73CHL1   H7A 7820   1.409   0.084   7.492 -2.3417  4.9630  0.8382
   73CHL1   H7B 7821   1.248   0.124   7.492 -0.2073  0.3372 -0.3733
   73CHL1    C8 7822   1.304  -0.094   7.456 -0.2669  0.5898  0.6168
   73CHL1    H8 7823   1.404  -0.141   7.460 -0.1817  0.7217  0.0037
   73CHL1   C14 7824   1.245  -0.127   7.596  0.1537 -0.0795 -0.4125
   73CHL1   H14 7825   1.143  -0.085   7.600 -0.1655 -0.9176  0.3561
   73CHL1   C15 7826   1.306  -0.059   7.726 -0.2894  0.2408  0.3449
   73CHL1  H15A 7827   1.416  -0.063   7.709 -0.3958 -4.3198 -0.0649
   73CHL1  H15B 7828   1.261   0.042   7.727 -0.8670 -0.0074 -0.6159
   73CHL1   C16 7829   1.231  -0.138   7.836  0.2613  0.1048 -0.4931
   73CHL1  H16A 7830   1.312  -0.191   7.892 -2.2104 -3.9575 -0.6031
   73CHL1  H16B 7831   1.154  -0.083   7.894 -2.6637 -2.1284 -2.1256
   73CHL1   C17 7832   1.159  -0.265   7.768 -0.5979 -0.6548 -0.4624
   73CHL1   H17 7833   1.052  -0.237   7.759  0.2174  2.6582 -0.5146
   73CHL1   C13 7834   1.224  -0.275   7.626  0.7036 -0.1521  0.1749
   73CHL1   C18 7835   1.358  -0.350   7.655  0.8323 -0.1271 -0.4620
   73CHL1  H18A 7836   1.422  -0.351   7.564  0.4839  0.8211 -0.7231
   73CHL1  H18B 7837   1.406  -0.296   7.740 -2.2148  2.0347 -0.0265
   73CHL1  H18C 7838   1.340  -0.457   7.678  1.6586 -0.0594  0.5463
   73CHL1   C12 7839   1.138  -0.340   7.508 -0.2076 -0.4710 -0.3443
   73CHL1  H12A 7840   1.135  -0.450   7.520 -2.4251 -0.0165  3.9703
   73CHL1  H12B 7841   1.037  -0.294   7.504 -0.8519 -1.7094  1.4648
   73CHL1   C11 7842   1.209  -0.312   7.377 -0.0131 -0.5306  0.0402
   73CHL1  H11A 7843   1.303  -0.371   7.384 -0.1060 -0.5756  0.8609
   73CHL1  H11B 7844   1.154  -0.364   7.295  0.3600  3.0624 -2.6003
   73CHL1    C9 7845   1.222  -0.165   7.348 -0.0190  0.5265  1.0856
   73CHL1    H9 7846   1.124  -0.112   7.351 -0.8429 -0.9147  0.4937
   73CHL1   C10 7847   1.268  -0.138   7.196 -0.3985  0.3214 -0.6159
   73CHL1   C19 7848   1.407  -0.205   7.177  0.4315 -0.6529  0.1781
   73CHL1  H19A 7849   1.480  -0.191   7.259  0.0499 -2.6221  0.8720
   73CHL1  H19B 7850   1.398  -0.315   7.162  2.6342 -1.0369  1.3472
   73CHL1  H19C 7851   1.440  -0.171   7.076  1.1627  0.5584  0.8102
   73CHL1    C1 7852   1.174  -0.194   7.095 -0.7031 -0.7021  0.9916
   73CHL1   H1A 7853   1.185  -0.304   7.089  0.1256 -0.5088 -1.5520
   73CHL1   H1B 7854   1.074  -0.170   7.137  0.0609  0.4415  2.1949
   73CHL1    C2 7855   1.181  -0.140   6.954 -0.4761 -1.1043  0.7354
   73CHL1   H2A 7856   1.093  -0.173   6.894 -0.5526  0.0058  0.2138
   73CHL1   H2B 7857   1.277  -0.174   6.911 -1.9784 -3.2614 -1.0828
   73CHL1   C20 7858   1.153  -0.388   7.861 -0.6885  0.5279 -0.3830
   73CHL1   H20 7859   1.256  -0.430   7.864 -0.5286  0.6916 -2.8221
   73CHL1   C21 7860   1.082  -0.503   7.790 -0.4270 -0.7147 -0.2025
   73CHL1  H21A 7861   1.068  -0.593   7.854 -0.8336 -1.1418 -0.8852
   73CHL1  H21B 7862   1.130  -0.538   7.697 -1.7997  0.8001 -1.4992
   73CHL1  H21C 7863   0.982  -0.464   7.764  0.3304  1.7132  0.4464
   73CHL1   C22 7864   1.094  -0.370   8.004 -0.0914  0.0172  0.0888
   73CHL1  H22A 7865   1.092  -0.475   8.038 -0.9546 -0.0146 -0.0508
   73CHL1  H22B 7866   1.169  -0.317   8.066  0.8726 -2.5158  1.1379
   73CHL1   C23 7867   0.954  -0.307   8.011  0.3935  0.0187  0.4675
   73CHL1  H23A 7868   0.962  -0.202   7.976  2.3467  0.2276  1.4902
   73CHL1  H23B 7869   0.885  -0.355   7.938 -1.4284  1.4662  1.1954
   73CHL1   C24 7870   0.902  -0.290   8.155  0.4366  0.2993 -0.0687
   73CHL1  H24A 7871   0.922  -0.388   8.203 -1.7604 -0.5678 -0.8138
   73CHL1  H24B 7872   0.969  -0.225   8.214  0.4975  0.0540  0.1349
   73CHL1   C25 7873   0.756  -0.263   8.170  1.7260 -0.4263  0.0265
   73CHL1   H25 7874   0.710  -0.334   8.098  0.2886  1.0723 -0.5775
   73CHL1   C26 7875   0.697  -0.282   8.310  0.6860 -0.3322  0.0910
   73CHL1  H26A 7876   0.752  -0.360   8.367 -0.4650  1.8259  4.3866
   73CHL1  H26B 7877   0.721  -0.193   8.373  2.4117 -0.2712 -0.6225
   73CHL1  H26C 7878   0.587  -0.294   8.319  0.7101  0.6675  2.0043
   73CHL1   C27 7879   0.711  -0.122   8.107 -0.2763  0.3093  0.0691
   73CHL1  H27A 7880   0.600  -0.120   8.111 -0.2716  0.0164  0.3724
   73CHL1  H27B 7881   0.738  -0.036   8.172 -0.1746  1.1876 -1.1218
   73CHL1  H27C 7882   0.760  -0.114   8.008  0.4069 -2.6129  0.1347
   74CHL1    C3 7883   0.318   5.618   7.004  0.2777  0.3712 -0.6337
   74CHL1    H3 7884   0.422   5.587   7.026  0.6065  0.2448 -2.3270
   74CHL1    O3 7885   0.315   5.690   6.878  0.2385  0.9744  0.1217
   74CHL1   H3' 7886   0.229   5.732   6.886 -0.0716  0.1603  1.1380
   74CHL1    C4 7887   0.226   5.495   6.996 -0.1934 -0.1706  0.1686
   74CHL1   H4A 7888   0.124   5.526   6.965 -0.3114 -0.6836  0.0314
   74CHL1   H4B 7889   0.269   5.420   6.926 -0.3902 -0.3308  0.2173
   74CHL1    C5 7890   0.226   5.429   7.131 -0.3624 -0.6583  0.1150
   74CHL1    C6 7891   0.257   5.299   7.141 -0.0937  0.2281  0.3593
   74CHL1    H6 7892   0.297   5.241   7.056  1.2064 -3.0730  3.0839
   74CHL1    C7 7893   0.225   5.210   7.262 -0.4364 -0.3727 -0.4529
   74CHL1   H7A 7894   0.167   5.123   7.224  2.1315 -1.9417 -0.9469
   74CHL1   H7B 7895   0.318   5.187   7.319  0.7697 -0.9620 -2.5957
   74CHL1    C8 7896   0.139   5.285   7.376  0.0686 -0.0416  0.3384
   74CHL1    H8 7897   0.034   5.277   7.340 -0.1707  0.4903  0.9140
   74CHL1   C14 7898   0.152   5.230   7.519 -0.1030  0.6465  0.3071
   74CHL1   H14 7899   0.260   5.228   7.543  0.1726 -2.3386 -0.9097
   74CHL1   C15 7900   0.126   5.076   7.533 -0.6354 -0.2379 -0.2208
   74CHL1  H15A 7901   0.061   5.030   7.455 -1.0405  1.7563 -1.0863
   74CHL1  H15B 7902   0.224   5.024   7.529  0.2685  1.4039  0.3739
   74CHL1   C16 7903   0.062   5.060   7.673 -0.1705 -0.1645  0.6012
   74CHL1  H16A 7904  -0.044   5.028   7.668 -0.1890  0.0544 -0.5934
   74CHL1  H16B 7905   0.119   4.985   7.732  1.1168 -0.8378 -1.4511
   74CHL1   C17 7906   0.084   5.201   7.742  0.4406 -0.1658 -0.0377
   74CHL1   H17 7907   0.190   5.210   7.775  0.2730 -0.0812  0.4787
   74CHL1   C13 7908   0.068   5.304   7.625 -0.1406 -0.3132  0.2906
   74CHL1   C18 7909  -0.083   5.312   7.590  0.4252  0.8285  0.2894
   74CHL1  H18A 7910  -0.103   5.355   7.489  2.0051 -1.0202 -0.8441
   74CHL1  H18B 7911  -0.139   5.218   7.606 -0.9108  1.3029 -1.4382
   74CHL1  H18C 7912  -0.128   5.382   7.664 -0.7369  0.1781  0.2036
   74CHL1   C12 7913   0.130   5.441   7.639 -0.3256 -0.2994 -0.4245
   74CHL1  H12A 7914   0.057   5.497   7.701 -0.6111 -0.7990 -0.3111
   74CHL1  H12B 7915   0.231   5.436   7.684 -0.9534 -1.3506  0.8846
   74CHL1   C11 7916   0.128   5.514   7.502  0.1273  0.0407 -0.1696
   74CHL1  H11A 7917   0.025   5.537   7.469 -0.1962  1.5074  1.8195
   74CHL1  H11B 7918   0.192   5.605   7.500  1.3724 -0.7919  0.8678
   74CHL1    C9 7919   0.185   5.435   7.378  0.2276  0.9043  0.4959
   74CHL1    H9 7920   0.294   5.427   7.401 -0.2150 -1.7138  1.9634
   74CHL1   C10 7921   0.171   5.514   7.242 -0.5541 -0.1822 -0.4801
   74CHL1   C19 7922   0.023   5.544   7.217  0.2883 -0.6915  0.8550
   74CHL1  H19A 7923  -0.031   5.450   7.193  0.7776 -0.8037  0.1912
   74CHL1  H19B 7924  -0.031   5.610   7.289 -1.7234 -1.1017 -0.2438
   74CHL1  H19C 7925   0.005   5.603   7.124 -0.5548  1.5378  2.3903
   74CHL1    C1 7926   0.261   5.638   7.250 -0.3068 -0.0488 -0.3665
   74CHL1   H1A 7927   0.232   5.719   7.320  0.7353 -1.3549  1.6167
   74CHL1   H1B 7928   0.364   5.607   7.277 -0.8110 -2.1296 -0.7403
   74CHL1    C2 7929   0.271   5.708   7.113 -0.2538 -0.3479 -1.0562
   74CHL1   H2A 7930   0.328   5.804   7.115 -1.3371  0.2834  0.0507
   74CHL1   H2B 7931   0.168   5.740   7.086  0.7298  1.5874 -2.6589
   74CHL1   C20 7932   0.003   5.225   7.870  0.6604  0.0541  0.2011
   74CHL1   H20 7933  -0.100   5.236   7.830 -0.0713 -1.8914  1.4717
   74CHL1   C21 7934   0.049   5.350   7.939  0.3052  0.1437 -0.5350
   74CHL1  H21A 7935   0.159   5.348   7.956  0.0044  0.9696  1.6504
   74CHL1  H21B 7936  -0.007   5.353   8.035 -0.9622  0.0080 -1.2623
   74CHL1  H21C 7937   0.020   5.444   7.889 -0.1913  0.6389  0.6542
   74CHL1   C22 7938  -0.014   5.104   7.959  0.0677 -0.4019  0.8750
   74CHL1  H22A 7939  -0.104   5.139   8.014 -0.2365  1.1908 -0.5969
   74CHL1  H22B 7940  -0.043   5.010   7.907 -1.1192  0.7278 -0.5430
   74CHL1   C23 7941   0.106   5.068   8.050 -0.7949 -0.2118  0.6874
   74CHL1  H23A 7942   0.201   5.069   7.992 -0.1077 -1.1839  1.7958
   74CHL1  H23B 7943   0.114   5.148   8.127 -1.1401 -1.2967  1.8733
   74CHL1   C24 7944   0.080   4.932   8.123 -0.1595 -0.7346 -0.1450
   74CHL1  H24A 7945   0.036   4.864   8.046  1.9309  0.8376 -2.8330
   74CHL1  H24B 7946   0.180   4.894   8.153  0.5843  0.6819 -0.7571
   74CHL1   C25 7947  -0.020   4.934   8.239 -0.0668  0.2925  0.0016
   74CHL1   H25 7948  -0.108   4.991   8.201  1.7150  2.5648 -0.7839
   74CHL1   C26 7949  -0.056   4.791   8.270 -0.1081 -0.1719  0.6489
   74CHL1  H26A 7950  -0.119   4.782   8.361  0.7161 -2.0553  1.0572
   74CHL1  H26B 7951  -0.107   4.749   8.181  0.5674  1.3494 -0.4833
   74CHL1  H26C 7952   0.029   4.723   8.294  0.6633 -0.2655 -2.1447
   74CHL1   C27 7953   0.042   5.006   8.361  0.4568 -0.3505 -0.7413
   74CHL1  H27A 7954   0.125   4.949   8.409 -0.3669 -0.0745  1.0397
   74CHL1  H27B 7955   0.074   5.109   8.335  1.6329 -0.1328  1.4834
   74CHL1  H27C 7956  -0.036   5.015   8.439  0.6535  1.0725 -0.7050
   75CHL1    C3 7957   3.571   6.406   6.760 -0.2713 -0.8018  0.4123
   75CHL1    H3 7958   3.634   6.319   6.785 -2.2466 -2.1035  1.0341
   75CHL1    O3 7959   3.582   6.427   6.623  0.1520 -0.0103  0.3352
   75CHL1   H3' 7960   3.518   6.494   6.598  0.6939  0.1743 -0.5701
   75CHL1    C4 7961   3.421   6.375   6.804 -0.1517 -0.1617 -0.2303
   75CHL1   H4A 7962   3.348   6.452   6.771 -3.6686 -2.0825  2.6428
   75CHL1   H4B 7963   3.390   6.279   6.757  0.5097 -0.5179  0.0596
   75CHL1    C5 7964   3.415   6.368   6.957  1.0317 -0.4295 -0.2855
   75CHL1    C6 7965   3.367   6.253   7.008  0.3529 -0.0216  0.9312
   75CHL1    H6 7966   3.329   6.169   6.948  2.7835 -1.1544  0.9059
   75CHL1    C7 7967   3.359   6.243   7.162  0.4472 -0.8009 -0.1218
   75CHL1   H7A 7968   3.258   6.210   7.194  0.7590 -1.1689  0.4825
   75CHL1   H7B 7969   3.420   6.159   7.199  0.8347 -0.5135 -0.1000
   75CHL1    C8 7970   3.386   6.370   7.249 -0.1257 -0.1679 -0.7234
   75CHL1    H8 7971   3.294   6.432   7.243  0.4719  0.8258  0.2161
   75CHL1   C14 7972   3.422   6.333   7.392  0.0047  0.1406 -0.2718
   75CHL1   H14 7973   3.520   6.281   7.383  0.3498  0.5244  1.0793
   75CHL1   C15 7974   3.329   6.237   7.471 -0.0931 -0.2263 -0.1353
   75CHL1  H15A 7975   3.224   6.259   7.443 -1.1930 -2.5303  2.0012
   75CHL1  H15B 7976   3.343   6.134   7.433  2.3456 -0.1701  0.5608
   75CHL1   C16 7977   3.346   6.274   7.621 -0.3685  0.4771 -0.1046
   75CHL1  H16A 7978   3.249   6.311   7.660 -0.9099  1.6538 -2.4781
   75CHL1  H16B 7979   3.371   6.177   7.670 -1.0522 -0.2063 -1.0693
   75CHL1   C17 7980   3.463   6.383   7.619  0.1981 -0.2038  0.1484
   75CHL1   H17 7981   3.552   6.315   7.616 -0.1407 -0.6873  0.7809
   75CHL1   C13 7982   3.448   6.447   7.487 -0.3194 -0.6801 -0.3266
   75CHL1   C18 7983   3.333   6.542   7.497  1.4161 -0.0737 -0.0210
   75CHL1  H18A 7984   3.373   6.632   7.548  0.4155 -0.8269  2.1142
   75CHL1  H18B 7985   3.294   6.574   7.397  1.0466 -0.5573 -0.0313
   75CHL1  H18C 7986   3.264   6.505   7.575  0.7600  0.4218 -0.3563
   75CHL1   C12 7987   3.571   6.525   7.431 -0.2170 -0.4183  0.0945
   75CHL1  H12A 7988   3.583   6.621   7.485 -4.0123  0.4724 -0.5131
   75CHL1  H12B 7989   3.654   6.454   7.448  2.3016  2.2849 -0.4614
   75CHL1   C11 7990   3.548   6.563   7.284  0.1369  0.4095 -0.1210
   75CHL1  H11A 7991   3.481   6.652   7.286  2.1263  1.9305  0.9590
   75CHL1  H11B 7992   3.648   6.598   7.250  0.4774  0.9737  1.3860
   75CHL1    C9 7993   3.501   6.448   7.190  0.0663  0.3820  0.5696
   75CHL1    H9 7994   3.585   6.377   7.198 -0.9286 -0.7872  0.8042
   75CHL1   C10 7995   3.488   6.483   7.038  1.0342  0.5834 -0.2900
   75CHL1   C19 7996   3.416   6.610   7.031  0.3392 -0.4704  0.7958
   75CHL1  H19A 7997   3.334   6.622   7.106  0.4861  0.8110  0.7699
   75CHL1  H19B 7998   3.471   6.703   7.058  0.2464  0.2830 -1.4920
   75CHL1  H19C 7999   3.363   6.640   6.938 -1.5628  1.5368  2.4756
   75CHL1    C1 8000   3.635   6.501   6.982  0.1705  0.6074 -0.9805
   75CHL1   H1A 8001   3.678   6.586   7.039  0.7649 -0.4604  0.2032
   75CHL1   H1B 8002   3.699   6.411   6.998 -3.4096 -2.4923 -3.1220
   75CHL1    C2 8003   3.642   6.531   6.836 -0.3912  0.3733  0.3191
   75CHL1   H2A 8004   3.747   6.536   6.801  0.0237  0.0197  1.4837
   75CHL1   H2B 8005   3.586   6.620   6.800  0.9809 -0.6427 -4.7637
   75CHL1   C20 8006   3.479   6.469   7.748 -0.5678 -0.0416  0.1886
   75CHL1   H20 8007   3.415   6.559   7.742  0.6670  0.7649 -1.0398
   75CHL1   C21 8008   3.625   6.515   7.762  0.0006  0.0326 -0.0788
   75CHL1  H21A 8009   3.689   6.424   7.759  1.2687  0.9304 -1.0270
   75CHL1  H21B 8010   3.645   6.573   7.855 -1.2521 -0.3075  0.4040
   75CHL1  H21C 8011   3.655   6.580   7.677  0.0639  0.7598  0.4906
   75CHL1   C22 8012   3.436   6.388   7.877 -0.1223 -0.5762 -0.0926
   75CHL1  H22A 8013   3.329   6.360   7.873 -0.2644 -0.1201  0.5061
   75CHL1  H22B 8014   3.486   6.290   7.862 -0.9146 -0.6549 -2.4882
   75CHL1   C23 8015   3.466   6.445   8.017  0.9789 -0.4965 -0.1928
   75CHL1  H23A 8016   3.576   6.451   8.028  1.1663  1.8788 -2.8932
   75CHL1  H23B 8017   3.427   6.548   8.030  0.6468 -0.6790  0.2499
   75CHL1   C24 8018   3.397   6.359   8.128  0.1414 -0.6933 -0.0177
   75CHL1  H24A 8019   3.289   6.346   8.104 -0.1920  1.1619  0.4122
   75CHL1  H24B 8020   3.447   6.260   8.142 -1.0567 -1.1426  1.1994
   75CHL1   C25 8021   3.400   6.428   8.261  0.3863  0.0137 -0.5797
   75CHL1   H25 8022   3.500   6.473   8.281 -0.4620  1.1259  1.3622
   75CHL1   C26 8023   3.295   6.542   8.263  0.6003  0.5526 -0.0009
   75CHL1  H26A 8024   3.301   6.615   8.180  1.1046 -0.0362 -0.4974
   75CHL1  H26B 8025   3.199   6.486   8.258  0.0420  1.4391  0.7232
   75CHL1  H26C 8026   3.283   6.602   8.355  1.1398  0.8265 -0.1053
   75CHL1   C27 8027   3.364   6.326   8.379 -0.5985 -0.1654  0.3025
   75CHL1  H27A 8028   3.443   6.251   8.397 -0.1531  0.3954  0.6983
   75CHL1  H27B 8029   3.350   6.384   8.473 -2.0355  0.6550 -0.3910
   75CHL1  H27C 8030   3.271   6.266   8.375 -0.9848  0.5471 -2.6069
   76CHL1    C3 8031   0.717   2.491   7.234 -0.2463  0.1311 -0.0198
   76CHL1    H3 8032   0.777   2.585   7.232  0.7949 -0.4846  1.0734
   76CHL1    O3 8033   0.683   2.450   7.109  0.3863  0.2651 -0.4569
   76CHL1   H3' 8034   0.624   2.376   7.128 -0.2517  0.7376 -0.5757
   76CHL1    C4 8035   0.804   2.391   7.301  0.0808 -0.0775 -0.5075
   76CHL1   H4A 8036   0.773   2.285   7.287  0.8200 -0.0766 -2.3308
   76CHL1   H4B 8037   0.900   2.387   7.245 -0.4457 -2.4526 -1.3290
   76CHL1    C5 8038   0.824   2.416   7.445 -0.2565  0.0865  0.0113
   76CHL1    C6 8039   0.951   2.413   7.495 -0.8049  0.1354 -0.4400
   76CHL1    H6 8040   1.041   2.408   7.431 -0.6254 -0.3543 -0.1535
   76CHL1    C7 8041   0.983   2.414   7.646  0.5433 -0.4211 -0.0807
   76CHL1   H7A 8042   1.052   2.330   7.671 -0.4163 -0.7570  1.5685
   76CHL1   H7B 8043   1.028   2.513   7.666  0.7147 -0.3851 -0.6494
   76CHL1    C8 8044   0.852   2.396   7.737 -0.3403 -0.8676 -0.5390
   76CHL1    H8 8045   0.821   2.290   7.742 -0.8901 -0.6881 -0.1016
   76CHL1   C14 8046   0.883   2.455   7.872 -0.3510  0.5588  0.1771
   76CHL1   H14 8047   0.899   2.564   7.857 -0.2695  0.6349  0.8038
   76CHL1   C15 8048   1.009   2.403   7.943  0.6118  0.2771  0.0466
   76CHL1  H15A 8049   1.001   2.292   7.932  1.2941  0.2183  0.1644
   76CHL1  H15B 8050   1.108   2.444   7.913  0.9389  0.2880  1.1475
   76CHL1   C16 8051   0.983   2.433   8.092  0.5591  0.9886  0.1076
   76CHL1  H16A 8052   0.993   2.337   8.146 -3.5413  0.4967  0.1121
   76CHL1  H16B 8053   1.056   2.504   8.137  2.1249 -0.1764 -0.5377
   76CHL1   C17 8054   0.841   2.495   8.099  0.2936 -0.4006  0.1209
   76CHL1   H17 8055   0.858   2.603   8.084 -1.0067 -0.6870 -4.1908
   76CHL1   C13 8056   0.764   2.447   7.974 -0.6758 -0.5641  0.0944
   76CHL1   C18 8057   0.705   2.305   8.002 -0.0896 -0.4823 -0.0242
   76CHL1  H18A 8058   0.620   2.305   8.073 -0.7736  1.5207 -0.8207
   76CHL1  H18B 8059   0.670   2.256   7.909  0.8561  1.1773 -1.2848
   76CHL1  H18C 8060   0.779   2.240   8.054  3.9851  3.8873 -0.0871
   76CHL1   C12 8061   0.659   2.534   7.908 -0.2785  0.1144 -0.3103
   76CHL1  H12A 8062   0.569   2.541   7.973 -1.7284  1.3006 -2.3876
   76CHL1  H12B 8063   0.702   2.637   7.905 -0.1872  0.0473 -1.8555
   76CHL1   C11 8064   0.612   2.489   7.774 -0.2403 -0.0670  0.0207
   76CHL1  H11A 8065   0.570   2.387   7.780 -3.3372  1.2461  1.5636
   76CHL1  H11B 8066   0.531   2.553   7.733 -1.0826 -1.4580 -0.5242
   76CHL1    C9 8067   0.734   2.482   7.676  0.3934  0.2229  0.0983
   76CHL1    H9 8068   0.767   2.587   7.663 -0.5305  0.3861 -0.9944
   76CHL1   C10 8069   0.699   2.438   7.531 -0.0799  1.0157 -0.6869
   76CHL1   C19 8070   0.615   2.306   7.537 -0.2580 -1.0858 -0.3096
   76CHL1  H19A 8071   0.517   2.312   7.590 -0.3255  2.7753 -0.7453
   76CHL1  H19B 8072   0.599   2.273   7.432 -2.1927 -0.6768 -0.1775
   76CHL1  H19C 8073   0.680   2.228   7.581 -0.1508 -0.0397  1.4560
   76CHL1    C1 8074   0.612   2.543   7.459 -0.1249 -0.3425  0.2973
   76CHL1   H1A 8075   0.511   2.563   7.499  0.3095  1.4842  0.5368
   76CHL1   H1B 8076   0.666   2.640   7.466  0.3195 -0.3760 -2.0128
   76CHL1    C2 8077   0.589   2.528   7.303  0.1730  0.5594 -0.5858
   76CHL1   H2A 8078   0.553   2.623   7.259  0.2590 -0.1390 -2.2030
   76CHL1   H2B 8079   0.506   2.456   7.290  0.2937  0.4654 -0.8369
   76CHL1   C20 8080   0.765   2.498   8.235  0.2999  0.3041 -0.5284
   76CHL1   H20 8081   0.718   2.398   8.249  0.9478  0.0101 -0.4371
   76CHL1   C21 8082   0.651   2.606   8.234 -0.9533 -0.4084 -0.4897
   76CHL1  H21A 8083   0.618   2.623   8.338  1.3034  2.9320 -0.2156
   76CHL1  H21B 8084   0.560   2.584   8.174 -2.8048  1.7023  1.4697
   76CHL1  H21C 8085   0.695   2.702   8.197 -1.9426  0.6281  0.9980
   76CHL1   C22 8086   0.864   2.516   8.352 -0.8690 -0.3319 -0.0923
   76CHL1  H22A 8087   0.954   2.450   8.351 -1.7023 -1.4638 -2.3937
   76CHL1  H22B 8088   0.912   2.616   8.347 -0.9390 -0.2257  1.1492
   76CHL1   C23 8089   0.804   2.482   8.498 -0.0512 -0.0661 -0.1696
   76CHL1  H23A 8090   0.881   2.522   8.567 -0.3973  0.0622  0.1451
   76CHL1  H23B 8091   0.716   2.542   8.530  0.7063  1.5786 -1.0627
   76CHL1   C24 8092   0.792   2.336   8.532 -0.4255 -0.1747 -0.1006
   76CHL1  H24A 8093   0.690   2.314   8.493 -0.6354 -0.4991  0.6262
   76CHL1  H24B 8094   0.865   2.278   8.471 -0.7612 -1.9541  1.1606
   76CHL1   C25 8095   0.804   2.287   8.679 -0.8627  0.6500  0.3528
   76CHL1   H25 8096   0.755   2.365   8.741 -0.4628 -0.4308  2.0595
   76CHL1   C26 8097   0.718   2.166   8.692 -0.5083 -0.0286 -0.0861
   76CHL1  H26A 8098   0.747   2.073   8.638 -2.2394  0.0101 -1.1346
   76CHL1  H26B 8099   0.711   2.134   8.798 -0.1348 -0.8393 -0.3035
   76CHL1  H26C 8100   0.611   2.180   8.664 -0.4853 -1.6362 -1.0489
   76CHL1   C27 8101   0.951   2.255   8.722  1.2737 -0.3090  0.1260
   76CHL1  H27A 8102   1.012   2.194   8.653  1.0855 -0.4867  0.1157
   76CHL1  H27B 8103   0.999   2.355   8.726 -1.8400  1.1668  1.9649
   76CHL1  H27C 8104   0.959   2.207   8.822  0.7293 -0.4105  0.1227
   77CHL1    C3 8105   1.225   0.690   6.815 -0.9039  0.2154 -0.0165
   77CHL1    H3 8106   1.296   0.765   6.855 -0.9884  0.8169 -0.9769
   77CHL1    O3 8107   1.241   0.680   6.677 -0.0370  0.3061 -0.0225
   77CHL1   H3' 8108   1.193   0.602   6.650 -0.4694 -0.0891  1.7939
   77CHL1    C4 8109   1.265   0.553   6.877 -0.6786  0.9954 -0.0958
   77CHL1   H4A 8110   1.203   0.471   6.835 -0.8785  1.4876 -0.7707
   77CHL1   H4B 8111   1.365   0.518   6.843 -2.5138 -2.6604 -2.0807
   77CHL1    C5 8112   1.268   0.561   7.029 -0.0352 -0.0311  0.4774
   77CHL1    C6 8113   1.372   0.529   7.106  0.4976 -0.0566  0.6882
   77CHL1    H6 8114   1.469   0.508   7.059 -0.1422  2.1919 -1.7187
   77CHL1    C7 8115   1.375   0.513   7.256 -0.1925 -0.0139  0.5476
   77CHL1   H7A 8116   1.430   0.424   7.292  0.8661 -0.0990 -1.1954
   77CHL1   H7B 8117   1.428   0.597   7.306  1.8005 -2.5689  2.8654
   77CHL1    C8 8118   1.231   0.503   7.311 -0.2482  0.4265 -0.0402
   77CHL1    H8 8119   1.199   0.398   7.292 -1.6702  0.8303  0.0101
   77CHL1   C14 8120   1.229   0.520   7.460  0.4592 -0.6995 -0.2444
   77CHL1   H14 8121   1.255   0.627   7.474  0.3405 -0.3909 -2.2598
   77CHL1   C15 8122   1.324   0.441   7.556  0.0263  0.2002 -0.7496
   77CHL1  H15A 8123   1.324   0.337   7.517 -1.9717 -0.9365  2.0929
   77CHL1  H15B 8124   1.429   0.478   7.543  1.4706 -3.2978  0.3980
   77CHL1   C16 8125   1.262   0.469   7.689  0.3742  0.7105 -0.3421
   77CHL1  H16A 8126   1.237   0.373   7.738 -0.5247  0.6350 -0.9350
   77CHL1  H16B 8127   1.333   0.531   7.748  0.3126 -0.5852  1.1299
   77CHL1   C17 8128   1.136   0.554   7.664 -0.1299  0.3746 -0.3242
   77CHL1   H17 8129   1.173   0.659   7.658  0.0817  0.2184 -2.1966
   77CHL1   C13 8130   1.094   0.515   7.524  0.3689  0.3959  0.8526
   77CHL1   C18 8131   1.039   0.371   7.515 -0.2825 -0.8308 -0.3316
   77CHL1  H18A 8132   1.114   0.290   7.526 -0.9477 -1.8319 -3.0572
   77CHL1  H18B 8133   0.963   0.361   7.595  1.8272  2.8373  2.3000
   77CHL1  H18C 8134   0.988   0.355   7.418 -0.5816 -0.8698 -0.1699
   77CHL1   C12 8135   1.008   0.622   7.456 -0.1863 -0.6539  0.1812
   77CHL1  H12A 8136   0.908   0.627   7.503 -0.1337 -1.1691  0.3543
   77CHL1  H12B 8137   1.057   0.720   7.471 -3.3056  0.8507  0.9374
   77CHL1   C11 8138   0.995   0.604   7.303 -0.2341 -0.6501  0.3301
   77CHL1  H11A 8139   0.940   0.508   7.291 -2.5851  0.6675  0.1414
   77CHL1  H11B 8140   0.937   0.691   7.265 -0.0831 -0.0618  1.4032
   77CHL1    C9 8141   1.134   0.599   7.234  0.7626 -0.1007  0.0462
   77CHL1    H9 8142   1.172   0.703   7.241  1.8347 -0.3409 -2.0030
   77CHL1   C10 8143   1.128   0.581   7.082  0.1924 -1.2305  0.3222
   77CHL1   C19 8144   1.026   0.461   7.048 -0.2679  0.9132 -0.6290
   77CHL1  H19A 8145   1.055   0.420   6.949  0.9882 -1.2110  0.5892
   77CHL1  H19B 8146   1.041   0.375   7.117  1.9802  0.5232 -1.5475
   77CHL1  H19C 8147   0.920   0.492   7.050 -0.4190  0.3666  2.2522
   77CHL1    C1 8148   1.070   0.712   7.014 -0.4686  0.4563  0.5216
   77CHL1   H1A 8149   0.970   0.732   7.056  0.7263  1.6691  2.8788
   77CHL1   H1B 8150   1.137   0.797   7.040  1.1094 -0.3957 -0.6701
   77CHL1    C2 8151   1.079   0.708   6.852  0.3242 -0.1190  0.2699
   77CHL1   H2A 8152   1.046   0.808   6.815  1.2673  0.0167 -0.2230
   77CHL1   H2B 8153   1.008   0.628   6.824  1.2224 -0.2286 -1.7739
   77CHL1   C20 8154   1.038   0.549   7.781 -0.1540  0.5712 -0.9130
   77CHL1   H20 8155   0.997   0.446   7.788 -1.4708  1.2624  3.2700
   77CHL1   C21 8156   0.918   0.643   7.762 -0.4472  0.9771 -0.0858
   77CHL1  H21A 8157   0.882   0.684   7.859 -1.3257 -0.6431  0.3033
   77CHL1  H21B 8158   0.828   0.596   7.715 -0.6147  0.8748  0.3304
   77CHL1  H21C 8159   0.942   0.730   7.698  0.2408  0.0182 -1.1421
   77CHL1   C22 8160   1.098   0.571   7.922 -0.2894 -0.3935 -0.1211
   77CHL1  H22A 8161   1.010   0.550   7.987  0.1058  0.9021  0.8571
   77CHL1  H22B 8162   1.179   0.500   7.949  1.2620  1.5334  0.4299
   77CHL1   C23 8163   1.148   0.714   7.959 -0.0788  0.0293  0.0571
   77CHL1  H23A 8164   1.259   0.726   7.965  0.0044 -1.4303  2.0542
   77CHL1  H23B 8165   1.104   0.780   7.882  2.1283  2.8283  1.0797
   77CHL1   C24 8166   1.090   0.758   8.101 -0.1438 -0.5563 -0.1631
   77CHL1  H24A 8167   1.134   0.858   8.118  0.3176 -0.5305 -1.4429
   77CHL1  H24B 8168   0.980   0.768   8.091  0.0476  2.5535  0.3179
   77CHL1   C25 8169   1.107   0.673   8.226 -0.5063 -0.8875 -0.3638
   77CHL1   H25 8170   1.058   0.576   8.204 -0.6268 -0.8930 -0.0805
   77CHL1   C26 8171   1.256   0.648   8.252  0.1367 -0.3738  0.3752
   77CHL1  H26A 8172   1.266   0.598   8.351 -0.9443 -1.3447  0.0118
   77CHL1  H26B 8173   1.292   0.590   8.164  0.1727  0.9608 -0.5132
   77CHL1  H26C 8174   1.322   0.737   8.254 -0.3093 -0.0370  0.3400
   77CHL1   C27 8175   1.051   0.752   8.350  0.7453  0.2204 -0.0940
   77CHL1  H27A 8176   0.968   0.823   8.330  3.1495  3.5456  1.2825
   77CHL1  H27B 8177   1.028   0.690   8.439  0.1052  0.1298 -0.3197
   77CHL1  H27C 8178   1.124   0.830   8.380  2.3050 -1.2985  0.1450
   78CHL1    C3 8179   3.680   1.511   6.634  0.1842  0.4103 -0.2190
   78CHL1    H3 8180   3.590   1.455   6.602  1.3024 -0.8039 -1.3375
   78CHL1    O3 8181   3.778   1.526   6.534 -0.5954 -0.5051 -0.4075
   78CHL1   H3' 8182   3.848   1.581   6.571  1.2436 -3.1507  0.1711
   78CHL1    C4 8183   3.656   1.662   6.668 -0.8890  0.4183  0.0177
   78CHL1   H4A 8184   3.745   1.729   6.666 -2.4488  2.6860  2.4876
   78CHL1   H4B 8185   3.593   1.711   6.591  0.4957  1.0578 -0.7143
   78CHL1    C5 8186   3.594   1.678   6.810 -0.0342 -0.2875  0.4744
   78CHL1    C6 8187   3.481   1.754   6.822  0.5269 -0.2903  0.1298
   78CHL1    H6 8188   3.439   1.797   6.730  0.0375  1.5820  1.2123
   78CHL1    C7 8189   3.419   1.776   6.954  0.3868 -0.8236  0.0437
   78CHL1   H7A 8190   3.393   1.884   6.966  3.5463 -0.0090 -0.0804
   78CHL1   H7B 8191   3.340   1.698   6.960  1.0616 -1.5775 -0.7636
   78CHL1    C8 8192   3.510   1.733   7.074  0.1060  1.3435 -0.7355
   78CHL1    H8 8193   3.581   1.816   7.095 -0.3890  1.6947 -0.4244
   78CHL1   C14 8194   3.422   1.731   7.204 -0.3789  0.2271 -0.3867
   78CHL1   H14 8195   3.341   1.656   7.188 -0.9764  1.2182 -2.2874
   78CHL1   C15 8196   3.342   1.855   7.235  0.3172 -0.2619  0.7599
   78CHL1  H15A 8197   3.403   1.946   7.220  0.4953 -0.1090  2.2601
   78CHL1  H15B 8198   3.244   1.854   7.182  0.6530  0.6459  0.1091
   78CHL1   C16 8199   3.298   1.833   7.381  0.2786 -0.4406 -0.1506
   78CHL1  H16A 8200   3.328   1.922   7.439 -0.4524 -1.0754  1.2244
   78CHL1  H16B 8201   3.188   1.819   7.385  0.1255  0.8705  0.1718
   78CHL1   C17 8202   3.379   1.711   7.440  0.0119  0.5001  0.1881
   78CHL1   H17 8203   3.311   1.624   7.428  2.4711 -1.3902 -0.3012
   78CHL1   C13 8204   3.491   1.693   7.336 -0.3574 -0.1370 -0.2188
   78CHL1   C18 8205   3.607   1.789   7.368 -0.0410  0.3195 -0.5645
   78CHL1  H18A 8206   3.683   1.750   7.439  0.0410 -0.4894 -1.0885
   78CHL1  H18B 8207   3.662   1.818   7.275  1.1832  0.3952  0.1757
   78CHL1  H18C 8208   3.568   1.884   7.411  0.2383  0.1288  0.1069
   78CHL1   C12 8209   3.543   1.551   7.310 -0.3105 -0.3586  0.0405
   78CHL1  H12A 8210   3.598   1.508   7.396  1.1678  1.7197  0.1736
   78CHL1  H12B 8211   3.459   1.480   7.297 -0.6018  0.1721 -1.0950
   78CHL1   C11 8212   3.637   1.544   7.185 -0.1380  0.5798  0.0841
   78CHL1  H11A 8213   3.733   1.593   7.213 -1.6945  3.8498 -0.0501
   78CHL1  H11B 8214   3.654   1.439   7.154 -1.5389  0.2390  0.4519
   78CHL1    C9 8215   3.568   1.600   7.053 -0.1440  0.1578  0.3219
   78CHL1    H9 8216   3.489   1.528   7.022 -1.0635  0.6005  1.5940
   78CHL1   C10 8217   3.656   1.600   6.927  0.0755  0.2398  0.3625
   78CHL1   C19 8218   3.799   1.659   6.962  0.5905 -0.0168 -0.4716
   78CHL1  H19A 8219   3.873   1.671   6.880  0.1226  1.9372 -0.6228
   78CHL1  H19B 8220   3.779   1.763   6.995 -2.0551 -0.4703 -0.4785
   78CHL1  H19C 8221   3.851   1.604   7.043 -2.7421 -0.6121  1.3585
   78CHL1    C1 8222   3.666   1.453   6.872  0.6748  0.1224 -0.3272
   78CHL1   H1A 8223   3.714   1.393   6.952 -1.3212  0.9474  1.5642
   78CHL1   H1B 8224   3.567   1.408   6.849  0.7876  0.7128 -2.0588
   78CHL1    C2 8225   3.745   1.428   6.741  0.2239  0.4777 -0.3127
   78CHL1   H2A 8226   3.740   1.321   6.710  0.7123  1.1979 -2.9251
   78CHL1   H2B 8227   3.846   1.474   6.748  0.4249 -0.3109  2.7497
   78CHL1   C20 8228   3.416   1.728   7.585  0.4853 -0.3484  0.3281
   78CHL1   H20 8229   3.483   1.814   7.607 -1.7357  1.2717  0.9530
   78CHL1   C21 8230   3.493   1.596   7.632 -0.4284  0.0108 -0.3751
   78CHL1  H21A 8231   3.588   1.589   7.575  0.1771 -0.1078  0.6379
   78CHL1  H21B 8232   3.431   1.504   7.622 -3.3910  1.9887 -1.1991
   78CHL1  H21C 8233   3.510   1.608   7.741 -1.4480  0.9078 -0.2974
   78CHL1   C22 8234   3.284   1.753   7.673  0.1609 -0.0527  0.5537
   78CHL1  H22A 8235   3.234   1.829   7.609  2.4289 -0.5795 -1.9494
   78CHL1  H22B 8236   3.218   1.664   7.686  1.1816 -0.9270 -0.1556
   78CHL1   C23 8237   3.319   1.819   7.814  0.5207  0.0384 -0.5282
   78CHL1  H23A 8238   3.391   1.761   7.875 -1.5673 -0.1895  1.7910
   78CHL1  H23B 8239   3.346   1.926   7.806  1.3817 -0.1579 -0.2429
   78CHL1   C24 8240   3.183   1.825   7.891  0.9593  0.1004 -0.5872
   78CHL1  H24A 8241   3.101   1.865   7.827 -0.1405  1.6888  1.7499
   78CHL1  H24B 8242   3.147   1.726   7.924 -2.0176  0.6506 -1.9874
   78CHL1   C25 8243   3.179   1.908   8.028  0.2342 -0.6563 -0.4185
   78CHL1   H25 8244   3.224   2.005   7.996  1.0629 -1.3308 -1.3254
   78CHL1   C26 8245   3.040   1.928   8.085 -0.1347 -0.2110 -0.3446
   78CHL1  H26A 8246   3.002   1.826   8.110  1.2994 -0.9594 -1.1445
   78CHL1  H26B 8247   3.038   1.981   8.182 -1.5822 -0.7634 -0.0484
   78CHL1  H26C 8248   2.982   1.983   8.008  0.9879 -0.4571 -1.3729
   78CHL1   C27 8249   3.260   1.848   8.145  0.2089 -0.2160 -0.1871
   78CHL1  H27A 8250   3.369   1.862   8.128  0.4944 -0.6272  1.1957
   78CHL1  H27B 8251   3.233   1.889   8.245 -2.5765 -0.2686 -0.8797
   78CHL1  H27C 8252   3.254   1.737   8.147  3.5272 -0.4559 -0.5142
   79CHL1    C3 8253   1.723   1.992   7.086  0.3601 -0.1282 -0.3852
   79CHL1    H3 8254   1.714   1.882   7.097  0.4539 -0.1630 -0.6651
   79CHL1    O3 8255   1.700   2.031   6.956  0.4949 -0.3637  0.4051
   79CHL1   H3' 8256   1.622   1.983   6.928 -0.4003 -0.3601  2.7206
   79CHL1    C4 8257   1.616   2.059   7.177  0.0920 -0.1041  0.0237
   79CHL1   H4A 8258   1.613   2.169   7.166 -2.7915 -0.1750 -0.1570
   79CHL1   H4B 8259   1.518   2.029   7.135 -0.3829  0.6318  0.5975
   79CHL1    C5 8260   1.639   2.023   7.323 -0.6001 -0.5861  0.0106
   79CHL1    C6 8261   1.545   1.947   7.379  0.2182  0.5158 -0.3588
   79CHL1    H6 8262   1.460   1.921   7.314 -0.1876 -0.3156  0.4975
   79CHL1    C7 8263   1.554   1.892   7.513  0.2199 -0.8001 -0.3436
   79CHL1   H7A 8264   1.457   1.895   7.568  0.9989  0.4513  1.0137
   79CHL1   H7B 8265   1.603   1.792   7.517  0.6960 -0.6892 -2.8274
   79CHL1    C8 8266   1.654   1.977   7.592  0.3197  0.2448  0.6625
   79CHL1    H8 8267   1.604   2.076   7.603  2.2954  1.3401  0.0603
   79CHL1   C14 8268   1.669   1.906   7.724  0.4471  0.1174 -0.8148
   79CHL1   H14 8269   1.723   1.814   7.696 -0.7217 -1.0396  0.6890
   79CHL1   C15 8270   1.545   1.860   7.797 -0.5768 -0.1687  0.1682
   79CHL1  H15A 8271   1.466   1.938   7.796 -0.6826 -0.2816 -0.4009
   79CHL1  H15B 8272   1.502   1.767   7.754 -0.5228  0.2875 -0.8788
   79CHL1   C16 8273   1.597   1.834   7.940  0.1315 -0.3324  0.3924
   79CHL1  H16A 8274   1.538   1.888   8.016  3.5646  1.3346  1.9934
   79CHL1  H16B 8275   1.582   1.729   7.972  1.7417 -0.4873  0.6691
   79CHL1   C17 8276   1.744   1.883   7.942 -0.4627  0.2620 -0.6912
   79CHL1   H17 8277   1.808   1.796   7.918 -1.1955  0.0748 -1.9433
   79CHL1   C13 8278   1.763   1.976   7.820 -0.4239 -0.6895  0.0293
   79CHL1   C18 8279   1.703   2.113   7.858 -0.0274  0.4943 -1.3106
   79CHL1  H18A 8280   1.669   2.171   7.770  2.9154  0.9279 -2.2317
   79CHL1  H18B 8281   1.611   2.097   7.919  1.1161 -0.5205  0.1907
   79CHL1  H18C 8282   1.776   2.172   7.919 -0.3436 -0.0953 -0.3484
   79CHL1   C12 8283   1.906   1.979   7.756 -0.0362 -0.1425  0.6766
   79CHL1  H12A 8284   1.967   2.042   7.824  1.7432 -1.5711  0.4545
   79CHL1  H12B 8285   1.954   1.879   7.746  0.4832  0.1468  0.2361
   79CHL1   C11 8286   1.908   2.035   7.613  0.9186 -0.3015  1.3702
   79CHL1  H11A 8287   1.903   2.145   7.625  0.5248 -0.2408  0.6664
   79CHL1  H11B 8288   2.007   2.018   7.565 -0.3820  0.0447 -1.5288
   79CHL1    C9 8289   1.786   1.992   7.520 -0.2573  0.6083  0.0129
   79CHL1    H9 8290   1.806   1.888   7.486  0.8777  0.1486  2.0505
   79CHL1   C10 8291   1.763   2.059   7.386 -0.1096  0.0756  0.3297
   79CHL1   C19 8292   1.756   2.217   7.406 -0.7130 -0.5516  0.0094
   79CHL1  H19A 8293   1.772   2.268   7.309 -2.1719  0.1874  0.1443
   79CHL1  H19B 8294   1.662   2.254   7.451 -0.5371 -0.4570  0.3049
   79CHL1  H19C 8295   1.845   2.244   7.467  0.7276 -3.2570 -0.8061
   79CHL1    C1 8296   1.884   2.016   7.291  0.7368 -0.4630  0.0744
   79CHL1   H1A 8297   1.976   2.063   7.330  0.8869 -1.6068  1.1520
   79CHL1   H1B 8298   1.905   1.907   7.300  2.5149  0.0089  1.8510
   79CHL1    C2 8299   1.862   2.041   7.138 -0.8517 -0.5306 -0.4699
   79CHL1   H2A 8300   1.936   1.991   7.073  0.1161 -0.8641  0.8796
   79CHL1   H2B 8301   1.863   2.150   7.118  1.0050 -0.6608 -1.0963
   79CHL1   C20 8302   1.792   1.935   8.086 -0.2118  0.6864 -0.1773
   79CHL1   H20 8303   1.718   2.006   8.129  0.7022  0.8344  1.1742
   79CHL1   C21 8304   1.938   1.984   8.087 -0.0742 -0.3124  0.8515
   79CHL1  H21A 8305   1.946   2.083   8.039  0.6366 -0.9489 -0.3568
   79CHL1  H21B 8306   2.002   1.917   8.027 -0.6175 -0.0968  0.0330
   79CHL1  H21C 8307   1.982   2.001   8.188  1.3247  1.5554 -0.0477
   79CHL1   C22 8308   1.785   1.820   8.184 -0.3202  0.3362  0.9468
   79CHL1  H22A 8309   1.691   1.762   8.177 -0.0191 -0.1633  0.9904
   79CHL1  H22B 8310   1.874   1.759   8.156 -0.0098  0.1986  2.2076
   79CHL1   C23 8311   1.786   1.861   8.329 -0.9213  0.2966 -0.1764
   79CHL1  H23A 8312   1.880   1.916   8.353 -0.2085 -1.6759  1.6828
   79CHL1  H23B 8313   1.714   1.940   8.358 -0.8292 -0.0671  1.0738
   79CHL1   C24 8314   1.790   1.740   8.425  0.1849  0.7089 -0.0375
   79CHL1  H24A 8315   1.708   1.669   8.402  0.0345  0.3554  1.5405
   79CHL1  H24B 8316   1.888   1.691   8.409 -0.2636 -0.1759 -0.0736
   79CHL1   C25 8317   1.773   1.774   8.578  0.0966  0.0144 -0.2077
   79CHL1   H25 8318   1.708   1.864   8.586  0.6935  0.3255  1.1991
   79CHL1   C26 8319   1.716   1.658   8.656 -0.2874  0.2842  0.3636
   79CHL1  H26A 8320   1.762   1.560   8.631 -0.1891  0.6439 -0.8894
   79CHL1  H26B 8321   1.721   1.664   8.767 -1.8399  1.8577  0.3739
   79CHL1  H26C 8322   1.612   1.631   8.628  0.4735 -2.3061 -0.1070
   79CHL1   C27 8323   1.903   1.823   8.638 -0.0758  0.1162  0.3901
   79CHL1  H27A 8324   1.984   1.747   8.639  1.3255  1.5663  2.2032
   79CHL1  H27B 8325   1.947   1.901   8.571  1.0942  1.3645  2.5376
   79CHL1  H27C 8326   1.886   1.865   8.740  4.4327 -0.6679  1.6109
   80CHL1    C3 8327   0.066   6.166   7.072 -0.2132  0.2268  0.4533
   80CHL1    H3 8328   0.092   6.269   7.105  0.9350  0.1126 -0.1008
   80CHL1    O3 8329   0.078   6.146   6.936  0.4943  0.5493 -0.1377
   80CHL1   H3' 8330   0.058   6.055   6.915 -1.5101  0.2349  2.8805
   80CHL1    C4 8331   0.146   6.065   7.142 -0.1016 -0.1169  0.0134
   80CHL1   H4A 8332   0.128   5.963   7.101 -1.6344  0.5430 -0.9937
   80CHL1   H4B 8333   0.251   6.075   7.109 -0.7268 -0.2548 -2.1052
   80CHL1    C5 8334   0.131   6.064   7.298  0.1543  0.7657 -0.8635
   80CHL1    C6 8335   0.230   6.077   7.387  0.8035  0.5789 -0.6828
   80CHL1    H6 8336   0.336   6.087   7.358  0.5020  0.3616 -1.8865
   80CHL1    C7 8337   0.210   6.065   7.532  0.6051 -0.1822 -0.3129
   80CHL1   H7A 8338   0.282   5.996   7.582  1.1223  0.8931  0.4543
   80CHL1   H7B 8339   0.239   6.161   7.580  1.1537 -0.8586  0.7409
   80CHL1    C8 8340   0.065   6.024   7.575 -0.2347 -0.2337  0.9170
   80CHL1    H8 8341   0.053   5.914   7.571 -0.7744 -0.1380 -0.6837
   80CHL1   C14 8342   0.052   6.058   7.720 -0.5423 -0.4957 -0.9692
   80CHL1   H14 8343   0.053   6.169   7.730  0.8766 -0.7059  1.5224
   80CHL1   C15 8344   0.153   6.001   7.826 -0.1442 -0.3237  0.4582
   80CHL1  H15A 8345   0.173   5.895   7.798  2.2380  0.2558 -0.1105
   80CHL1  H15B 8346   0.250   6.055   7.830 -0.0945 -0.0187 -2.8963
   80CHL1   C16 8347   0.082   6.005   7.961  0.0029 -0.2322 -0.3553
   80CHL1  H16A 8348   0.093   5.912   8.021  0.7071  0.5255  0.7163
   80CHL1  H16B 8349   0.121   6.093   8.016 -0.1499 -0.7057  0.5105
   80CHL1   C17 8350  -0.072   6.049   7.929 -0.1288 -0.0400  0.0852
   80CHL1   H17 8351  -0.073   6.160   7.934  2.1824  0.0880 -1.5241
   80CHL1   C13 8352  -0.089   6.020   7.777 -0.0807  0.3519 -0.0707
   80CHL1   C18 8353  -0.111   5.869   7.764 -0.4234  0.8477  0.3241
   80CHL1  H18A 8354  -0.213   5.857   7.806  0.9369 -2.0688  3.0012
   80CHL1  H18B 8355  -0.113   5.837   7.658 -0.3679  0.1446  0.5286
   80CHL1  H18C 8356  -0.033   5.812   7.820 -2.4595  0.3149  2.7401
   80CHL1   C12 8357  -0.188   6.101   7.701 -0.1675  0.1979  0.4498
   80CHL1  H12A 8358  -0.293   6.093   7.738  0.2174 -0.2758  1.4773
   80CHL1  H12B 8359  -0.159   6.208   7.711 -0.0833  0.1982  0.1974
   80CHL1   C11 8360  -0.185   6.067   7.546  0.3863 -0.0415  0.5857
   80CHL1  H11A 8361  -0.223   5.963   7.536 -2.5073  1.1183 -1.1387
   80CHL1  H11B 8362  -0.266   6.137   7.516  0.1780 -0.1875  0.8061
   80CHL1    C9 8363  -0.043   6.092   7.492 -0.0052  0.0272 -0.2275
   80CHL1    H9 8364  -0.027   6.201   7.511  4.2715 -0.4797 -0.3822
   80CHL1   C10 8365  -0.023   6.066   7.339 -0.4305 -0.7240  0.3665
   80CHL1   C19 8366  -0.099   5.935   7.311 -0.2227  0.6544 -0.1243
   80CHL1  H19A 8367  -0.064   5.856   7.381 -1.7589 -0.2358 -0.3361
   80CHL1  H19B 8368  -0.210   5.932   7.318 -0.0887 -1.6398  1.4475
   80CHL1  H19C 8369  -0.074   5.902   7.208  1.7112 -0.0925  0.5640
   80CHL1    C1 8370  -0.098   6.177   7.269  0.5916 -0.1518  0.1683
   80CHL1   H1A 8371  -0.207   6.178   7.289 -0.0088  0.3161 -2.8783
   80CHL1   H1B 8372  -0.044   6.272   7.288  2.4835 -0.8117 -1.6805
   80CHL1    C2 8373  -0.085   6.161   7.116 -0.2421 -0.1019  0.3928
   80CHL1   H2A 8374  -0.124   6.247   7.057 -0.0135 -0.5282 -0.3963
   80CHL1   H2B 8375  -0.141   6.080   7.066  1.4224 -0.1445 -1.5077
   80CHL1   C20 8376  -0.169   5.999   8.029  0.4140  0.0039  0.0335
   80CHL1   H20 8377  -0.167   5.888   8.034  2.0497 -0.0328 -1.2423
   80CHL1   C21 8378  -0.314   6.049   7.993  0.5243 -0.5785  0.2968
   80CHL1  H21A 8379  -0.384   6.035   8.078  1.3629 -4.9725  0.3415
   80CHL1  H21B 8380  -0.356   5.991   7.908 -0.3850  1.1410 -0.4634
   80CHL1  H21C 8381  -0.311   6.154   7.956  0.5131 -0.4468  0.6739
   80CHL1   C22 8382  -0.123   6.054   8.170  0.1732 -0.3371 -0.3516
   80CHL1  H22A 8383  -0.021   6.017   8.193  0.7612  0.1248 -2.1205
   80CHL1  H22B 8384  -0.109   6.164   8.161 -1.7750 -0.0134  0.2625
   80CHL1   C23 8385  -0.207   6.018   8.294  0.3934 -0.7346  0.1578
   80CHL1  H23A 8386  -0.306   6.068   8.301  0.5554 -0.8198  3.9605
   80CHL1  H23B 8387  -0.229   5.910   8.281 -1.5989 -0.3117 -0.1351
   80CHL1   C24 8388  -0.125   6.037   8.425  0.0788 -0.1330  0.0345
   80CHL1  H24A 8389  -0.050   5.956   8.438  0.7794  0.5063  0.0309
   80CHL1  H24B 8390  -0.069   6.133   8.415  2.7921 -1.9135 -2.4362
   80CHL1   C25 8391  -0.197   6.031   8.567  0.1794  0.2060 -0.0524
   80CHL1   H25 8392  -0.260   5.939   8.560 -0.2237  0.4693  0.0724
   80CHL1   C26 8393  -0.101   6.012   8.680 -0.2000 -0.1140  0.7320
   80CHL1  H26A 8394  -0.050   5.913   8.680 -2.5815 -1.3927 -1.6394
   80CHL1  H26B 8395  -0.031   6.099   8.675  0.8951 -1.0051  0.2180
   80CHL1  H26C 8396  -0.150   6.013   8.780  0.3861 -2.4943  1.0829
   80CHL1   C27 8397  -0.284   6.156   8.598  0.2302 -0.5859  0.5943
   80CHL1  H27A 8398  -0.221   6.248   8.598 -1.1285  0.3720  0.9338
   80CHL1  H27B 8399  -0.363   6.178   8.522 -1.7180  3.7617  3.6261
   80CHL1  H27C 8400  -0.326   6.144   8.700  2.0325 -0.6302  1.3387
   81CHL1    C3 8401   4.352   5.575   6.908 -0.4336 -0.6179  0.1158
   81CHL1    H3 8402   4.282   5.494   6.938 -2.6900  0.9302 -0.8866
   81CHL1    O3 8403   4.396   5.554   6.777 -0.4187  0.9031 -0.8054
   81CHL1   H3' 8404   4.436   5.636   6.747 -0.6580  0.9589 -0.9726
   81CHL1    C4 8405   4.288   5.716   6.916 -0.3459  0.3626 -0.1630
   81CHL1   H4A 8406   4.369   5.783   6.880 -1.0530  0.8636 -0.8294
   81CHL1   H4B 8407   4.202   5.713   6.845 -0.0693  0.2364 -0.4943
   81CHL1    C5 8408   4.268   5.755   7.063 -0.7618 -0.8339 -0.8966
   81CHL1    C6 8409   4.152   5.802   7.109 -0.3560  0.2565 -0.1005
   81CHL1    H6 8410   4.074   5.823   7.035 -1.0787  1.2228  0.9150
   81CHL1    C7 8411   4.120   5.838   7.250  0.3102  0.4199  0.1006
   81CHL1   H7A 8412   4.061   5.932   7.265  1.5229  0.7153  3.4065
   81CHL1   H7B 8413   4.066   5.750   7.289 -0.7805 -0.6857 -3.6521
   81CHL1    C8 8414   4.244   5.854   7.342  0.6555  0.0076 -0.2512
   81CHL1    H8 8415   4.277   5.958   7.321  2.1207 -0.5237 -0.6639
   81CHL1   C14 8416   4.203   5.843   7.489  0.2045  0.3161 -0.7915
   81CHL1   H14 8417   4.172   5.737   7.498  0.4617  0.2305 -0.9295
   81CHL1   C15 8418   4.085   5.925   7.541  0.8037  0.0963  0.0032
   81CHL1  H15A 8419   4.081   6.024   7.490  1.5930 -0.4476 -1.1292
   81CHL1  H15B 8420   3.996   5.875   7.496  1.2792  0.2765 -1.1576
   81CHL1   C16 8421   4.095   5.920   7.693  0.2320 -0.6805 -0.0285
   81CHL1  H16A 8422   4.102   6.026   7.726 -0.4485 -0.4626 -0.5853
   81CHL1  H16B 8423   4.012   5.859   7.732  1.4834 -1.5295  1.3819
   81CHL1   C17 8424   4.229   5.849   7.715  0.0898  0.0612  0.2589
   81CHL1   H17 8425   4.220   5.739   7.712 -0.4580  0.1409 -3.9568
   81CHL1   C13 8426   4.316   5.871   7.586 -0.3843  0.6646  0.2156
   81CHL1   C18 8427   4.375   6.013   7.573 -0.2271  0.0921 -0.3869
   81CHL1  H18A 8428   4.423   6.031   7.475  0.7463  1.5505  0.3427
   81CHL1  H18B 8429   4.290   6.084   7.577 -0.4031  0.1152 -3.4637
   81CHL1  H18C 8430   4.436   6.043   7.661 -0.7002 -0.6324  0.2030
   81CHL1   C12 8431   4.433   5.758   7.558  0.0904  0.0527 -0.2498
   81CHL1  H12A 8432   4.517   5.778   7.629 -0.9225  1.3003  0.6415
   81CHL1  H12B 8433   4.381   5.664   7.587 -2.4818  1.6533  0.5364
   81CHL1   C11 8434   4.476   5.761   7.408  0.4187  0.4591  0.1244
   81CHL1  H11A 8435   4.533   5.852   7.378 -0.0568  0.1866 -1.7135
   81CHL1  H11B 8436   4.549   5.679   7.396 -1.3913 -0.8179 -2.8540
   81CHL1    C9 8437   4.349   5.743   7.309 -0.1058 -1.4125 -0.1002
   81CHL1    H9 8438   4.292   5.653   7.340 -1.6496  0.6314  3.2766
   81CHL1   C10 8439   4.383   5.733   7.162  0.4821  0.2631 -0.3143
   81CHL1   C19 8440   4.496   5.839   7.129  0.1198 -0.1492 -0.8127
   81CHL1  H19A 8441   4.448   5.936   7.156 -0.5977 -0.1871 -1.9091
   81CHL1  H19B 8442   4.591   5.812   7.179  0.7357  3.0483 -0.1493
   81CHL1  H19C 8443   4.518   5.830   7.020  0.6370  4.0601 -1.1548
   81CHL1    C1 8444   4.429   5.580   7.147 -0.9386  0.4460  0.0870
   81CHL1   H1A 8445   4.519   5.559   7.209 -0.4602 -0.2635 -0.8347
   81CHL1   H1B 8446   4.355   5.503   7.180 -2.8004  2.4685  0.7210
   81CHL1    C2 8447   4.470   5.554   7.001 -0.8133  0.8952  0.6915
   81CHL1   H2A 8448   4.506   5.450   6.983  0.2143  1.2300  0.7552
   81CHL1   H2B 8449   4.549   5.617   6.953  1.4390 -0.5077  2.4639
   81CHL1   C20 8450   4.282   5.890   7.853  0.0204 -0.3788 -0.5046
   81CHL1   H20 8451   4.315   5.996   7.839  0.5780 -1.0083 -4.3499
   81CHL1   C21 8452   4.405   5.806   7.891  0.1514 -0.3284  0.6020
   81CHL1  H21A 8453   4.440   5.825   7.995  0.4351  3.3453 -0.1115
   81CHL1  H21B 8454   4.490   5.829   7.823 -0.2498 -1.7486 -0.4168
   81CHL1  H21C 8455   4.382   5.698   7.875 -2.9307  0.7057 -2.6540
   81CHL1   C22 8456   4.175   5.873   7.959 -0.1021 -0.6578  0.2771
   81CHL1  H22A 8457   4.094   5.944   7.932 -0.0651 -0.9744 -0.6719
   81CHL1  H22B 8458   4.135   5.770   7.948  0.8452 -0.7419 -2.8107
   81CHL1   C23 8459   4.222   5.919   8.101  0.2671  0.1586 -0.1930
   81CHL1  H23A 8460   4.298   5.847   8.139 -0.4901 -0.4716  0.1560
   81CHL1  H23B 8461   4.266   6.019   8.078 -1.7047  0.8591 -0.9986
   81CHL1   C24 8462   4.115   5.938   8.213  0.3831 -0.1902 -0.1657
   81CHL1  H24A 8463   4.083   6.044   8.214 -2.7341 -1.0901 -0.5354
   81CHL1  H24B 8464   4.022   5.879   8.199 -0.2359  0.5949  0.6294
   81CHL1   C25 8465   4.171   5.910   8.351 -0.7323 -0.3014 -0.0541
   81CHL1   H25 8466   4.221   5.812   8.366  0.1685  0.5248  2.6592
   81CHL1   C26 8467   4.287   6.006   8.389 -0.3590  0.5199  0.0353
   81CHL1  H26A 8468   4.365   5.998   8.310 -0.8158  1.5579 -0.5389
   81CHL1  H26B 8469   4.256   6.112   8.376  1.4126  0.9405 -1.0421
   81CHL1  H26C 8470   4.330   5.986   8.489  0.4353  0.3609 -0.3350
   81CHL1   C27 8471   4.069   5.927   8.466 -0.0838  0.1488  0.1398
   81CHL1  H27A 8472   3.986   5.855   8.451 -0.1387  0.3008 -0.3140
   81CHL1  H27B 8473   4.118   5.905   8.563 -1.5425 -1.4412  0.5528
   81CHL1  H27C 8474   4.025   6.029   8.470 -1.5262 -0.4685  0.2297
   82CHL1    C3 8475   6.140   0.126   7.078  0.5465  0.2704 -0.0543
   82CHL1    H3 8476   6.249   0.134   7.097  0.8286 -1.7324 -0.7324
   82CHL1    O3 8477   6.114   0.142   6.942 -0.5492  0.2173  0.6089
   82CHL1   H3' 8478   6.021   0.122   6.926 -0.1231 -0.8328 -0.6447
   82CHL1    C4 8479   6.093  -0.011   7.127 -0.1055 -0.3851  0.3687
   82CHL1   H4A 8480   5.990  -0.031   7.091  1.3622 -1.7882 -3.2325
   82CHL1   H4B 8481   6.159  -0.089   7.083  0.6676  1.0631 -1.0481
   82CHL1    C5 8482   6.101  -0.020   7.275 -0.1878 -0.1086  0.3579
   82CHL1    C6 8483   6.171  -0.127   7.330 -0.4524  0.1108 -0.0948
   82CHL1    H6 8484   6.208  -0.200   7.256  0.4614 -0.1267  0.5830
   82CHL1    C7 8485   6.170  -0.152   7.479  0.1755 -0.6939 -0.3739
   82CHL1   H7A 8486   6.169  -0.258   7.511  0.2608 -0.2806  1.0487
   82CHL1   H7B 8487   6.267  -0.110   7.512  0.1890 -1.1408  0.1591
   82CHL1    C8 8488   6.069  -0.072   7.564 -0.3601  0.0021  0.0361
   82CHL1    H8 8489   5.970  -0.122   7.557 -2.1477  2.9525  2.8892
   82CHL1   C14 8490   6.101  -0.069   7.719  0.0809 -1.1712  0.7170
   82CHL1   H14 8491   6.192  -0.006   7.728 -0.8365  0.4142 -0.6971
   82CHL1   C15 8492   6.134  -0.192   7.797 -0.7688  0.9074 -0.2647
   82CHL1  H15A 8493   6.071  -0.280   7.772  1.3417 -0.4265 -0.9744
   82CHL1  H15B 8494   6.237  -0.221   7.768 -1.3827  0.9300 -2.6026
   82CHL1   C16 8495   6.103  -0.152   7.940  0.0129  0.2364  0.6030
   82CHL1  H16A 8496   6.011  -0.202   7.976 -0.0366  0.5066  0.8427
   82CHL1  H16B 8497   6.200  -0.177   7.989 -1.0679 -1.2911  1.9946
   82CHL1   C17 8498   6.069   0.002   7.943 -0.0577 -0.5480 -0.0410
   82CHL1   H17 8499   6.171   0.046   7.939  0.1742 -0.8942  1.8100
   82CHL1   C13 8500   6.000   0.019   7.804 -0.1210 -0.5198  0.0143
   82CHL1   C18 8501   5.850  -0.030   7.809 -0.5586 -1.0195 -0.2030
   82CHL1  H18A 8502   5.833  -0.120   7.872 -1.5058  1.0948  2.6339
   82CHL1  H18B 8503   5.781   0.051   7.840 -1.9428 -2.6574  1.1102
   82CHL1  H18C 8504   5.815  -0.049   7.705 -0.7652 -0.2334 -0.2825
   82CHL1   C12 8505   6.003   0.167   7.742 -0.0542 -0.2522 -0.9151
   82CHL1  H12A 8506   5.932   0.231   7.798  1.2357  1.4713 -1.2111
   82CHL1  H12B 8507   6.103   0.208   7.767 -0.4361  0.0994  0.0379
   82CHL1   C11 8508   5.966   0.163   7.597 -0.2670 -0.1489 -0.6349
   82CHL1  H11A 8509   5.858   0.139   7.597 -0.7273  1.4326  3.7626
   82CHL1  H11B 8510   5.981   0.262   7.549 -1.7621 -0.8662 -2.6235
   82CHL1    C9 8511   6.051   0.071   7.511 -0.2802  0.0906  0.3643
   82CHL1    H9 8512   6.151   0.118   7.526 -0.5340  1.6013 -2.4218
   82CHL1   C10 8513   6.023   0.086   7.356 -0.4469 -0.5550  0.1165
   82CHL1   C19 8514   5.866   0.068   7.341 -0.7892  0.1258 -0.1672
   82CHL1  H19A 8515   5.842   0.050   7.234  0.1256 -0.5319 -0.2678
   82CHL1  H19B 8516   5.832  -0.013   7.410  0.4923 -0.1368  0.1666
   82CHL1  H19C 8517   5.819   0.164   7.372 -3.1179 -0.8673 -0.5371
   82CHL1    C1 8518   6.057   0.227   7.299 -0.0556  0.4301  0.3703
   82CHL1   H1A 8519   5.978   0.296   7.338 -1.0006 -0.2543 -0.2913
   82CHL1   H1B 8520   6.158   0.262   7.329  0.4664 -1.0879  0.4227
   82CHL1    C2 8521   6.054   0.232   7.145 -0.6924 -0.4022  0.4434
   82CHL1   H2A 8522   6.092   0.333   7.117  0.5284 -1.0460 -0.2498
   82CHL1   H2B 8523   5.947   0.224   7.117 -1.0949  0.2321  1.7358
   82CHL1   C20 8524   6.000   0.048   8.074  0.4017 -0.2559  0.6846
   82CHL1   H20 8525   5.896   0.009   8.085 -0.0319  0.2427 -1.2435
   82CHL1   C21 8526   5.983   0.201   8.077  0.7394 -0.8922 -0.0747
   82CHL1  H21A 8527   5.904   0.235   8.148 -0.5953 -1.8312 -1.0951
   82CHL1  H21B 8528   5.927   0.246   7.992  0.4290 -0.7057  0.2263
   82CHL1  H21C 8529   6.072   0.265   8.095  0.4474  0.0232 -1.7697
   82CHL1   C22 8530   6.071   0.003   8.205  0.1189  0.4528  0.1624
   82CHL1  H22A 8531   5.999   0.044   8.280  0.7161  1.2581  0.3038
   82CHL1  H22B 8532   6.072  -0.108   8.206  5.3206  0.3809  1.5662
   82CHL1   C23 8533   6.215   0.049   8.224 -0.1967 -0.4695 -0.5689
   82CHL1  H23A 8534   6.282   0.003   8.149  0.3258 -0.4732 -0.1058
   82CHL1  H23B 8535   6.219   0.160   8.215  0.0326 -0.6045 -2.2258
   82CHL1   C24 8536   6.262  -0.008   8.361 -0.6975  0.4747 -1.0335
   82CHL1  H24A 8537   6.191   0.030   8.438  2.2769  1.4493  1.2966
   82CHL1  H24B 8538   6.289  -0.116   8.366 -2.4425  0.0843  0.6385
   82CHL1   C25 8539   6.398   0.058   8.404 -0.2103  0.3670 -0.1776
   82CHL1   H25 8540   6.458   0.065   8.311  2.0623 -0.5883  1.1634
   82CHL1   C26 8541   6.387   0.192   8.490  1.2121 -0.2692  0.3934
   82CHL1  H26A 8542   6.490   0.231   8.504  1.0117  0.0612  0.9950
   82CHL1  H26B 8543   6.333   0.272   8.435  0.3871  1.2993  3.3454
   82CHL1  H26C 8544   6.336   0.172   8.588 -1.1289  1.9772 -0.3127
   82CHL1   C27 8545   6.470  -0.052   8.496 -0.4132 -0.4150 -0.4445
   82CHL1  H27A 8546   6.471  -0.152   8.447 -0.9946 -2.0595  2.7402
   82CHL1  H27B 8547   6.570  -0.004   8.506 -1.1999  1.7813 -2.5843
   82CHL1  H27C 8548   6.435  -0.058   8.601 -1.4560 -2.7009 -0.8927
   83CHL1    C3 8549   1.967   1.499   7.022  0.3915  0.2113  0.0080
   83CHL1    H3 8550   2.050   1.432   7.054  1.4841  0.3790 -2.4256
   83CHL1    O3 8551   1.957   1.536   6.884  0.4998  0.4240 -0.1346
   83CHL1   H3' 8552   1.882   1.596   6.887 -0.9759 -1.3764 -0.5316
   83CHL1    C4 8553   1.829   1.436   7.062  0.3230 -0.3044  0.2862
   83CHL1   H4A 8554   1.747   1.506   7.036 -1.4957 -2.4797 -0.0580
   83CHL1   H4B 8555   1.817   1.347   6.997 -0.4885  0.3768 -0.4996
   83CHL1    C5 8556   1.812   1.398   7.207 -0.1363  0.3504 -0.0302
   83CHL1    C6 8557   1.789   1.268   7.247  0.1679 -0.2224  1.0198
   83CHL1    H6 8558   1.787   1.186   7.173 -1.4448  0.1645  0.6154
   83CHL1    C7 8559   1.774   1.215   7.389  0.1351  0.1410  0.7527
   83CHL1   H7A 8560   1.687   1.147   7.401 -0.2042  0.0786 -1.7357
   83CHL1   H7B 8561   1.869   1.160   7.407 -0.2143 -0.5672  0.4362
   83CHL1    C8 8562   1.771   1.331   7.494  0.6639  0.0915 -0.0940
   83CHL1    H8 8563   1.664   1.357   7.505  0.8799  1.2760 -0.6148
   83CHL1   C14 8564   1.820   1.295   7.636 -0.0143  0.6546 -1.2386
   83CHL1   H14 8565   1.927   1.287   7.607  0.8157 -1.9078  2.1055
   83CHL1   C15 8566   1.769   1.161   7.693  0.0219 -0.3887 -0.4093
   83CHL1  H15A 8567   1.660   1.145   7.680 -0.1098  1.1130 -1.3822
   83CHL1  H15B 8568   1.831   1.083   7.644 -1.6512 -0.8926 -1.7866
   83CHL1   C16 8569   1.801   1.170   7.838  0.1875 -0.1360 -0.3036
   83CHL1  H16A 8570   1.710   1.149   7.900  0.3514 -0.8584 -0.2985
   83CHL1  H16B 8571   1.874   1.092   7.869 -1.2992 -1.5516 -0.2229
   83CHL1   C17 8572   1.853   1.310   7.861 -0.6543  0.4339  0.2436
   83CHL1   H17 8573   1.963   1.301   7.849 -0.6431 -0.8363  1.1696
   83CHL1   C13 8574   1.803   1.399   7.742 -0.1906  0.1533 -0.1278
   83CHL1   C18 8575   1.647   1.432   7.766 -0.1921 -0.4940 -0.2397
   83CHL1  H18A 8576   1.592   1.453   7.672 -0.7585 -3.5025 -0.6112
   83CHL1  H18B 8577   1.589   1.346   7.805 -2.2054  0.6708 -0.5964
   83CHL1  H18C 8578   1.642   1.512   7.843 -0.8684  0.9540 -1.7461
   83CHL1   C12 8579   1.882   1.521   7.698 -0.1693  0.0732 -0.5116
   83CHL1  H12A 8580   1.871   1.598   7.777 -1.1673 -0.5103 -0.0816
   83CHL1  H12B 8581   1.990   1.493   7.705  0.2873  1.5899 -1.1454
   83CHL1   C11 8582   1.848   1.566   7.564 -0.2732 -0.9774  0.7725
   83CHL1  H11A 8583   1.742   1.596   7.562  0.2699  0.8456 -2.7204
   83CHL1  H11B 8584   1.910   1.654   7.539 -0.1016 -0.9666  1.2308
   83CHL1    C9 8585   1.854   1.457   7.455 -0.1811  0.0505 -0.4630
   83CHL1    H9 8586   1.958   1.418   7.453 -1.0234 -2.2488 -0.9901
   83CHL1   C10 8587   1.834   1.514   7.303 -0.5421  0.2770 -0.1118
   83CHL1   C19 8588   1.706   1.588   7.292  0.7507  0.1312  0.3078
   83CHL1  H19A 8589   1.609   1.535   7.293  1.3800 -1.2557 -3.8655
   83CHL1  H19B 8590   1.702   1.671   7.365 -0.8665  1.5845 -1.3938
   83CHL1  H19C 8591   1.706   1.652   7.201  0.2553  1.5712  1.3055
   83CHL1    C1 8592   1.967   1.602   7.257  0.8280 -0.5679 -0.2448
   83CHL1   H1A 8593   1.967   1.698   7.314  0.6589 -0.4559 -0.4317
   83CHL1   H1B 8594   2.050   1.540   7.296  0.3094 -0.4146  1.1361
   83CHL1    C2 8595   1.982   1.619   7.108 -0.7052 -0.3124  1.2510
   83CHL1   H2A 8596   2.077   1.672   7.083 -2.2758  1.8681 -0.2980
   83CHL1   H2B 8597   1.897   1.687   7.086  0.6202  0.7828 -0.6683
   83CHL1   C20 8598   1.837   1.360   8.005  0.0736 -0.0522 -0.3261
   83CHL1   H20 8599   1.729   1.362   8.031 -0.0184  2.6243 -0.7808
   83CHL1   C21 8600   1.906   1.501   8.020 -0.0250  0.1159  0.3191
   83CHL1  H21A 8601   1.843   1.582   7.976  0.7738  0.4331 -0.2531
   83CHL1  H21B 8602   2.010   1.495   7.983  0.1270 -0.3610  0.8302
   83CHL1  H21C 8603   1.930   1.531   8.124  2.5851  1.0556 -0.5219
   83CHL1   C22 8604   1.923   1.264   8.095  0.4600 -0.2343  0.3275
   83CHL1  H22A 8605   1.859   1.174   8.098 -1.7248  1.2759 -0.2069
   83CHL1  H22B 8606   2.023   1.240   8.052 -0.2740 -2.0735 -0.4151
   83CHL1   C23 8607   1.931   1.297   8.251  0.4304 -0.2314  0.2371
   83CHL1  H23A 8608   1.978   1.394   8.276  1.5696 -0.5259 -0.7160
   83CHL1  H23B 8609   1.831   1.291   8.298 -0.5556 -0.1429 -1.7982
   83CHL1   C24 8610   2.018   1.194   8.325  0.6645  0.5515  0.0240
   83CHL1  H24A 8611   1.988   1.094   8.286 -0.0194  0.5653  0.5078
   83CHL1  H24B 8612   2.124   1.198   8.292  0.5771  0.1821 -0.3025
   83CHL1   C25 8613   2.008   1.189   8.478  0.1558 -0.2484 -0.0041
   83CHL1   H25 8614   2.072   1.109   8.520  1.1220  1.3665  1.6546
   83CHL1   C26 8615   2.057   1.327   8.537  0.1944 -0.8842 -0.0634
   83CHL1  H26A 8616   2.167   1.329   8.526  0.2175 -2.1731 -0.1010
   83CHL1  H26B 8617   2.006   1.416   8.494 -0.8122 -1.0163  0.8488
   83CHL1  H26C 8618   2.018   1.322   8.641  0.6223  3.3302  0.3726
   83CHL1   C27 8619   1.870   1.160   8.537  1.0190  0.5045 -0.2347
   83CHL1  H27A 8620   1.874   1.164   8.648  3.1054  3.4689 -0.3630
   83CHL1  H27B 8621   1.797   1.234   8.499 -0.0947  0.3647  1.5924
   83CHL1  H27C 8622   1.832   1.059   8.510  1.3334  0.6104 -1.0668
   84CHL1    C3 8623   3.636   4.296   6.952  0.3268  0.2395  0.0493
   84CHL1    H3 8624   3.528   4.316   6.969 -0.1207  3.2254 -5.0121
   84CHL1    O3 8625   3.648   4.253   6.815  0.3743  0.0246 -0.5180
   84CHL1   H3' 8626   3.615   4.163   6.807 -1.9856  0.5206  2.4820
   84CHL1    C4 8627   3.720   4.423   6.985 -0.1375 -0.0850 -0.4978
   84CHL1   H4A 8628   3.826   4.401   6.959 -0.0083  0.2302 -0.2412
   84CHL1   H4B 8629   3.700   4.507   6.915  0.7082 -0.3201 -1.0297
   84CHL1    C5 8630   3.709   4.464   7.130 -0.2246  0.9653 -0.4750
   84CHL1    C6 8631   3.662   4.589   7.158 -0.2978 -0.2064  0.2143
   84CHL1    H6 8632   3.644   4.659   7.075 -0.0089 -0.5645 -0.1488
   84CHL1    C7 8633   3.639   4.640   7.298 -0.4691 -0.0201 -0.3061
   84CHL1   H7A 8634   3.685   4.740   7.315  2.4771 -1.3589 -0.0661
   84CHL1   H7B 8635   3.531   4.660   7.311 -0.8540 -0.8551 -2.0845
   84CHL1    C8 8636   3.698   4.546   7.406 -0.5749  0.9843  0.4742
   84CHL1    H8 8637   3.806   4.566   7.419 -0.3147 -1.3724  2.0926
   84CHL1   C14 8638   3.631   4.564   7.541 -0.6461 -0.0609 -0.0149
   84CHL1   H14 8639   3.529   4.520   7.531 -1.3164  0.8309  2.5000
   84CHL1   C15 8640   3.613   4.718   7.589  0.0978  0.1339  0.7517
   84CHL1  H15A 8641   3.707   4.771   7.561 -0.6291  0.9094 -0.2468
   84CHL1  H15B 8642   3.533   4.772   7.535  1.8916 -0.6633 -2.8080
   84CHL1   C16 8643   3.599   4.698   7.740 -0.0342  0.3596  0.6943
   84CHL1  H16A 8644   3.667   4.763   7.799  0.5111  0.6951 -0.2941
   84CHL1  H16B 8645   3.493   4.725   7.761  0.2127  1.1715  0.8996
   84CHL1   C17 8646   3.624   4.552   7.780 -0.7166 -0.0352 -0.1764
   84CHL1   H17 8647   3.529   4.494   7.775 -1.4237  1.0795 -0.0310
   84CHL1   C13 8648   3.697   4.496   7.661  0.3543  0.7188 -0.2264
   84CHL1   C18 8649   3.841   4.546   7.671  0.0231 -0.4394 -0.1746
   84CHL1  H18A 8650   3.844   4.657   7.659  0.0236 -0.4426 -0.2009
   84CHL1  H18B 8651   3.891   4.517   7.766 -0.3585  0.8938  0.4398
   84CHL1  H18C 8652   3.907   4.504   7.592  2.7769  0.7728  1.3879
   84CHL1   C12 8653   3.689   4.343   7.635  0.6896  0.8264 -0.0539
   84CHL1  H12A 8654   3.739   4.278   7.711 -0.1809 -0.2539 -0.4006
   84CHL1  H12B 8655   3.585   4.306   7.640  0.8157 -0.0843 -3.2640
   84CHL1   C11 8656   3.737   4.297   7.493 -0.0365 -0.4837 -0.1508
   84CHL1  H11A 8657   3.848   4.300   7.490  0.0023 -1.3187  0.3587
   84CHL1  H11B 8658   3.693   4.197   7.471 -0.7940 -0.3417  0.7086
   84CHL1    C9 8659   3.686   4.393   7.373  0.6268  0.2819  0.1788
   84CHL1    H9 8660   3.576   4.378   7.379  0.2552  3.5004  2.4740
   84CHL1   C10 8661   3.739   4.353   7.234  0.5315 -0.1945  0.0504
   84CHL1   C19 8662   3.894   4.327   7.244 -0.6021  0.5521 -0.5972
   84CHL1  H19A 8663   3.938   4.304   7.145  1.8164  2.4602 -0.0138
   84CHL1  H19B 8664   3.948   4.409   7.296  0.0637  1.1626 -2.2227
   84CHL1  H19C 8665   3.915   4.234   7.300  1.3474  1.4487  0.1904
   84CHL1    C1 8666   3.664   4.222   7.195 -0.2539 -0.7883  0.2177
   84CHL1   H1A 8667   3.696   4.145   7.268 -0.1244 -0.4042  0.5712
   84CHL1   H1B 8668   3.557   4.246   7.215  0.4388  1.7654  1.1059
   84CHL1    C2 8669   3.681   4.180   7.046 -0.6764  0.5230  0.6273
   84CHL1   H2A 8670   3.596   4.111   7.027  2.1552 -2.3829 -2.0864
   84CHL1   H2B 8671   3.782   4.146   7.014  0.3168  3.0374  1.0235
   84CHL1   C20 8672   3.682   4.526   7.933  0.9854  0.0360  0.4238
   84CHL1   H20 8673   3.783   4.573   7.930  1.4862 -1.0528  0.2870
   84CHL1   C21 8674   3.693   4.379   7.964 -0.2720 -0.0752  0.4715
   84CHL1  H21A 8675   3.693   4.355   8.073  0.7702 -1.5511  0.1645
   84CHL1  H21B 8676   3.787   4.346   7.914 -0.6906  1.6962 -1.5656
   84CHL1  H21C 8677   3.608   4.317   7.928 -0.4347 -0.9365  2.2791
   84CHL1   C22 8678   3.588   4.601   8.035  0.3479  0.3844 -0.1669
   84CHL1  H22A 8679   3.569   4.707   8.007  1.0272  0.3641 -0.7228
   84CHL1  H22B 8680   3.486   4.556   8.027  1.4865 -2.6567  1.7268
   84CHL1   C23 8681   3.634   4.601   8.185  0.5866  0.1922 -0.2757
   84CHL1  H23A 8682   3.631   4.497   8.223  3.1840  0.6089  1.2339
   84CHL1  H23B 8683   3.742   4.627   8.191  0.3673  1.0663 -0.0362
   84CHL1   C24 8684   3.555   4.693   8.280  0.0964 -0.1004  0.6145
   84CHL1  H24A 8685   3.570   4.795   8.237 -0.3051  0.0755  0.8844
   84CHL1  H24B 8686   3.452   4.651   8.279 -0.5719  1.4675  1.4431
   84CHL1   C25 8687   3.601   4.700   8.422 -0.6318  1.1575  0.2305
   84CHL1   H25 8688   3.710   4.721   8.410 -0.2309 -1.2024 -0.4686
   84CHL1   C26 8689   3.532   4.807   8.501  0.1844 -0.2869  0.4597
   84CHL1  H26A 8690   3.562   4.801   8.608  0.7049  0.2934  0.3504
   84CHL1  H26B 8691   3.559   4.908   8.464 -2.4581  0.0762 -0.5615
   84CHL1  H26C 8692   3.422   4.801   8.495  0.2187  0.0208 -0.4909
   84CHL1   C27 8693   3.576   4.556   8.492  0.1443  0.3797  0.0177
   84CHL1  H27A 8694   3.638   4.558   8.584 -0.5912 -1.7297  0.5754
   84CHL1  H27B 8695   3.469   4.554   8.523 -0.1270 -1.5459 -0.9472
   84CHL1  H27C 8696   3.598   4.468   8.428  1.2249 -1.3915  2.7779
   85CHL1    C3 8697   3.530   1.034   6.694  1.2004 -1.3217  0.0196
   85CHL1    H3 8698   3.554   1.143   6.688  0.1231 -0.9037  2.7320
   85CHL1    O3 8699   3.531   0.975   6.565  0.5807  0.4591  0.0109
   85CHL1   H3' 8700   3.538   0.880   6.574  0.2969  0.5532  1.3388
   85CHL1    C4 8701   3.617   0.963   6.793  1.0148 -0.1744  0.2095
   85CHL1   H4A 8702   3.587   0.856   6.790  0.7128 -0.0788 -0.1553
   85CHL1   H4B 8703   3.722   0.956   6.758  0.9020  0.6760 -0.2991
   85CHL1    C5 8704   3.609   1.016   6.937 -0.1288  0.1592  0.4090
   85CHL1    C6 8705   3.727   1.054   7.001  0.0255  0.2327  0.3189
   85CHL1    H6 8706   3.822   1.042   6.947 -0.4860 -2.4798 -0.0445
   85CHL1    C7 8707   3.723   1.098   7.145 -0.3560 -0.1830  0.1784
   85CHL1   H7A 8708   3.800   1.043   7.205 -0.7174  0.5407  1.3275
   85CHL1   H7B 8709   3.762   1.201   7.155  1.2089 -0.7817  0.4342
   85CHL1    C8 8710   3.591   1.073   7.215  0.8692  0.1534  0.3062
   85CHL1    H8 8711   3.585   0.962   7.222 -2.9332  0.2247 -0.9299
   85CHL1   C14 8712   3.574   1.145   7.345 -0.3630 -0.3752  0.0005
   85CHL1   H14 8713   3.582   1.252   7.316  1.8920 -1.3377 -3.2379
   85CHL1   C15 8714   3.681   1.121   7.446  0.3501  0.3408  0.0462
   85CHL1  H15A 8715   3.719   1.017   7.437  0.0060  0.2893 -0.7681
   85CHL1  H15B 8716   3.773   1.180   7.427  0.1021  0.3487 -1.1667
   85CHL1   C16 8717   3.617   1.158   7.584 -0.5152 -0.5506 -0.2278
   85CHL1  H16A 8718   3.629   1.068   7.649 -2.6687 -0.1703  0.7643
   85CHL1  H16B 8719   3.667   1.244   7.633  0.6635 -1.5085  0.2653
   85CHL1   C17 8720   3.475   1.201   7.551  0.1341 -0.0738 -0.5261
   85CHL1   H17 8721   3.470   1.310   7.533  0.3616 -0.3952 -2.6476
   85CHL1   C13 8722   3.443   1.131   7.420 -0.3798 -0.6395 -0.2650
   85CHL1   C18 8723   3.424   0.976   7.438 -0.0695 -0.2418  0.5711
   85CHL1  H18A 8724   3.495   0.929   7.510 -0.3443  0.0970  1.0631
   85CHL1  H18B 8725   3.320   0.957   7.471 -0.1739 -2.9521 -1.1631
   85CHL1  H18C 8726   3.444   0.919   7.344 -0.6884 -1.3515  1.0952
   85CHL1   C12 8727   3.333   1.192   7.333  0.3841 -0.1914  0.0593
   85CHL1  H12A 8728   3.232   1.165   7.368 -0.2407  1.3302 -0.5384
   85CHL1  H12B 8729   3.334   1.302   7.320 -2.5173 -0.1237  0.1279
   85CHL1   C11 8730   3.337   1.112   7.192  0.2559 -0.4025 -0.0535
   85CHL1  H11A 8731   3.298   1.010   7.210  0.7525 -0.5680  0.1136
   85CHL1  H11B 8732   3.259   1.167   7.135  0.3673 -1.2343 -1.0046
   85CHL1    C9 8733   3.473   1.112   7.121 -0.4419 -0.0887  0.7259
   85CHL1    H9 8734   3.493   1.215   7.085  1.1651  0.3349  2.7751
   85CHL1   C10 8735   3.473   1.028   6.992  0.2008 -0.6007  0.8767
   85CHL1   C19 8736   3.405   0.889   7.019  0.4879 -0.6029 -0.4366
   85CHL1  H19A 8737   3.417   0.821   6.932  0.5853 -0.3525 -0.6192
   85CHL1  H19B 8738   3.457   0.849   7.109  3.4496  0.0022 -1.8338
   85CHL1  H19C 8739   3.297   0.910   7.036  0.4721  0.0494 -1.3182
   85CHL1    C1 8740   3.380   1.090   6.893 -0.3877 -0.1084  0.1718
   85CHL1   H1A 8741   3.276   1.070   6.926  0.2516 -1.9081  1.1552
   85CHL1   H1B 8742   3.386   1.201   6.892 -0.1286 -0.1257 -1.0766
   85CHL1    C2 8743   3.386   1.039   6.742 -0.7530 -0.2336  0.5311
   85CHL1   H2A 8744   3.329   1.107   6.675  1.2460  0.4189 -0.5516
   85CHL1   H2B 8745   3.338   0.939   6.750 -0.6075 -0.2381  1.3811
   85CHL1   C20 8746   3.385   1.163   7.670  0.1775  0.3924  0.0945
   85CHL1   H20 8747   3.378   1.053   7.674 -0.4052  0.4100 -0.3137
   85CHL1   C21 8748   3.239   1.219   7.654  0.1062 -0.4875 -0.5035
   85CHL1  H21A 8749   3.162   1.176   7.721  0.6323  1.9433  1.7565
   85CHL1  H21B 8750   3.200   1.207   7.550 -0.3218 -0.2019 -0.3788
   85CHL1  H21C 8751   3.248   1.328   7.673 -0.0175 -0.2278 -1.8814
   85CHL1   C22 8752   3.448   1.224   7.805  0.4591 -0.8208 -0.3386
   85CHL1  H22A 8753   3.552   1.189   7.822  1.3674  1.6928 -0.4887
   85CHL1  H22B 8754   3.452   1.334   7.794  1.0205 -0.6962  0.9922
   85CHL1   C23 8755   3.357   1.212   7.927  0.2472  0.5178  0.2084
   85CHL1  H23A 8756   3.255   1.251   7.908 -0.3856 -1.3822 -0.3910
   85CHL1  H23B 8757   3.332   1.107   7.952 -1.2026  0.5429 -1.0230
   85CHL1   C24 8758   3.409   1.292   8.041  0.1365 -0.5770 -0.1619
   85CHL1  H24A 8759   3.508   1.257   8.079  0.2662  1.9853  2.0440
   85CHL1  H24B 8760   3.415   1.399   8.012  1.4974 -1.3067 -2.7498
   85CHL1   C25 8761   3.306   1.282   8.159 -0.1394 -0.0669  0.2015
   85CHL1   H25 8762   3.215   1.339   8.129  0.0058  0.7657  1.3144
   85CHL1   C26 8763   3.266   1.131   8.196  0.3364  0.1704 -0.6801
   85CHL1  H26A 8764   3.245   1.120   8.305  2.4241 -0.5006 -0.3280
   85CHL1  H26B 8765   3.174   1.102   8.140 -1.1156 -1.5884  2.4581
   85CHL1  H26C 8766   3.352   1.062   8.182  0.6603  0.2569  0.8224
   85CHL1   C27 8767   3.366   1.338   8.287 -0.0305 -0.4808  0.3710
   85CHL1  H27A 8768   3.373   1.449   8.276 -2.3014 -0.3170  0.1599
   85CHL1  H27B 8769   3.305   1.313   8.377 -0.1611 -0.4986  0.2770
   85CHL1  H27C 8770   3.467   1.299   8.308 -0.2351 -1.1490  0.1142
   86CHL1    C3 8771   5.362   5.911   6.981 -0.3735  0.3054  0.7473
   86CHL1    H3 8772   5.303   6.004   6.993  2.0802  1.8251  1.3913
   86CHL1    O3 8773   5.375   5.893   6.842  0.0471 -0.2695  0.7337
   86CHL1   H3' 8774   5.451   5.834   6.836  0.0036 -0.3021  0.4763
   86CHL1    C4 8775   5.496   5.934   7.058  0.5395  0.1629  0.2467
   86CHL1   H4A 8776   5.570   5.856   7.031  0.2758  0.3627 -1.0974
   86CHL1   H4B 8777   5.543   6.026   7.014  2.0923 -1.0879 -0.7744
   86CHL1    C5 8778   5.479   5.940   7.214 -0.5222  0.1467 -0.5516
   86CHL1    C6 8779   5.546   6.028   7.291 -0.7869 -0.3400  0.3731
   86CHL1    H6 8780   5.619   6.093   7.241  0.8402 -2.3506  0.0812
   86CHL1    C7 8781   5.535   6.041   7.440 -0.1957  0.1164  0.3289
   86CHL1   H7A 8782   5.635   6.039   7.488 -0.1477 -0.9976  0.1952
   86CHL1   H7B 8783   5.487   6.136   7.473  0.6558  1.3118 -1.7621
   86CHL1    C8 8784   5.451   5.928   7.517 -0.1901  0.7593  0.4146
   86CHL1    H8 8785   5.523   5.843   7.530  2.6811  2.8284 -1.3773
   86CHL1   C14 8786   5.397   5.971   7.657 -0.8806 -0.3816  0.2213
   86CHL1   H14 8787   5.324   6.049   7.628  0.9233  1.1982 -0.1564
   86CHL1   C15 8788   5.484   6.041   7.765  0.3879 -0.5353 -0.1234
   86CHL1  H15A 8789   5.589   6.004   7.766 -0.0661 -1.8817 -0.8308
   86CHL1  H15B 8790   5.496   6.149   7.745  1.0893 -0.1943  2.0173
   86CHL1   C16 8791   5.407   6.013   7.894 -0.8288 -0.2218 -0.0204
   86CHL1  H16A 8792   5.472   5.939   7.945  2.2762 -1.0866 -4.8794
   86CHL1  H16B 8793   5.392   6.106   7.953 -0.5953 -1.0544  1.3574
   86CHL1   C17 8794   5.279   5.934   7.854 -0.2467  1.3621 -0.3813
   86CHL1   H17 8795   5.205   6.006   7.814 -0.5175  1.3729  0.1302
   86CHL1   C13 8796   5.323   5.862   7.728  0.2642 -0.2558  0.0360
   86CHL1   C18 8797   5.415   5.742   7.761  0.2192  0.3144 -0.0341
   86CHL1  H18A 8798   5.516   5.767   7.799  2.0004 -2.1625 -2.8691
   86CHL1  H18B 8799   5.365   5.683   7.840 -1.6420 -0.1733 -1.5446
   86CHL1  H18C 8800   5.433   5.673   7.676  2.9258  2.5803 -1.3808
   86CHL1   C12 8801   5.209   5.817   7.633 -0.6340 -0.8474 -0.0235
   86CHL1  H12A 8802   5.141   5.742   7.680 -1.5620  1.4499  2.4946
   86CHL1  H12B 8803   5.143   5.904   7.612  2.0264  1.3265  0.3406
   86CHL1   C11 8804   5.263   5.765   7.500  0.3992  0.4961  0.3154
   86CHL1  H11A 8805   5.331   5.677   7.500 -1.1519 -0.7235  1.1377
   86CHL1  H11B 8806   5.173   5.743   7.439  1.3866  2.9826 -2.0881
   86CHL1    C9 8807   5.340   5.876   7.426 -0.1912  0.2389  0.4819
   86CHL1    H9 8808   5.266   5.957   7.408 -3.0129 -2.1878  0.7378
   86CHL1   C10 8809   5.380   5.837   7.279 -0.5447  0.0412  0.2124
   86CHL1   C19 8810   5.460   5.708   7.273 -0.1112 -0.1425  0.1736
   86CHL1  H19A 8811   5.555   5.713   7.330  1.1648 -0.8018 -1.8410
   86CHL1  H19B 8812   5.398   5.621   7.304  1.6160 -1.6381 -0.4489
   86CHL1  H19C 8813   5.477   5.686   7.165  0.3495  0.0832  0.1992
   86CHL1    C1 8814   5.251   5.813   7.186  0.2564  0.0261 -0.7268
   86CHL1   H1A 8815   5.189   5.731   7.227  0.7065  0.1544  0.2230
   86CHL1   H1B 8816   5.193   5.907   7.196  0.5892  0.3855 -2.1021
   86CHL1    C2 8817   5.278   5.797   7.032  0.3949 -0.5337 -0.0136
   86CHL1   H2A 8818   5.184   5.798   6.973  0.8581 -0.5045 -0.7614
   86CHL1   H2B 8819   5.321   5.696   7.017 -0.2610 -0.6394 -1.2651
   86CHL1   C20 8820   5.223   5.854   7.971  0.0338  0.5624 -0.3590
   86CHL1   H20 8821   5.287   5.771   8.008  0.3462  1.3328  0.8571
   86CHL1   C21 8822   5.090   5.793   7.931  0.4285  0.0408 -0.6957
   86CHL1  H21A 8823   5.029   5.768   8.021  1.4182 -1.1297 -0.3362
   86CHL1  H21B 8824   5.105   5.699   7.873  1.9861  0.2756 -0.6997
   86CHL1  H21C 8825   5.027   5.869   7.880  0.1799 -0.1753 -0.7126
   86CHL1   C22 8826   5.206   5.949   8.092  0.0992 -0.2016  0.5080
   86CHL1  H22A 8827   5.313   5.959   8.121  0.2823 -0.4133 -0.0887
   86CHL1  H22B 8828   5.173   6.050   8.059 -2.0980 -1.0985 -0.0784
   86CHL1   C23 8829   5.123   5.905   8.217 -0.1761 -0.2035 -0.2387
   86CHL1  H23A 8830   5.104   5.999   8.274  1.1876  0.8347 -1.4552
   86CHL1  H23B 8831   5.021   5.879   8.183 -0.0422 -1.8980  0.5868
   86CHL1   C24 8832   5.177   5.791   8.303 -0.0566  0.1227  0.2078
   86CHL1  H24A 8833   5.186   5.706   8.232 -4.8774  0.0030 -0.3695
   86CHL1  H24B 8834   5.275   5.806   8.353 -0.3988 -0.1847  0.9742
   86CHL1   C25 8835   5.079   5.755   8.410 -0.1224  0.5743 -0.2094
   86CHL1   H25 8836   4.977   5.733   8.373 -1.0423 -0.4844  2.8098
   86CHL1   C26 8837   5.123   5.622   8.468 -0.0421 -0.5366 -1.0659
   86CHL1  H26A 8838   5.220   5.640   8.519 -0.6087  0.0288 -0.1594
   86CHL1  H26B 8839   5.050   5.580   8.541 -0.7040  0.4774 -1.1351
   86CHL1  H26C 8840   5.137   5.555   8.381  2.8153 -2.2892  0.6615
   86CHL1   C27 8841   5.074   5.858   8.527  0.4462 -0.1084  0.0340
   86CHL1  H27A 8842   5.165   5.852   8.591 -0.6999 -1.6186  1.5666
   86CHL1  H27B 8843   5.052   5.958   8.483  0.5267 -0.5388 -1.0058
   86CHL1  H27C 8844   4.983   5.827   8.582 -1.4297  0.5944 -2.5472
   87CHL1    C3 8845   5.317   3.892   6.985  0.1296 -0.3127 -0.5799
   87CHL1    H3 8846   5.289   3.995   6.954  0.9589  0.2264  0.4207
   87CHL1    O3 8847   5.400   3.836   6.885  0.1911 -0.4849  0.5805
   87CHL1   H3' 8848   5.426   3.748   6.916 -1.5548 -0.9762  0.6885
   87CHL1    C4 8849   5.411   3.898   7.108 -0.4818  0.4756  0.1241
   87CHL1   H4A 8850   5.465   3.801   7.112 -1.4895 -0.1015 -0.0640
   87CHL1   H4B 8851   5.492   3.972   7.090  1.0987 -1.4287 -0.6907
   87CHL1    C5 8852   5.341   3.905   7.250  1.1296 -0.3167  0.3564
   87CHL1    C6 8853   5.387   3.998   7.337 -0.3768  0.7401 -0.1298
   87CHL1    H6 8854   5.478   4.055   7.317  0.3239 -0.5297 -0.6245
   87CHL1    C7 8855   5.327   4.011   7.476 -0.5487  0.6470  0.7949
   87CHL1   H7A 8856   5.414   4.008   7.545  0.9391 -0.8394 -1.1005
   87CHL1   H7B 8857   5.288   4.115   7.485  2.2801  1.6370  2.0868
   87CHL1    C8 8858   5.223   3.910   7.514  0.1652 -0.1957  0.1206
   87CHL1    H8 8859   5.276   3.820   7.549 -0.6877 -1.2297 -1.1763
   87CHL1   C14 8860   5.138   3.969   7.628 -0.4822 -0.3346  0.4318
   87CHL1   H14 8861   5.075   4.054   7.593  0.9451  0.5262 -0.0901
   87CHL1   C15 8862   5.213   4.022   7.750  0.0053  0.0686 -0.6594
   87CHL1  H15A 8863   5.294   3.950   7.775 -0.4134 -1.3713 -3.2706
   87CHL1  H15B 8864   5.253   4.124   7.733 -0.7191  0.6340  0.9536
   87CHL1   C16 8865   5.103   4.021   7.859  0.8690 -0.4634  0.3827
   87CHL1  H16A 8866   5.149   3.952   7.934  2.0192 -0.8234 -0.6387
   87CHL1  H16B 8867   5.083   4.121   7.903  0.7228  0.3662 -1.5455
   87CHL1   C17 8868   4.984   3.954   7.796 -0.5275 -0.1604 -0.0840
   87CHL1   H17 8869   4.939   4.037   7.737  2.5166  0.4821 -1.5800
   87CHL1   C13 8870   5.041   3.867   7.676 -0.4739 -0.3275  0.4978
   87CHL1   C18 8871   5.102   3.730   7.732  0.8176 -0.2490 -0.8461
   87CHL1  H18A 8872   5.156   3.666   7.659  0.2639  0.0751 -1.5423
   87CHL1  H18B 8873   5.166   3.758   7.819 -0.7072  2.3009 -0.5005
   87CHL1  H18C 8874   5.019   3.667   7.770  1.0168  0.1389  0.2702
   87CHL1   C12 8875   4.940   3.848   7.561  0.3678 -0.2045  0.5730
   87CHL1  H12A 8876   4.858   3.790   7.608  0.5590 -1.0778 -0.1542
   87CHL1  H12B 8877   4.897   3.943   7.524  0.4819 -1.1664 -2.1841
   87CHL1   C11 8878   5.012   3.784   7.445  0.3948  0.1006  0.9922
   87CHL1  H11A 8879   5.061   3.690   7.476  3.1906  0.9361 -0.6237
   87CHL1  H11B 8880   4.947   3.761   7.358 -0.7940 -2.3305  2.4812
   87CHL1    C9 8881   5.132   3.875   7.393  0.3020 -0.8533 -0.0466
   87CHL1    H9 8882   5.089   3.974   7.364 -0.2104 -0.3394  2.3338
   87CHL1   C10 8883   5.208   3.826   7.269 -0.1294 -0.7628 -0.1125
   87CHL1   C19 8884   5.254   3.682   7.302  0.6244 -0.1942 -0.4796
   87CHL1  H19A 8885   5.324   3.679   7.388 -2.2536  2.4047  2.0112
   87CHL1  H19B 8886   5.172   3.611   7.325  2.9468 -2.0081  2.5961
   87CHL1  H19C 8887   5.312   3.645   7.214  0.1715 -0.1693 -0.7910
   87CHL1    C1 8888   5.122   3.835   7.140 -0.2489 -0.0584 -0.0322
   87CHL1   H1A 8889   5.028   3.778   7.150  0.1006 -0.6524 -0.1035
   87CHL1   H1B 8890   5.102   3.942   7.118  0.4777 -0.2269 -1.5962
   87CHL1    C2 8891   5.203   3.794   7.019  0.9208 -0.0650  0.3365
   87CHL1   H2A 8892   5.142   3.794   6.925  2.0367 -1.3873 -0.4073
   87CHL1   H2B 8893   5.244   3.691   7.028 -0.2167 -0.7118 -1.5163
   87CHL1   C20 8894   4.870   3.900   7.884  0.0450  0.5411 -0.4173
   87CHL1   H20 8895   4.803   3.830   7.831  2.1683 -0.0729 -2.3888
   87CHL1   C21 8896   4.790   4.019   7.939  0.2303  0.0114 -0.5682
   87CHL1  H21A 8897   4.725   4.074   7.869 -2.5834 -0.3258  1.6799
   87CHL1  H21B 8898   4.861   4.094   7.980 -0.0330  1.4281 -2.6429
   87CHL1  H21C 8899   4.726   3.993   8.026  1.9338  0.2757  0.7940
   87CHL1   C22 8900   4.919   3.813   7.997 -0.7502  0.0294 -0.1580
   87CHL1  H22A 8901   5.004   3.748   7.969 -1.0184 -1.1293  1.6661
   87CHL1  H22B 8902   4.960   3.885   8.072  1.7300 -1.1909 -0.2982
   87CHL1   C23 8903   4.813   3.730   8.060  0.3954  0.4809 -0.0718
   87CHL1  H23A 8904   4.729   3.784   8.110 -1.5309 -1.8287 -0.7635
   87CHL1  H23B 8905   4.752   3.670   7.990 -2.4678  2.8849  0.2660
   87CHL1   C24 8906   4.871   3.644   8.176 -0.5678 -0.5247  0.1830
   87CHL1  H24A 8907   4.791   3.576   8.210 -1.4637  0.8506  0.8878
   87CHL1  H24B 8908   4.959   3.589   8.138  1.0352  2.3868 -0.4877
   87CHL1   C25 8909   4.926   3.722   8.295 -0.1101  0.0709  0.3545
   87CHL1   H25 8910   5.015   3.783   8.265  1.2018 -1.7605  0.4467
   87CHL1   C26 8911   4.811   3.800   8.362 -0.4402 -0.2159 -0.7083
   87CHL1  H26A 8912   4.735   3.721   8.382  1.6366 -1.5756  2.0580
   87CHL1  H26B 8913   4.843   3.858   8.451 -0.0020  0.2159 -1.1484
   87CHL1  H26C 8914   4.772   3.880   8.296 -1.6854  0.7027  1.1161
   87CHL1   C27 8915   4.988   3.633   8.403 -0.6732 -0.1318 -0.5270
   87CHL1  H27A 8916   4.926   3.547   8.438  2.0834 -1.5184  1.1416
   87CHL1  H27B 8917   5.072   3.571   8.364 -0.6804 -1.1544  1.0147
   87CHL1  H27C 8918   5.028   3.695   8.486  2.3972 -0.3197 -1.7815
   88CHL1    C3 8919   3.278   2.444   7.014  0.7709 -0.2898 -0.0608
   88CHL1    H3 8920   3.369   2.497   7.050  0.3411  0.4766 -0.0863
   88CHL1    O3 8921   3.280   2.439   6.877 -0.2157  0.1174 -0.8349
   88CHL1   H3' 8922   3.270   2.346   6.857  1.8080 -0.1244 -0.8330
   88CHL1    C4 8923   3.289   2.305   7.071 -0.7199  0.2579  0.0155
   88CHL1   H4A 8924   3.199   2.248   7.037 -0.2227  0.8302 -2.3465
   88CHL1   H4B 8925   3.373   2.253   7.020 -2.6398 -2.7590 -0.2035
   88CHL1    C5 8926   3.300   2.308   7.221  0.6273 -0.7541 -0.0789
   88CHL1    C6 8927   3.412   2.267   7.285  0.9651  0.5783 -0.3389
   88CHL1    H6 8928   3.492   2.225   7.222  2.0609  0.2924  1.2202
   88CHL1    C7 8929   3.433   2.276   7.437 -0.0928 -0.3731  0.2646
   88CHL1   H7A 8930   3.490   2.184   7.460 -0.2233 -0.4866  0.1411
   88CHL1   H7B 8931   3.480   2.375   7.457  0.6834 -0.7685  0.3782
   88CHL1    C8 8932   3.298   2.288   7.510  0.2404 -1.2092  0.1712
   88CHL1    H8 8933   3.248   2.191   7.494 -1.8684  0.5273 -4.6140
   88CHL1   C14 8934   3.324   2.322   7.654 -0.0321 -0.0289 -0.0959
   88CHL1   H14 8935   3.371   2.422   7.661  0.0360 -0.0439 -0.3346
   88CHL1   C15 8936   3.422   2.235   7.737  0.4568 -0.0213 -0.1427
   88CHL1  H15A 8937   3.391   2.131   7.713  0.1069  0.4119 -1.6306
   88CHL1  H15B 8938   3.524   2.268   7.709  0.8752 -1.8385 -0.8471
   88CHL1   C16 8939   3.382   2.266   7.883 -0.5289  0.4444  0.2296
   88CHL1  H16A 8940   3.352   2.175   7.939 -1.4270  1.0628  0.7632
   88CHL1  H16B 8941   3.454   2.329   7.940 -0.0178 -0.6998  0.8684
   88CHL1   C17 8942   3.251   2.350   7.880 -0.0395 -0.9211  0.7869
   88CHL1   H17 8943   3.278   2.457   7.884 -0.6604 -0.8004  1.6558
   88CHL1   C13 8944   3.197   2.326   7.739  0.0367 -0.1091  0.6586
   88CHL1   C18 8945   3.128   2.188   7.740 -0.4717  0.1970 -0.0649
   88CHL1  H18A 8946   3.186   2.106   7.787 -0.7358  0.3132  0.4664
   88CHL1  H18B 8947   3.029   2.200   7.789 -0.5908  1.6926 -0.6554
   88CHL1  H18C 8948   3.104   2.143   7.641  1.4962  0.4055 -0.6498
   88CHL1   C12 8949   3.102   2.435   7.672  0.1851 -0.2920  0.2483
   88CHL1  H12A 8950   3.001   2.415   7.715 -0.1015  1.2029  0.3071
   88CHL1  H12B 8951   3.138   2.536   7.702 -2.1100 -0.2259  3.0661
   88CHL1   C11 8952   3.079   2.421   7.523 -0.6528  0.2036  0.2597
   88CHL1  H11A 8953   3.021   2.326   7.528 -1.5778  0.8526  2.3600
   88CHL1  H11B 8954   3.034   2.511   7.478  0.6326  0.2269 -1.0361
   88CHL1    C9 8955   3.213   2.395   7.447 -0.1333  0.2709 -0.4763
   88CHL1    H9 8956   3.273   2.488   7.451 -0.2380  0.2708  1.6704
   88CHL1   C10 8957   3.179   2.373   7.295 -0.0983 -0.2731  0.1410
   88CHL1   C19 8958   3.053   2.286   7.270 -0.1192 -0.5393  0.4646
   88CHL1  H19A 8959   3.071   2.190   7.324 -0.0213 -0.5158  0.4741
   88CHL1  H19B 8960   2.965   2.343   7.306 -0.5054 -0.8758  0.0528
   88CHL1  H19C 8961   3.034   2.261   7.164 -1.5012  1.2908  0.2740
   88CHL1    C1 8962   3.157   2.511   7.224 -0.2220  0.7908 -0.0680
   88CHL1   H1A 8963   3.070   2.571   7.257  0.7815  1.7799  0.8107
   88CHL1   H1B 8964   3.242   2.578   7.250 -0.0366  0.1766  0.9659
   88CHL1    C2 8965   3.152   2.515   7.069 -0.3444 -0.4697 -0.0964
   88CHL1   H2A 8966   3.157   2.621   7.036 -0.8861 -0.2329  0.5671
   88CHL1   H2B 8967   3.063   2.465   7.024 -1.0950 -0.6250  1.5176
   88CHL1   C20 8968   3.155   2.327   8.000 -0.5446 -0.3558  0.0643
   88CHL1   H20 8969   3.112   2.225   8.000  0.1465 -0.6518  0.5511
   88CHL1   C21 8970   3.027   2.421   7.994 -0.6363  0.7720  0.0659
   88CHL1  H21A 8971   2.977   2.420   8.093  2.5103 -0.6832  1.7000
   88CHL1  H21B 8972   2.958   2.381   7.917 -1.2064 -0.8076  1.3833
   88CHL1  H21C 8973   3.067   2.523   7.973 -0.6921  0.3815 -2.0525
   88CHL1   C22 8974   3.225   2.357   8.136  0.5787 -0.3916 -0.0370
   88CHL1  H22A 8975   3.333   2.335   8.126  0.8168  0.9386 -0.4610
   88CHL1  H22B 8976   3.219   2.466   8.156 -0.1141 -0.3127 -0.6497
   88CHL1   C23 8977   3.167   2.275   8.257 -0.2955  0.5509  0.4792
   88CHL1  H23A 8978   3.058   2.293   8.257 -0.6666 -1.5916  0.7154
   88CHL1  H23B 8979   3.172   2.169   8.225 -1.3237  1.5584 -3.2123
   88CHL1   C24 8980   3.235   2.311   8.389  0.1816  0.5525 -0.6070
   88CHL1  H24A 8981   3.345   2.300   8.374  0.7663  2.2537  2.0174
   88CHL1  H24B 8982   3.223   2.419   8.413  0.1890  0.1481  1.3185
   88CHL1   C25 8983   3.191   2.213   8.506 -0.3900 -0.0730 -0.1860
   88CHL1   H25 8984   3.080   2.208   8.500 -0.2540 -2.9441 -1.2107
   88CHL1   C26 8985   3.243   2.075   8.478  0.6291 -0.1751  0.2156
   88CHL1  H26A 8986   3.343   2.077   8.430  0.8636  2.1481  0.7585
   88CHL1  H26B 8987   3.260   2.019   8.572 -0.1541  0.2177  0.6006
   88CHL1  H26C 8988   3.166   2.022   8.418  1.4597 -1.9461  0.6991
   88CHL1   C27 8989   3.247   2.263   8.637 -0.2381  0.3397  0.1007
   88CHL1  H27A 8990   3.356   2.284   8.636 -0.5609  2.3597  2.0217
   88CHL1  H27B 8991   3.207   2.365   8.658  0.8783  0.3570  2.2270
   88CHL1  H27C 8992   3.229   2.192   8.720  0.0218  0.7922  0.5484
   89CHL1    C3 8993   6.264   5.672   7.085  0.0406  0.2823  0.5444
   89CHL1    H3 8994   6.166   5.723   7.099 -0.2236 -0.4438  1.3331
   89CHL1    O3 8995   6.317   5.691   6.947 -0.3790 -0.0424 -0.1408
   89CHL1   H3' 8996   6.248   5.665   6.885  0.7917 -1.4975 -0.8645
   89CHL1    C4 8997   6.358   5.752   7.180 -0.5486  0.5698  0.8075
   89CHL1   H4A 8998   6.456   5.710   7.149 -1.3828 -1.0707  0.3382
   89CHL1   H4B 8999   6.354   5.859   7.150 -0.9002  0.9388  2.1404
   89CHL1    C5 9000   6.329   5.718   7.325  0.1660  0.6383  0.7079
   89CHL1    C6 9001   6.309   5.823   7.406 -0.3482  0.3812  0.6227
   89CHL1    H6 9002   6.304   5.924   7.363 -0.9758  0.4933  0.9532
   89CHL1    C7 9003   6.283   5.816   7.556  0.2284 -0.4861  0.0367
   89CHL1   H7A 9004   6.342   5.899   7.601  2.6861 -1.6906 -0.8668
   89CHL1   H7B 9005   6.174   5.831   7.573  0.2664 -0.0692 -0.0806
   89CHL1    C8 9006   6.318   5.676   7.606  0.0203  0.3045 -0.2315
   89CHL1    H8 9007   6.428   5.670   7.619  0.0649 -0.2148 -0.8289
   89CHL1   C14 9008   6.253   5.656   7.743 -0.6132 -0.4136 -0.1691
   89CHL1   H14 9009   6.146   5.649   7.713 -0.2630 -1.3920 -1.2798
   89CHL1   C15 9010   6.268   5.769   7.854  0.1540  0.3799 -0.1495
   89CHL1  H15A 9011   6.374   5.802   7.844  0.4688 -0.6232 -0.1372
   89CHL1  H15B 9012   6.188   5.846   7.841 -2.0940 -1.8865 -0.1100
   89CHL1   C16 9013   6.257   5.695   7.987  0.4766  0.0403  0.3014
   89CHL1  H16A 9014   6.348   5.725   8.044  0.3360  0.1054  0.4914
   89CHL1  H16B 9015   6.167   5.726   8.045  0.3969 -1.0825  0.7763
   89CHL1   C17 9016   6.235   5.542   7.957 -0.1261  0.2038 -0.1268
   89CHL1   H17 9017   6.126   5.537   7.936  0.0476  2.2369 -1.7164
   89CHL1   C13 9018   6.292   5.524   7.813  0.1470  1.3706  0.2548
   89CHL1   C18 9019   6.448   5.517   7.831 -0.0887  0.1512  0.0483
   89CHL1  H18A 9020   6.491   5.585   7.907  1.6413 -1.1512  0.2488
   89CHL1  H18B 9021   6.466   5.413   7.865 -2.6214 -0.5511 -0.6584
   89CHL1  H18C 9022   6.507   5.520   7.737  0.4594 -1.8088  0.3108
   89CHL1   C12 9023   6.232   5.415   7.728 -0.1865 -0.3269 -0.1283
   89CHL1  H12A 9024   6.250   5.317   7.777 -0.5767 -0.1947  0.2831
   89CHL1  H12B 9025   6.122   5.425   7.742  0.1496  0.6835  1.9701
   89CHL1   C11 9026   6.271   5.422   7.576  0.8712 -1.1088 -0.3311
   89CHL1  H11A 9027   6.372   5.377   7.565  1.3540 -0.5069  1.5996
   89CHL1  H11B 9028   6.193   5.362   7.524 -0.1687  1.3011 -1.6085
   89CHL1    C9 9029   6.265   5.566   7.513  0.4329  0.4574 -0.4436
   89CHL1    H9 9030   6.155   5.578   7.505  0.0247 -2.5321  0.0703
   89CHL1   C10 9031   6.320   5.574   7.369  0.2683 -0.3008  0.4347
   89CHL1   C19 9032   6.465   5.518   7.364  0.8159 -0.6146  0.3827
   89CHL1  H19A 9033   6.465   5.407   7.365  0.3228 -0.6826 -3.1533
   89CHL1  H19B 9034   6.515   5.548   7.270 -2.1215  0.7201 -0.8194
   89CHL1  H19C 9035   6.530   5.545   7.450  3.3753  0.1026 -1.7042
   89CHL1    C1 9036   6.227   5.504   7.266 -0.1089  0.2869  0.1966
   89CHL1   H1A 9037   6.245   5.396   7.284  0.9183  0.2723 -0.8102
   89CHL1   H1B 9038   6.121   5.526   7.290 -0.8225 -1.8071 -0.8893
   89CHL1    C2 9039   6.252   5.531   7.121  0.2635  0.5919  0.0362
   89CHL1   H2A 9040   6.174   5.480   7.061  0.2868  2.1328 -1.3788
   89CHL1   H2B 9041   6.348   5.479   7.099 -0.5904 -0.6238 -0.9035
   89CHL1   C20 9042   6.272   5.435   8.069 -0.6178 -0.3175  0.1491
   89CHL1   H20 9043   6.307   5.346   8.012 -0.2494 -0.4058  0.5157
   89CHL1   C21 9044   6.139   5.391   8.132  0.4674  0.3349 -0.0736
   89CHL1  H21A 9045   6.079   5.476   8.172  0.0832  1.0067 -2.0489
   89CHL1  H21B 9046   6.158   5.322   8.217 -0.2688 -1.4009 -1.2860
   89CHL1  H21C 9047   6.076   5.337   8.059 -0.3234 -2.8470  2.8210
   89CHL1   C22 9048   6.367   5.478   8.172  0.4799 -0.4614 -0.6427
   89CHL1  H22A 9049   6.440   5.534   8.110 -0.6074 -0.6842 -2.1385
   89CHL1  H22B 9050   6.320   5.555   8.236  3.4667  2.2822 -1.6318
   89CHL1   C23 9051   6.443   5.365   8.239  0.3007 -0.5319  0.5021
   89CHL1  H23A 9052   6.382   5.275   8.219  3.2852 -1.8722 -3.1708
   89CHL1  H23B 9053   6.532   5.348   8.176  0.7987  1.8721  0.5047
   89CHL1   C24 9054   6.476   5.376   8.394  0.4837 -0.3296  0.2079
   89CHL1  H24A 9055   6.376   5.398   8.438  0.9110  0.0562  0.9974
   89CHL1  H24B 9056   6.517   5.284   8.439  0.7674 -0.6257 -0.6577
   89CHL1   C25 9057   6.572   5.486   8.427 -0.0483 -0.6415 -0.8148
   89CHL1   H25 9058   6.538   5.582   8.383 -3.4751 -1.5877 -0.3694
   89CHL1   C26 9059   6.585   5.513   8.581  0.0944 -0.0586 -0.4944
   89CHL1  H26A 9060   6.631   5.426   8.632  0.8103  0.8530  0.4399
   89CHL1  H26B 9061   6.650   5.601   8.603  0.5999 -0.5611  0.0203
   89CHL1  H26C 9062   6.486   5.537   8.625  1.5976  1.8708  2.0012
   89CHL1   C27 9063   6.712   5.454   8.372 -0.5148 -0.7740 -0.3642
   89CHL1  H27A 9064   6.718   5.475   8.263 -1.1672 -0.9223 -0.4282
   89CHL1  H27B 9065   6.793   5.508   8.426  0.4841 -0.7150 -1.8965
   89CHL1  H27C 9066   6.737   5.348   8.394 -0.9308 -1.1086 -1.5148
   90CHL1    C3 9067   6.527   0.700   6.875 -0.3319 -0.0916  0.1775
   90CHL1    H3 9068   6.625   0.646   6.870 -0.9217 -1.1308 -0.3902
   90CHL1    O3 9069   6.493   0.746   6.746 -0.3233  0.3850 -0.4943
   90CHL1   H3' 9070   6.413   0.796   6.765 -0.4397 -0.7481  2.2780
   90CHL1    C4 9071   6.424   0.595   6.918 -0.5888  0.5414  0.4839
   90CHL1   H4A 9072   6.328   0.648   6.902 -1.1460 -0.0695  1.7490
   90CHL1   H4B 9073   6.417   0.523   6.833  2.9072  1.1616 -0.4114
   90CHL1    C5 9074   6.437   0.538   7.051 -0.6224  0.0426 -0.3010
   90CHL1    C6 9075   6.453   0.408   7.075 -0.0904 -0.0922 -0.2493
   90CHL1    H6 9076   6.454   0.341   6.988  0.4706  2.1838 -2.0728
   90CHL1    C7 9077   6.462   0.343   7.205 -0.0536 -0.0488 -0.4606
   90CHL1   H7A 9078   6.394   0.256   7.219 -0.7374  0.1867 -2.1701
   90CHL1   H7B 9079   6.567   0.307   7.211 -1.2126 -3.3485  1.2965
   90CHL1    C8 9080   6.424   0.445   7.321 -0.4278 -0.7771  0.0164
   90CHL1    H8 9081   6.314   0.449   7.330 -0.3055  1.6397  0.5903
   90CHL1   C14 9082   6.472   0.395   7.463 -0.9810 -0.3007 -0.8643
   90CHL1   H14 9083   6.582   0.403   7.450 -0.7453 -3.3591 -1.1354
   90CHL1   C15 9084   6.433   0.251   7.514 -0.5707 -0.6389  0.7443
   90CHL1  H15A 9085   6.329   0.229   7.482 -0.8457 -0.1356  1.2801
   90CHL1  H15B 9086   6.496   0.183   7.453  1.0668  1.0047  0.5673
   90CHL1   C16 9087   6.446   0.256   7.667 -0.0906  0.3934  0.1557
   90CHL1  H16A 9088   6.350   0.222   7.711  0.1045 -0.6398 -0.2107
   90CHL1  H16B 9089   6.514   0.185   7.718 -0.9997 -0.0419  0.7756
   90CHL1   C17 9090   6.481   0.403   7.700  0.2301  0.7457 -0.0502
   90CHL1   H17 9091   6.592   0.410   7.710  0.3134 -1.0389  0.3028
   90CHL1   C13 9092   6.439   0.486   7.579 -0.6693 -0.1673  0.0908
   90CHL1   C18 9093   6.285   0.516   7.589  0.1988  1.0882  0.0699
   90CHL1  H18A 9094   6.237   0.542   7.492  0.6710  0.4654 -0.3345
   90CHL1  H18B 9095   6.221   0.435   7.631  0.3643  1.3489  0.8220
   90CHL1  H18C 9096   6.266   0.607   7.651 -2.4207  1.0235 -0.5666
   90CHL1   C12 9097   6.496   0.623   7.545  0.2977 -0.1655 -0.4059
   90CHL1  H12A 9098   6.464   0.692   7.625  1.1648 -0.2163 -0.0155
   90CHL1  H12B 9099   6.607   0.622   7.549  0.3831  1.3869 -1.8916
   90CHL1   C11 9100   6.445   0.680   7.414  0.2295  0.2390 -0.0430
   90CHL1  H11A 9101   6.340   0.709   7.433  0.6285  0.5235  1.8180
   90CHL1  H11B 9102   6.510   0.768   7.394 -0.4638  0.4561 -1.3774
   90CHL1    C9 9103   6.471   0.584   7.293 -0.6455 -0.1621 -0.7299
   90CHL1    H9 9104   6.581   0.579   7.285 -0.8447 -0.4116 -3.9588
   90CHL1   C10 9105   6.437   0.644   7.159  0.2953  0.7446  0.0107
   90CHL1   C19 9106   6.299   0.712   7.160 -0.9217 -0.1110  0.0928
   90CHL1  H19A 9107   6.269   0.759   7.064  1.3324  0.3300 -0.4014
   90CHL1  H19B 9108   6.222   0.633   7.173 -2.3196  1.0313 -0.9717
   90CHL1  H19C 9109   6.284   0.781   7.246  2.0964  0.1070  0.4706
   90CHL1    C1 9110   6.534   0.766   7.121 -0.6480  0.1820  0.4383
   90CHL1   H1A 9111   6.511   0.856   7.181  3.4512  1.4857  0.1876
   90CHL1   H1B 9112   6.636   0.733   7.152 -0.8712 -0.5138  0.4538
   90CHL1    C2 9113   6.531   0.816   6.976 -0.3634 -0.1330 -0.1507
   90CHL1   H2A 9114   6.610   0.887   6.945  0.9484 -1.7942 -0.6935
   90CHL1   H2B 9115   6.433   0.864   6.956 -0.4885 -1.0385 -1.7473
   90CHL1   C20 9116   6.432   0.450   7.840 -0.5169  0.4978  0.0452
   90CHL1   H20 9117   6.321   0.454   7.831 -0.7029 -1.8730  0.8062
   90CHL1   C21 9118   6.498   0.581   7.879 -0.1401 -0.1141 -0.0564
   90CHL1  H21A 9119   6.488   0.601   7.988 -3.0328 -1.6805  0.0261
   90CHL1  H21B 9120   6.444   0.660   7.824 -3.7751 -0.6221  2.5733
   90CHL1  H21C 9121   6.609   0.586   7.870 -0.2489  1.3192 -0.6733
   90CHL1   C22 9122   6.457   0.343   7.950  0.0644  0.1548  0.5453
   90CHL1  H22A 9123   6.416   0.376   8.048  1.4544 -0.3101  1.2972
   90CHL1  H22B 9124   6.400   0.252   7.921  1.1962 -0.2434 -0.4483
   90CHL1   C23 9125   6.600   0.299   7.978  0.1526 -0.3602  0.0992
   90CHL1  H23A 9126   6.636   0.256   7.882 -0.9134  0.5211 -0.7076
   90CHL1  H23B 9127   6.665   0.387   8.001  0.5795 -0.4492 -0.7147
   90CHL1   C24 9128   6.618   0.208   8.106 -0.0820 -0.6216  0.2418
   90CHL1  H24A 9129   6.558   0.253   8.188  0.0178  1.0532 -0.5953
   90CHL1  H24B 9130   6.577   0.110   8.073  0.3649 -0.3275 -1.2072
   90CHL1   C25 9131   6.766   0.191   8.153 -0.3501  0.0729  0.0232
   90CHL1   H25 9132   6.809   0.287   8.191  0.7393 -0.4497  0.1202
   90CHL1   C26 9133   6.764   0.098   8.282  0.2092  0.1077  0.1722
   90CHL1  H26A 9134   6.861   0.110   8.333  0.0979 -0.0454  0.4233
   90CHL1  H26B 9135   6.683   0.129   8.352  0.6659 -1.0521  1.2372
   90CHL1  H26C 9136   6.754  -0.008   8.252  1.9751  0.0933 -0.3979
   90CHL1   C27 9137   6.852   0.124   8.048 -0.4076 -0.1168  0.6364
   90CHL1  H27A 9138   6.956   0.115   8.088 -0.1878 -1.7777 -0.2872
   90CHL1  H27B 9139   6.814   0.022   8.029 -2.0402  0.2114  2.0527
   90CHL1  H27C 9140   6.854   0.179   7.952  2.6956 -0.7505  0.2870
   91CHL1    C3 9141   1.079   1.933   7.238 -0.3652  0.2277 -0.0752
   91CHL1    H3 9142   1.177   1.979   7.259  0.8142 -0.8929 -2.9007
   91CHL1    O3 9143   1.071   1.921   7.094  0.6061  0.1119 -0.4381
   91CHL1   H3' 9144   0.983   1.890   7.072  1.0246 -0.5575 -1.1872
   91CHL1    C4 9145   1.054   1.789   7.297 -0.8067 -0.7372  0.5245
   91CHL1   H4A 9146   0.951   1.757   7.272 -0.4673 -0.8932 -0.7228
   91CHL1   H4B 9147   1.121   1.721   7.240  0.7929  2.9171 -2.2012
   91CHL1    C5 9148   1.069   1.801   7.449 -0.2415 -0.4053 -0.0676
   91CHL1    C6 9149   1.169   1.722   7.497  0.1738 -0.6361 -0.0852
   91CHL1    H6 9150   1.228   1.653   7.436 -1.6407 -2.0751 -0.2314
   91CHL1    C7 9151   1.202   1.727   7.649  0.0458 -0.0829  0.3204
   91CHL1   H7A 9152   1.197   1.623   7.688  0.0469 -0.3083 -0.2809
   91CHL1   H7B 9153   1.301   1.773   7.669 -0.5805  0.6284  1.8647
   91CHL1    C8 9154   1.099   1.800   7.735  0.2169  0.0833 -0.4510
   91CHL1    H8 9155   1.014   1.730   7.741  0.4806 -0.2720 -0.8500
   91CHL1   C14 9156   1.144   1.837   7.873 -0.1872  0.3198  0.2142
   91CHL1   H14 9157   1.222   1.915   7.863  0.0894  0.2245  1.5339
   91CHL1   C15 9158   1.220   1.729   7.959 -1.0845  0.1447  0.6788
   91CHL1  H15A 9159   1.177   1.627   7.950 -0.8538  0.2385 -1.8205
   91CHL1  H15B 9160   1.328   1.726   7.931 -1.3163  0.2663 -0.2466
   91CHL1   C16 9161   1.207   1.773   8.108  0.2185  0.2769  0.2105
   91CHL1  H16A 9162   1.149   1.686   8.144  0.2551  0.5035  0.8110
   91CHL1  H16B 9163   1.304   1.776   8.162  1.0657 -2.5126 -1.0552
   91CHL1   C17 9164   1.147   1.910   8.101 -0.3253  0.2425  0.3697
   91CHL1   H17 9165   1.234   1.974   8.075 -0.5102 -0.0906 -1.1044
   91CHL1   C13 9166   1.048   1.903   7.970 -0.4004  0.2274 -0.0080
   91CHL1   C18 9167   0.924   1.812   7.999 -0.8126  0.2948  0.3984
   91CHL1  H18A 9168   0.963   1.730   8.063 -0.6848  0.0810  0.0472
   91CHL1  H18B 9169   0.842   1.866   8.050 -1.6813 -1.9914  1.4940
   91CHL1  H18C 9170   0.880   1.791   7.899  0.6587 -1.3720  0.0826
   91CHL1   C12 9171   1.003   2.036   7.907 -0.5501  0.7043  0.0199
   91CHL1  H12A 9172   0.924   2.089   7.963  0.0309  0.0319  1.5194
   91CHL1  H12B 9173   1.093   2.102   7.905 -0.6435  0.9816  2.8418
   91CHL1   C11 9174   0.949   2.012   7.759 -0.7159  0.4910  0.0999
   91CHL1  H11A 9175   0.849   1.966   7.772 -0.7493  0.7401  0.7298
   91CHL1  H11B 9176   0.924   2.113   7.721 -1.4082 -0.0936 -1.0261
   91CHL1    C9 9177   1.043   1.929   7.664  0.5080 -0.1803  0.7081
   91CHL1    H9 9178   1.132   1.993   7.648 -0.3087  1.2032  1.5677
   91CHL1   C10 9179   0.979   1.905   7.523  0.1297 -0.3966 -0.2682
   91CHL1   C19 9180   0.831   1.841   7.520  0.2101  0.2227  0.2712
   91CHL1  H19A 9181   0.782   1.856   7.421  0.2620  0.8025  0.3291
   91CHL1  H19B 9182   0.819   1.732   7.536  0.8163  0.0373 -0.5164
   91CHL1  H19C 9183   0.773   1.901   7.594  0.4408  0.0350  0.6025
   91CHL1    C1 9184   0.980   2.038   7.436 -0.4273 -1.0884 -0.1344
   91CHL1   H1A 9185   0.896   2.096   7.480  2.6159  1.4576  2.5827
   91CHL1   H1B 9186   1.082   2.079   7.455  0.0596 -2.7012  0.7531
   91CHL1    C2 9187   0.970   2.023   7.288  0.5703  0.4970 -0.3246
   91CHL1   H2A 9188   0.982   2.120   7.236 -0.8238  2.2466  2.4703
   91CHL1   H2B 9189   0.878   1.973   7.249  1.9409 -1.0857 -1.5917
   91CHL1   C20 9190   1.083   1.970   8.221 -0.0884 -0.8286 -0.0411
   91CHL1   H20 9191   0.999   2.038   8.196 -0.6948 -1.6366 -0.1820
   91CHL1   C21 9192   1.189   2.066   8.282 -0.1653  0.6679 -0.2765
   91CHL1  H21A 9193   1.277   2.005   8.312 -1.1600  0.5791  2.5875
   91CHL1  H21B 9194   1.141   2.095   8.378  1.4026 -1.4365  1.2058
   91CHL1  H21C 9195   1.214   2.146   8.209 -4.8688  2.0118 -0.5657
   91CHL1   C22 9196   1.041   1.865   8.328  0.4092  0.5374 -0.1651
   91CHL1  H22A 9197   0.999   1.778   8.272  0.0515 -0.2273  1.2802
   91CHL1  H22B 9198   1.140   1.826   8.361 -0.4966 -0.2325  1.6915
   91CHL1   C23 9199   0.949   1.905   8.441 -0.2372 -0.2067  0.3172
   91CHL1  H23A 9200   0.942   1.820   8.512 -3.3045 -1.0707 -0.9282
   91CHL1  H23B 9201   0.994   1.992   8.493 -2.7129  1.1353  0.2636
   91CHL1   C24 9202   0.813   1.945   8.387 -0.1687 -0.8388 -0.6661
   91CHL1  H24A 9203   0.757   1.989   8.472  0.9694 -2.5487  1.0093
   91CHL1  H24B 9204   0.829   2.032   8.320  1.0139  1.1254  2.0906
   91CHL1   C25 9205   0.731   1.844   8.316 -0.7553  0.6077  0.2328
   91CHL1   H25 9206   0.782   1.787   8.235 -4.1914 -2.8126  0.2957
   91CHL1   C26 9207   0.683   1.729   8.402  0.0597 -0.4046 -0.1350
   91CHL1  H26A 9208   0.648   1.762   8.502  2.5188  0.9058  0.3214
   91CHL1  H26B 9209   0.594   1.683   8.353 -0.4269 -0.8665  1.1793
   91CHL1  H26C 9210   0.757   1.652   8.431  0.8354 -0.5574 -2.4085
   91CHL1   C27 9211   0.606   1.895   8.244  0.4588  0.0425 -0.1821
   91CHL1  H27A 9212   0.534   1.930   8.321  0.3634  1.0872 -0.7366
   91CHL1  H27B 9213   0.632   1.989   8.191 -1.0432 -0.1676 -1.3321
   91CHL1  H27C 9214   0.559   1.820   8.176 -0.3164  0.4289 -0.0797
   92CHL1    C3 9215   3.121   3.172   6.880  0.0848  0.0608 -0.6544
   92CHL1    H3 9216   3.216   3.230   6.882  0.6201 -0.7959 -0.9125
   92CHL1    O3 9217   3.068   3.188   6.748 -0.1268 -0.3838 -0.4585
   92CHL1   H3' 9218   3.051   3.283   6.742  1.5331 -0.0840 -0.6241
   92CHL1    C4 9219   3.143   3.017   6.895  0.6630 -0.4266  0.5947
   92CHL1   H4A 9220   3.042   2.971   6.885  0.7520 -1.1143  2.6015
   92CHL1   H4B 9221   3.206   2.980   6.812 -0.5196 -0.4845 -0.3015
   92CHL1    C5 9222   3.194   2.982   7.032  0.3272 -0.0582  0.3418
   92CHL1    C6 9223   3.298   2.902   7.040 -0.7517  0.8080 -0.4290
   92CHL1    H6 9224   3.349   2.880   6.945  0.4898  1.4896  0.0604
   92CHL1    C7 9225   3.352   2.850   7.168 -0.3067  0.4183  0.0027
   92CHL1   H7A 9226   3.371   2.741   7.161 -3.2047 -0.2821  2.0596
   92CHL1   H7B 9227   3.454   2.891   7.183 -0.2549  0.3512 -0.1570
   92CHL1    C8 9228   3.272   2.881   7.293 -0.5413  0.6393 -0.0939
   92CHL1    H8 9229   3.196   2.802   7.310 -2.1493  2.3320  0.6931
   92CHL1   C14 9230   3.373   2.884   7.414  0.0364  0.4435  0.3373
   92CHL1   H14 9231   3.442   2.968   7.393  1.8498 -1.1260 -0.0419
   92CHL1   C15 9232   3.464   2.768   7.429  0.6735  0.3264 -0.1344
   92CHL1  H15A 9233   3.411   2.672   7.443  2.2034 -0.3995  0.8949
   92CHL1  H15B 9234   3.551   2.766   7.359  1.9282  3.0041  1.2756
   92CHL1   C16 9235   3.513   2.804   7.569 -0.0031 -0.6551 -0.5634
   92CHL1  H16A 9236   3.510   2.715   7.635  2.0483 -0.4665 -0.1803
   92CHL1  H16B 9237   3.621   2.828   7.578 -0.8344  2.7950  1.3053
   92CHL1   C17 9238   3.426   2.919   7.636  0.5868  0.0316 -0.1241
   92CHL1   H17 9239   3.482   3.013   7.618  0.6785 -0.4541 -2.5852
   92CHL1   C13 9240   3.303   2.917   7.546  0.8733 -0.1922 -0.0587
   92CHL1   C18 9241   3.205   2.811   7.600  1.0734  0.1770  0.0909
   92CHL1  H18A 9242   3.164   2.824   7.702  1.7452 -0.5907  0.4665
   92CHL1  H18B 9243   3.120   2.790   7.532 -1.3048  0.4769  2.8868
   92CHL1  H18C 9244   3.258   2.714   7.586  0.9188  0.5115 -3.2508
   92CHL1   C12 9245   3.226   3.049   7.529 -0.2310  0.5879  0.3928
   92CHL1  H12A 9246   3.176   3.080   7.623  1.2721  2.7323  0.5015
   92CHL1  H12B 9247   3.300   3.131   7.519  0.8965 -0.2565  1.7054
   92CHL1   C11 9248   3.131   3.047   7.412 -0.3884 -0.5741  0.1655
   92CHL1  H11A 9249   3.051   2.970   7.419 -1.3905  0.4566  0.3642
   92CHL1  H11B 9250   3.084   3.148   7.405 -1.5352 -1.1070  0.0616
   92CHL1    C9 9251   3.202   3.020   7.278  0.0470  0.6919 -0.0743
   92CHL1    H9 9252   3.279   3.099   7.272  0.0432  0.6563 -0.6320
   92CHL1   C10 9253   3.114   3.033   7.151  0.1695  0.3368  0.2998
   92CHL1   C19 9254   2.979   2.957   7.180 -0.8762 -0.0950 -0.6242
   92CHL1  H19A 9255   2.909   3.028   7.229  0.1986  0.0471  0.7497
   92CHL1  H19B 9256   2.927   2.932   7.086 -1.0108 -0.4204 -0.4617
   92CHL1  H19C 9257   2.990   2.861   7.234 -0.1560  1.0426  1.3391
   92CHL1    C1 9258   3.084   3.190   7.129 -0.4166  0.6676 -0.0528
   92CHL1   H1A 9259   3.015   3.224   7.209  1.1502  2.8327  0.4324
   92CHL1   H1B 9260   3.178   3.248   7.139 -1.9012  2.8286  1.7898
   92CHL1    C2 9261   3.021   3.221   6.990  0.1679  0.4913 -0.3347
   92CHL1   H2A 9262   3.000   3.329   6.973 -0.6020  0.7101  1.8999
   92CHL1   H2B 9263   2.932   3.156   6.980  1.4774 -1.0539 -2.4204
   92CHL1   C20 9264   3.412   2.901   7.791 -0.3747  1.2840  0.2034
   92CHL1   H20 9265   3.377   2.801   7.824 -0.6917  1.0684 -0.7440
   92CHL1   C21 9266   3.315   3.008   7.846  0.6349 -0.3086  0.7008
   92CHL1  H21A 9267   3.335   3.105   7.796 -2.6641  1.7318  3.1871
   92CHL1  H21B 9268   3.327   3.024   7.955 -0.2619 -1.5980  0.9966
   92CHL1  H21C 9269   3.206   2.993   7.829 -0.2112  2.5537  3.1976
   92CHL1   C22 9270   3.556   2.927   7.851 -0.5914 -0.2153 -0.6499
   92CHL1  H22A 9271   3.631   2.855   7.810 -0.9566 -1.5328  0.9357
   92CHL1  H22B 9272   3.578   3.027   7.809 -0.9818  0.5176  0.8788
   92CHL1   C23 9273   3.568   2.893   8.000 -0.2302 -0.0451  0.4302
   92CHL1  H23A 9274   3.674   2.905   8.030 -0.5443  0.3807  1.3903
   92CHL1  H23B 9275   3.502   2.963   8.055 -0.3614  2.2776 -2.5301
   92CHL1   C24 9276   3.517   2.753   8.032  0.4600  1.1682 -0.4733
   92CHL1  H24A 9277   3.406   2.753   8.027  0.3576 -1.0209  1.0801
   92CHL1  H24B 9278   3.553   2.679   7.958 -1.0826  1.4718 -1.5349
   92CHL1   C25 9279   3.554   2.702   8.170 -0.0445  0.3757 -0.4523
   92CHL1   H25 9280   3.559   2.793   8.233 -1.6906 -0.8924  1.5743
   92CHL1   C26 9281   3.457   2.591   8.225  0.1937 -0.6489  0.0911
   92CHL1  H26A 9282   3.478   2.488   8.191  0.4343 -0.2877 -0.8726
   92CHL1  H26B 9283   3.479   2.592   8.334  0.9544 -2.2860 -0.0337
   92CHL1  H26C 9284   3.350   2.617   8.212 -0.1002 -1.5415  0.7117
   92CHL1   C27 9285   3.693   2.633   8.167  0.4031  0.6127 -0.4459
   92CHL1  H27A 9286   3.725   2.593   8.265 -1.6732 -0.9438 -0.3700
   92CHL1  H27B 9287   3.678   2.539   8.110 -1.1980  0.7384 -0.2583
   92CHL1  H27C 9288   3.777   2.690   8.122  0.5203  1.9024  1.3763
   93CHL1    C3 9289   2.324   1.136   6.960  0.5335 -0.0276  0.1816
   93CHL1    H3 9290   2.333   1.026   6.951 -0.6686 -0.1624  0.4465
   93CHL1    O3 9291   2.334   1.203   6.833 -0.3113 -0.3281 -0.2684
   93CHL1   H3' 9292   2.291   1.287   6.849 -1.1688 -0.8954  0.4657
   93CHL1    C4 9293   2.183   1.157   7.028 -0.0678 -0.0277 -0.6267
   93CHL1   H4A 9294   2.166   1.267   7.039  1.4361  0.2445 -0.8718
   93CHL1   H4B 9295   2.104   1.121   6.959  0.4890  0.3766 -1.4910
   93CHL1    C5 9296   2.176   1.096   7.165 -0.8499 -0.2277  0.0019
   93CHL1    C6 9297   2.082   1.005   7.198 -0.0096  0.2463  1.0210
   93CHL1    H6 9298   2.013   0.965   7.122  0.9149  3.6720 -1.7367
   93CHL1    C7 9299   2.073   0.952   7.338  0.4360  0.5365 -0.8570
   93CHL1   H7A 9300   1.973   0.934   7.383  0.9270  0.1943  0.1047
   93CHL1   H7B 9301   2.117   0.851   7.330 -1.3957 -0.5750  2.0110
   93CHL1    C8 9302   2.166   1.021   7.446  0.3762 -0.0587  1.2150
   93CHL1    H8 9303   2.115   1.113   7.480 -0.6049 -0.9569  2.2134
   93CHL1   C14 9304   2.187   0.920   7.565 -0.4015  0.2330 -0.2094
   93CHL1   H14 9305   2.245   0.830   7.536  1.4344  0.9180  1.2488
   93CHL1   C15 9306   2.067   0.869   7.636  0.2036  0.4529 -0.8024
   93CHL1  H15A 9307   1.994   0.951   7.656 -0.6506  0.0852 -2.3539
   93CHL1  H15B 9308   2.019   0.791   7.573  1.5332 -0.2619 -0.9407
   93CHL1   C16 9309   2.124   0.806   7.760  0.5461 -0.7458  0.9099
   93CHL1  H16A 9310   2.054   0.842   7.839  1.3135  3.5556 -0.2094
   93CHL1  H16B 9311   2.128   0.695   7.755 -0.1251 -0.7405  0.1603
   93CHL1   C17 9312   2.264   0.872   7.784  0.1035  0.2557 -0.5696
   93CHL1   H17 9313   2.335   0.793   7.751 -0.0653 -0.2829  0.3591
   93CHL1   C13 9314   2.277   0.980   7.679  0.0216  0.4038 -0.6827
   93CHL1   C18 9315   2.216   1.113   7.725  0.7891 -0.1954  0.9073
   93CHL1  H18A 9316   2.105   1.107   7.727  0.8459 -0.9389  2.2067
   93CHL1  H18B 9317   2.263   1.152   7.817  1.5865 -3.2374  1.8462
   93CHL1  H18C 9318   2.230   1.197   7.654 -1.0058  0.1491  0.9551
   93CHL1   C12 9319   2.414   0.996   7.620  0.2102  0.0114 -0.7593
   93CHL1  H12A 9320   2.490   1.048   7.683 -0.0199 -0.9518  0.3291
   93CHL1  H12B 9321   2.450   0.894   7.592 -1.3948 -0.3946 -1.3822
   93CHL1   C11 9322   2.414   1.084   7.490 -0.7735 -0.6473 -0.2715
   93CHL1  H11A 9323   2.385   1.185   7.526 -0.2284 -0.3211 -0.7419
   93CHL1  H11B 9324   2.516   1.090   7.446 -0.0570 -1.2431  1.2742
   93CHL1    C9 9325   2.303   1.048   7.386 -0.8234  0.8793  0.3386
   93CHL1    H9 9326   2.338   0.955   7.337  0.2953  0.9664  0.9596
   93CHL1   C10 9327   2.294   1.146   7.263  0.5947  0.4823 -1.1721
   93CHL1   C19 9328   2.268   1.288   7.310 -0.5552  0.1432 -0.1237
   93CHL1  H19A 9329   2.357   1.330   7.361 -0.7575  0.1155  0.2532
   93CHL1  H19B 9330   2.261   1.365   7.230  0.3605  2.0570  1.5919
   93CHL1  H19C 9331   2.178   1.290   7.376 -1.4492  1.0648 -1.3339
   93CHL1    C1 9332   2.433   1.130   7.191 -0.7566 -0.1050  0.2117
   93CHL1   H1A 9333   2.511   1.186   7.247  0.1168 -0.0926 -1.0054
   93CHL1   H1B 9334   2.463   1.023   7.190  0.0494  0.1267 -1.8014
   93CHL1    C2 9335   2.438   1.182   7.048 -0.3448 -0.0947  0.0820
   93CHL1   H2A 9336   2.528   1.142   6.996 -0.8473  0.3523 -1.1470
   93CHL1   H2B 9337   2.431   1.293   7.041 -2.6355 -0.2527 -0.5629
   93CHL1   C20 9338   2.304   0.901   7.929  0.4710 -0.4517  0.4234
   93CHL1   H20 9339   2.242   0.990   7.955  0.8538  0.1541 -0.7356
   93CHL1   C21 9340   2.452   0.946   7.926 -0.3186  0.3098  0.8223
   93CHL1  H21A 9341   2.486   0.954   8.031  1.0294 -0.4508  0.4569
   93CHL1  H21B 9342   2.467   1.046   7.881  0.2096 -0.4225 -0.6660
   93CHL1  H21C 9343   2.506   0.874   7.861  1.6098  2.0297  0.4777
   93CHL1   C22 9344   2.262   0.788   8.028 -0.8367 -0.0645  0.2928
   93CHL1  H22A 9345   2.156   0.757   8.016  0.0029 -2.7284 -0.5139
   93CHL1  H22B 9346   2.320   0.698   7.998 -0.5725 -0.3090  1.5114
   93CHL1   C23 9347   2.298   0.823   8.181 -0.2683  0.7086 -0.2649
   93CHL1  H23A 9348   2.409   0.819   8.195 -0.2737 -0.3518 -0.5182
   93CHL1  H23B 9349   2.268   0.926   8.211  0.3482  0.4648  1.2715
   93CHL1   C24 9350   2.234   0.720   8.280  0.3695  0.6008  0.2020
   93CHL1  H24A 9351   2.126   0.708   8.261  0.3670 -2.1900  1.6481
   93CHL1  H24B 9352   2.282   0.622   8.258 -2.1771 -0.6449 -0.0056
   93CHL1   C25 9353   2.253   0.749   8.438 -0.5705  0.2372  0.4103
   93CHL1   H25 9354   2.169   0.816   8.466 -1.0939  0.6595 -2.0033
   93CHL1   C26 9355   2.231   0.613   8.499 -0.4877  0.1485  0.0569
   93CHL1  H26A 9356   2.323   0.558   8.473  0.7035  1.8573  0.5415
   93CHL1  H26B 9357   2.232   0.615   8.610  0.4918  0.4902  0.0474
   93CHL1  H26C 9358   2.139   0.574   8.451 -1.0200  0.7386  0.5860
   93CHL1   C27 9359   2.393   0.803   8.467 -0.4729 -0.2082  0.2642
   93CHL1  H27A 9360   2.406   0.809   8.577 -2.8033  4.4216  0.3923
   93CHL1  H27B 9361   2.477   0.738   8.434 -0.6963  0.0604 -0.8498
   93CHL1  H27C 9362   2.415   0.901   8.421  1.2303 -0.4605  0.5036
   94CHL1    C3 9363   4.603   3.603   6.923  0.6922  0.2215  0.1625
   94CHL1    H3 9364   4.596   3.712   6.941  0.5463  0.5753 -1.8967
   94CHL1    O3 9365   4.650   3.591   6.792 -0.4869 -0.0426  0.3484
   94CHL1   H3' 9366   4.745   3.605   6.805 -0.9174  3.4826  0.0576
   94CHL1    C4 9367   4.699   3.533   7.017 -0.2554  0.5133  0.2184
   94CHL1   H4A 9368   4.696   3.428   6.980  2.9935  0.7253 -0.8639
   94CHL1   H4B 9369   4.807   3.559   7.005 -0.0853  0.1230  0.8283
   94CHL1    C5 9370   4.658   3.528   7.163  0.5081  0.3901  0.2575
   94CHL1    C6 9371   4.736   3.573   7.260 -0.1423  0.8804 -0.9392
   94CHL1    H6 9372   4.837   3.610   7.240  0.7791 -0.9255  0.2091
   94CHL1    C7 9373   4.702   3.572   7.414  1.0647 -0.4350 -0.5933
   94CHL1   H7A 9374   4.772   3.516   7.479 -2.5632 -2.4955  1.7519
   94CHL1   H7B 9375   4.696   3.679   7.446  2.0411 -0.4694 -0.2958
   94CHL1    C8 9376   4.565   3.498   7.441  0.0334  0.0276  0.3315
   94CHL1    H8 9377   4.588   3.390   7.450  0.8171  0.2113  0.5925
   94CHL1   C14 9378   4.504   3.546   7.577  0.0900 -0.0916 -0.0819
   94CHL1   H14 9379   4.487   3.656   7.570 -0.1180 -0.0222  1.4099
   94CHL1   C15 9380   4.591   3.547   7.704 -0.1102 -0.2985  0.1029
   94CHL1  H15A 9381   4.655   3.456   7.701  2.8905  1.5924  3.2014
   94CHL1  H15B 9382   4.668   3.626   7.716  0.7906 -1.5532  3.0985
   94CHL1   C16 9383   4.496   3.558   7.825 -0.1355 -0.8203  0.0144
   94CHL1  H16A 9384   4.506   3.468   7.890  3.7460 -1.9505 -2.0021
   94CHL1  H16B 9385   4.511   3.650   7.887  2.8035 -0.8113 -0.6384
   94CHL1   C17 9386   4.356   3.552   7.752  1.3091 -0.0818  0.0367
   94CHL1   H17 9387   4.335   3.659   7.728  1.2726 -0.6287 -2.4541
   94CHL1   C13 9388   4.376   3.478   7.620  0.2444  0.3390 -0.8674
   94CHL1   C18 9389   4.399   3.325   7.639  0.2348  0.5749 -0.0740
   94CHL1  H18A 9390   4.421   3.272   7.544  2.0988  1.9264 -0.4180
   94CHL1  H18B 9391   4.470   3.299   7.721  0.6521 -1.7580 -1.1179
   94CHL1  H18C 9392   4.300   3.283   7.668  0.7443  0.1866  1.1302
   94CHL1   C12 9393   4.263   3.508   7.515  0.3677 -0.1723  0.4324
   94CHL1  H12A 9394   4.163   3.462   7.530  0.9797 -1.7395 -0.1943
   94CHL1  H12B 9395   4.245   3.617   7.525 -0.6964 -0.1160 -1.7420
   94CHL1   C11 9396   4.319   3.480   7.369 -0.4313 -0.1763  0.0655
   94CHL1  H11A 9397   4.315   3.370   7.358  1.0783 -0.5872  2.9473
   94CHL1  H11B 9398   4.248   3.532   7.302  0.0886 -1.3871 -1.4282
   94CHL1    C9 9399   4.464   3.521   7.331 -0.2249  0.0621  0.1844
   94CHL1    H9 9400   4.469   3.632   7.327 -0.8802  0.1087  0.6326
   94CHL1   C10 9401   4.511   3.476   7.193 -0.5408 -0.1927 -0.0292
   94CHL1   C19 9402   4.518   3.318   7.183  0.1752  0.6431  1.0538
   94CHL1  H19A 9403   4.577   3.273   7.265 -1.3330 -3.6220 -0.0576
   94CHL1  H19B 9404   4.419   3.268   7.178  0.7764 -0.7298  2.6101
   94CHL1  H19C 9405   4.555   3.285   7.083 -1.6868  1.8346 -0.0621
   94CHL1    C1 9406   4.422   3.538   7.086 -0.1884  0.4768 -0.5152
   94CHL1   H1A 9407   4.332   3.473   7.091  0.2751 -0.1156  0.3887
   94CHL1   H1B 9408   4.400   3.645   7.108  0.1380  0.0268  2.1545
   94CHL1    C2 9409   4.468   3.534   6.939 -0.5481 -0.0217  0.5069
   94CHL1   H2A 9410   4.386   3.557   6.868 -0.3085 -0.8592 -0.0527
   94CHL1   H2B 9411   4.485   3.428   6.908 -3.0902  0.3640 -2.4328
   94CHL1   C20 9412   4.253   3.501   7.853 -0.2059  0.0109 -0.1931
   94CHL1   H20 9413   4.293   3.404   7.890 -3.0050 -0.8175  0.8098
   94CHL1   C21 9414   4.115   3.468   7.797 -0.3542  0.6278 -0.1202
   94CHL1  H21A 9415   4.039   3.435   7.871  1.0654 -2.5719 -0.0207
   94CHL1  H21B 9416   4.121   3.384   7.725 -0.8198  0.5651 -0.0815
   94CHL1  H21C 9417   4.069   3.554   7.743  0.3770  1.3970  0.4572
   94CHL1   C22 9418   4.234   3.595   7.977 -0.0882  0.2430  0.4503
   94CHL1  H22A 9419   4.335   3.627   8.011  1.3363 -2.0111 -1.5779
   94CHL1  H22B 9420   4.183   3.686   7.938  1.3386  0.6771 -0.4442
   94CHL1   C23 9421   4.148   3.549   8.097 -0.4327 -0.1456  0.4970
   94CHL1  H23A 9422   4.049   3.523   8.055  0.6903 -2.2657 -0.9739
   94CHL1  H23B 9423   4.182   3.448   8.129 -0.9879  0.0099  1.5814
   94CHL1   C24 9424   4.142   3.651   8.204 -0.2537 -0.1135  0.5074
   94CHL1  H24A 9425   4.241   3.691   8.236 -0.3465  1.3158 -0.9178
   94CHL1  H24B 9426   4.094   3.743   8.165  2.2590  0.1778 -2.0753
   94CHL1   C25 9427   4.052   3.613   8.323 -0.0000  0.3447  0.3833
   94CHL1   H25 9428   3.956   3.582   8.276 -0.6821  2.8714  0.0597
   94CHL1   C26 9429   4.091   3.487   8.393 -0.1981 -0.9352  0.2972
   94CHL1  H26A 9430   4.076   3.393   8.336 -1.3758 -2.3505  2.8696
   94CHL1  H26B 9431   4.190   3.507   8.439 -1.2101  2.7637  1.0370
   94CHL1  H26C 9432   4.011   3.482   8.470 -0.8144  0.8577 -0.2011
   94CHL1   C27 9433   4.037   3.725   8.424  0.2307  0.0243 -0.5009
   94CHL1  H27A 9434   3.995   3.694   8.522 -0.2607  0.4836 -0.5649
   94CHL1  H27B 9435   4.137   3.764   8.455 -0.3507 -1.0756  2.9601
   94CHL1  H27C 9436   3.982   3.811   8.380  0.8889  1.3118  1.1187
   95CHL1    C3 9437   3.633   3.271   6.726 -0.1849 -0.2412 -0.2598
   95CHL1    H3 9438   3.650   3.379   6.708 -1.9487  0.1225  0.1586
   95CHL1    O3 9439   3.624   3.209   6.602  0.4333  0.1233  0.5970
   95CHL1   H3' 9440   3.706   3.205   6.553  0.5596 -2.1687  0.9585
   95CHL1    C4 9441   3.763   3.230   6.806 -0.2906 -0.7304  1.0160
   95CHL1   H4A 9442   3.760   3.119   6.814 -3.8587 -0.9181 -1.4485
   95CHL1   H4B 9443   3.848   3.261   6.742 -0.5674 -0.4907  0.7589
   95CHL1    C5 9444   3.779   3.283   6.945  0.2690  0.0106  0.1379
   95CHL1    C6 9445   3.888   3.347   6.992  0.2131  0.0400 -0.4649
   95CHL1    H6 9446   3.982   3.352   6.935  0.1318 -2.7470 -0.9238
   95CHL1    C7 9447   3.887   3.408   7.134 -0.0918 -0.0768 -0.8447
   95CHL1   H7A 9448   3.983   3.398   7.190  0.4171  0.5356 -1.6006
   95CHL1   H7B 9449   3.863   3.516   7.127  1.3677  0.2209 -1.4437
   95CHL1    C8 9450   3.781   3.340   7.227  0.2125 -0.5037 -0.4032
   95CHL1    H8 9451   3.822   3.241   7.257  0.0855 -0.5349 -0.3269
   95CHL1   C14 9452   3.772   3.418   7.356 -0.0725 -0.1140 -0.0073
   95CHL1   H14 9453   3.744   3.523   7.330 -0.7879 -0.6402 -1.4023
   95CHL1   C15 9454   3.902   3.438   7.437  0.7973  0.0762  0.0623
   95CHL1  H15A 9455   3.942   3.334   7.439 -1.6697 -0.9575 -1.5711
   95CHL1  H15B 9456   3.977   3.510   7.399 -0.6718  1.8014  0.4026
   95CHL1   C16 9457   3.846   3.482   7.573 -0.1018  0.2327  0.3188
   95CHL1  H16A 9458   3.899   3.423   7.651 -0.4452  0.4818  0.7419
   95CHL1  H16B 9459   3.864   3.589   7.598 -2.6590  0.0221  3.3748
   95CHL1   C17 9460   3.693   3.460   7.570 -0.2086 -0.4063  0.3637
   95CHL1   H17 9461   3.654   3.563   7.554 -0.6009 -0.7807 -1.1104
   95CHL1   C13 9462   3.664   3.368   7.448 -0.2652  0.0341 -0.4960
   95CHL1   C18 9463   3.693   3.225   7.487  0.5386 -0.7817  0.1363
   95CHL1  H18A 9464   3.704   3.158   7.398 -0.4690 -0.3875 -0.2923
   95CHL1  H18B 9465   3.784   3.216   7.550 -0.1552 -1.7760  1.0209
   95CHL1  H18C 9466   3.605   3.176   7.535  1.0944 -1.3836  0.5576
   95CHL1   C12 9467   3.529   3.387   7.379  0.7064 -0.2096  0.7431
   95CHL1  H12A 9468   3.442   3.355   7.440 -0.4365  1.5138  0.0595
   95CHL1  H12B 9469   3.517   3.494   7.353 -0.6342 -0.6618 -0.6280
   95CHL1   C11 9470   3.517   3.308   7.250 -0.7911 -0.7665 -0.0333
   95CHL1  H11A 9471   3.517   3.202   7.283  3.1016 -1.3478 -1.6339
   95CHL1  H11B 9472   3.419   3.338   7.206  0.4818  1.2078 -1.6254
   95CHL1    C9 9473   3.640   3.339   7.159 -0.7175  0.2371  0.6370
   95CHL1    H9 9474   3.633   3.444   7.125  4.4129  0.5080  0.0009
   95CHL1   C10 9475   3.648   3.258   7.029  0.1208 -0.2497  0.4928
   95CHL1   C19 9476   3.638   3.114   7.073 -0.3350 -0.6842 -0.2603
   95CHL1  H19A 9477   3.693   3.098   7.168  2.3690 -2.1407 -1.9892
   95CHL1  H19B 9478   3.530   3.097   7.093 -0.1881 -0.4406  0.7596
   95CHL1  H19C 9479   3.665   3.034   7.000  0.5345 -2.9482  2.4561
   95CHL1    C1 9480   3.516   3.298   6.949  0.5088 -0.3586 -0.0970
   95CHL1   H1A 9481   3.420   3.285   7.003  1.6383 -1.0951  1.7782
   95CHL1   H1B 9482   3.527   3.408   6.934 -0.4721 -0.6467 -3.1867
   95CHL1    C2 9483   3.509   3.241   6.809  0.4829 -0.4989 -0.1747
   95CHL1   H2A 9484   3.420   3.278   6.754  0.9112  0.9791  0.0958
   95CHL1   H2B 9485   3.484   3.135   6.830 -0.5166  0.2647  2.7246
   95CHL1   C20 9486   3.647   3.415   7.715  0.2386  0.1325 -0.2510
   95CHL1   H20 9487   3.716   3.334   7.748  0.1339  0.0368 -0.2634
   95CHL1   C21 9488   3.496   3.376   7.708 -0.9245 -0.0016  0.0891
   95CHL1  H21A 9489   3.430   3.463   7.683 -0.9579 -0.2277 -0.6317
   95CHL1  H21B 9490   3.455   3.334   7.802 -0.6485 -0.5692 -0.0475
   95CHL1  H21C 9491   3.474   3.289   7.643 -2.4173  0.3126  0.1379
   95CHL1   C22 9492   3.672   3.526   7.818 -0.5482  0.0048  0.0611
   95CHL1  H22A 9493   3.781   3.546   7.829 -0.8357  1.8326 -0.1439
   95CHL1  H22B 9494   3.613   3.616   7.791 -1.5890 -0.6324  0.2016
   95CHL1   C23 9495   3.623   3.487   7.959 -0.2313  0.2153 -0.1279
   95CHL1  H23A 9496   3.512   3.494   7.963 -0.2735 -1.1013  2.1055
   95CHL1  H23B 9497   3.660   3.384   7.981  2.0972  0.9849 -0.3494
   95CHL1   C24 9498   3.676   3.570   8.082  0.4460 -0.7014  0.4435
   95CHL1  H24A 9499   3.787   3.569   8.085  0.4508 -0.7679  0.2500
   95CHL1  H24B 9500   3.640   3.675   8.071 -0.4123 -1.0902 -0.5790
   95CHL1   C25 9501   3.611   3.533   8.220  0.5672  1.0926  0.1640
   95CHL1   H25 9502   3.500   3.531   8.210  0.4236 -2.0874  1.7124
   95CHL1   C26 9503   3.669   3.405   8.267 -0.9269 -0.1463  0.0430
   95CHL1  H26A 9504   3.630   3.375   8.366  0.0162 -2.6852 -0.3153
   95CHL1  H26B 9505   3.645   3.323   8.195 -1.2098 -0.7485  0.8184
   95CHL1  H26C 9506   3.780   3.410   8.275 -0.8454  0.0454 -1.1132
   95CHL1   C27 9507   3.651   3.639   8.324 -0.0664 -0.0447 -0.0132
   95CHL1  H27A 9508   3.633   3.743   8.289  1.5615 -0.2034 -1.3743
   95CHL1  H27B 9509   3.597   3.614   8.418 -2.1699 -0.9592 -1.4320
   95CHL1  H27C 9510   3.762   3.646   8.329 -0.0325 -0.6488  0.1958
   96CHL1    C3 9511   4.259   3.031   6.862  0.5447  0.2006 -0.4626
   96CHL1    H3 9512   4.357   3.033   6.913  0.2116  1.0550  0.1620
   96CHL1    O3 9513   4.274   3.036   6.718  0.9372  0.0960  0.1005
   96CHL1   H3' 9514   4.269   2.943   6.694 -0.6337  0.7518 -2.2460
   96CHL1    C4 9515   4.186   2.894   6.896  0.1939 -0.5161 -0.3827
   96CHL1   H4A 9516   4.082   2.892   6.855  0.5438 -2.0927 -1.2468
   96CHL1   H4B 9517   4.242   2.813   6.845  1.5600 -1.6261  2.8047
   96CHL1    C5 9518   4.175   2.872   7.048  0.1684  0.0191  0.0641
   96CHL1    C6 9519   4.229   2.773   7.113 -0.1062 -0.1648  0.2968
   96CHL1    H6 9520   4.281   2.699   7.050 -1.0920 -0.2458 -0.4407
   96CHL1    C7 9521   4.210   2.744   7.258 -0.6188  0.1587 -0.1361
   96CHL1   H7A 9522   4.180   2.641   7.286  0.3527 -0.5225 -1.4958
   96CHL1   H7B 9523   4.307   2.751   7.312  0.0332 -0.5768 -1.1929
   96CHL1    C8 9524   4.105   2.834   7.318  0.7902  0.1474  0.5710
   96CHL1    H8 9525   4.006   2.788   7.296  1.1640 -0.7915  0.8404
   96CHL1   C14 9526   4.136   2.838   7.467  0.1839 -0.8142  0.6498
   96CHL1   H14 9527   4.237   2.884   7.469  0.0543 -0.5113  0.3236
   96CHL1   C15 9528   4.154   2.712   7.551  0.5228  0.1402 -0.2009
   96CHL1  H15A 9529   4.078   2.646   7.505 -0.3742  0.1906  1.1645
   96CHL1  H15B 9530   4.254   2.666   7.540 -0.0345 -0.9313 -0.7981
   96CHL1   C16 9531   4.122   2.753   7.700 -0.3936  0.3321  0.1336
   96CHL1  H16A 9532   4.028   2.698   7.725 -0.2237 -0.3710 -0.7405
   96CHL1  H16B 9533   4.210   2.728   7.762 -0.1137  2.2827  0.5692
   96CHL1   C17 9534   4.095   2.910   7.696 -0.4901  0.0783 -0.3395
   96CHL1   H17 9535   4.196   2.957   7.699 -1.1518  1.4407  2.1398
   96CHL1   C13 9536   4.048   2.934   7.548 -0.3329  0.4630 -0.4077
   96CHL1   C18 9537   3.897   2.889   7.551 -0.2270 -0.2521 -0.4891
   96CHL1  H18A 9538   3.836   2.896   7.458 -0.4579 -1.3002 -0.4219
   96CHL1  H18B 9539   3.885   2.787   7.592 -0.7966 -0.8062 -2.0144
   96CHL1  H18C 9540   3.829   2.955   7.608 -1.0412 -2.2993  0.9641
   96CHL1   C12 9541   4.059   3.074   7.494  0.3219 -0.2242  1.3617
   96CHL1  H12A 9542   3.990   3.143   7.546  0.1609  0.8221 -0.2098
   96CHL1  H12B 9543   4.164   3.111   7.497 -0.2292  1.7076 -1.4611
   96CHL1   C11 9544   4.029   3.078   7.339 -0.5178  0.1256  0.1525
   96CHL1  H11A 9545   3.920   3.069   7.320 -0.4453  1.9491 -1.2414
   96CHL1  H11B 9546   4.059   3.182   7.312  0.4593 -0.0428  0.5734
   96CHL1    C9 9547   4.114   2.976   7.264  0.3706  0.7966  0.8228
   96CHL1    H9 9548   4.219   3.009   7.279  0.7423  1.2696 -2.5123
   96CHL1   C10 9549   4.097   2.986   7.114 -0.5222  0.0026 -0.2906
   96CHL1   C19 9550   3.948   2.979   7.081  0.0037 -0.6550 -0.7504
   96CHL1  H19A 9551   3.899   3.070   7.120 -1.4921 -1.7109 -0.1129
   96CHL1  H19B 9552   3.930   2.961   6.972 -1.3665  1.3330 -0.8672
   96CHL1  H19C 9553   3.911   2.888   7.131  1.2793 -0.6965  0.1440
   96CHL1    C1 9554   4.157   3.127   7.070 -0.6691  0.6632  0.1230
   96CHL1   H1A 9555   4.075   3.197   7.097 -1.3365  0.4772 -1.4079
   96CHL1   H1B 9556   4.252   3.142   7.125 -1.0612  0.4088  0.8756
   96CHL1    C2 9557   4.182   3.151   6.925 -0.4954 -0.0431 -0.2111
   96CHL1   H2A 9558   4.223   3.254   6.914  0.1900 -0.3398 -0.5345
   96CHL1   H2B 9559   4.086   3.152   6.869 -0.8025 -2.6915  0.2195
   96CHL1   C20 9560   4.010   2.958   7.817 -0.3663  0.2556 -0.0915
   96CHL1   H20 9561   3.914   2.904   7.805 -0.3451  0.0325  0.6784
   96CHL1   C21 9562   3.988   3.108   7.801  0.2019 -0.2026  0.3312
   96CHL1  H21A 9563   3.910   3.129   7.724 -1.8233 -0.3447  2.2882
   96CHL1  H21B 9564   4.088   3.146   7.771  0.2064 -0.0600  0.5254
   96CHL1  H21C 9565   3.949   3.147   7.897  0.0628 -1.9692  1.0085
   96CHL1   C22 9566   4.055   2.911   7.955 -0.0767 -0.0309  0.3087
   96CHL1  H22A 9567   4.037   2.801   7.952  1.5111 -0.2714 -1.3157
   96CHL1  H22B 9568   4.164   2.928   7.973  0.1500 -2.5223  1.5131
   96CHL1   C23 9569   3.995   2.965   8.081 -0.1352  0.0374  0.1704
   96CHL1  H23A 9570   4.021   3.073   8.086 -0.8702  0.1970  0.5690
   96CHL1  H23B 9571   3.884   2.968   8.071 -0.3381 -1.2219  1.8700
   96CHL1   C24 9572   4.044   2.889   8.206  0.8185 -0.0435  0.8813
   96CHL1  H24A 9573   3.987   2.794   8.205  2.9422 -1.3546  2.1329
   96CHL1  H24B 9574   4.152   2.867   8.199  0.8307  0.5410 -1.4181
   96CHL1   C25 9575   4.012   2.975   8.330 -0.4550 -0.6490  0.4245
   96CHL1   H25 9576   4.047   3.080   8.330 -2.0501 -0.1045  1.0873
   96CHL1   C26 9577   3.860   2.977   8.356 -0.2524 -0.6118 -0.1268
   96CHL1  H26A 9578   3.842   3.001   8.463 -4.6682  2.6195 -1.4425
   96CHL1  H26B 9579   3.819   3.060   8.293  1.2808 -0.1615 -0.5575
   96CHL1  H26C 9580   3.807   2.883   8.331 -1.3507 -0.1814  0.5522
   96CHL1   C27 9581   4.080   2.916   8.456  0.8309 -0.1891 -0.3550
   96CHL1  H27A 9582   4.091   2.996   8.532  0.5603  1.8960 -2.4121
   96CHL1  H27B 9583   4.010   2.836   8.488  0.9781  0.3267  1.3073
   96CHL1  H27C 9584   4.182   2.880   8.432  0.5633 -1.4047  0.3259
   97OSM      N 9585   2.202   3.775  11.187  0.6524  0.0377  0.2164
   97OSM    C15 9586   2.293   3.749  11.302  0.1939 -0.7511 -0.0891
   97OSM   H15A 9587   2.263   3.675  11.375 -0.1009 -0.5599 -0.0150
   97OSM   H15B 9588   2.315   3.844  11.348  0.5465 -0.0886 -1.6001
   97OSM   H15C 9589   2.395   3.736  11.269  0.2599 -0.4087 -0.0208
   97OSM    C14 9590   2.070   3.811  11.247  0.0574  0.1127 -0.6122
   97OSM   H14A 9591   2.048   3.731  11.317  1.2502  0.1465 -0.1719
   97OSM   H14B 9592   1.991   3.822  11.175  1.5113 -0.1608 -2.2882
   97OSM   H14C 9593   2.081   3.905  11.299  1.1206 -0.3280 -0.0131
   97OSM    C13 9594   2.261   3.883  11.108  0.2239  0.4504 -0.6677
   97OSM   H13A 9595   2.349   3.858  11.051 -0.3737  0.3581 -1.5597
   97OSM   H13B 9596   2.282   3.975  11.160  1.1280 -0.1800  0.0986
   97OSM   H13C 9597   2.189   3.905  11.030 -0.0130 -1.1105 -0.9081
   97OSM    C12 9598   2.178   3.641  11.110 -0.2887  0.3887 -0.3103
   97OSM   H12A 9599   2.125   3.581  11.183  1.1767 -1.7147 -0.9316
   97OSM   H12B 9600   2.276   3.598  11.098 -0.1659  0.5580  0.0540
   97OSM    C11 9601   2.091   3.648  10.984 -0.0031 -0.2131  0.9254
   97OSM   H11A 9602   2.102   3.556  10.923  2.1307  2.8056 -3.5133
   97OSM   H11B 9603   2.127   3.731  10.920 -1.6027  0.7555  1.2634
   97OSM      P 9604   1.842   3.582  11.075  0.3002 -0.1039  0.1042
   97OSM    O13 9605   1.915   3.464  11.131  0.0545  0.0131 -0.1759
   97OSM    O14 9606   1.745   3.652  11.158 -0.0980 -0.0363 -0.4266
   97OSM    O11 9607   1.761   3.508  10.960  0.0170  0.0414  0.0238
   97OSM    O12 9608   1.949   3.676  11.007 -0.8023  0.1042 -0.1774
   97OSM    C1S 9609   1.680   3.592  10.876  0.3569 -0.5722  0.4643
   97OSM    H1S 9610   1.632   3.681  10.921  0.8221  0.5815 -1.2982
   97OSM    H1T 9611   1.593   3.539  10.832 -0.9870  1.7814  0.2152
   97OSM     NF 9612   1.686   3.752  10.679 -0.1479  0.6556 -0.2071
   97OSM    HNF 9613   1.645   3.732  10.591  0.1874  1.2505 -0.4930
   97OSM    C2S 9614   1.750   3.638  10.739  0.0673 -0.2359  0.2536
   97OSM    H2S 9615   1.848   3.677  10.774  1.2427 -1.4330 -1.6454
   97OSM    C3S 9616   1.766   3.506  10.648 -0.9053 -0.5730  0.3413
   97OSM    H3S 9617   1.668   3.463  10.621 -1.1037  0.4141 -0.5324
   97OSM     O3 9618   1.834   3.398  10.719  0.1186  0.3363  0.3159
   97OSM    HO3 9619   1.819   3.412  10.813  0.0342  1.7590  0.0948
   97OSM    C4S 9620   1.830   3.546  10.515  0.1420 -0.2904  0.1607
   97OSM    H4S 9621   1.776   3.614  10.447  0.8503 -0.1831 -0.2997
   97OSM    C5S 9622   1.946   3.507  10.459 -0.6190  0.5661  0.1091
   97OSM    H5S 9623   2.020   3.441  10.507 -0.1940  1.1139  0.2032
   97OSM    C6S 9624   1.989   3.555  10.317  0.3207  0.1232 -0.0376
   97OSM    H6S 9625   1.973   3.472  10.244  2.8600 -0.6841  0.2850
   97OSM    H6T 9626   2.097   3.581  10.314 -0.1232  1.9070 -3.2554
   97OSM    C7S 9627   1.908   3.666  10.243  0.7185 -1.0135  0.0815
   97OSM    H7S 9628   1.910   3.764  10.295 -0.8036  0.6239 -2.8074
   97OSM    H7T 9629   1.802   3.637  10.228  0.6862 -1.1139  0.4924
   97OSM    C8S 9630   1.949   3.693  10.097  0.3251 -0.8122 -0.3538
   97OSM    H8S 9631   1.971   3.595  10.051 -2.2048 -1.7424  0.3438
   97OSM    H8T 9632   2.045   3.746  10.118  0.0285 -0.2621 -0.3707
   97OSM    C9S 9633   1.844   3.773  10.029  0.1401 -0.7061 -1.0476
   97OSM    H9S 9634   1.825   3.867  10.085  1.4112  0.2473 -2.1831
   97OSM    H9T 9635   1.754   3.708  10.026 -1.0403  0.9041 -2.1842
   97OSM   C10S 9636   1.882   3.804   9.880 -0.2605  0.3350  0.2362
   97OSM   H10S 9637   1.926   3.717   9.828 -1.1964  0.8009 -1.3808
   97OSM   H10T 9638   1.960   3.882   9.890 -0.2867  0.2404  1.2504
   97OSM   C11S 9639   1.763   3.866   9.804 -0.3182 -0.2975  0.3677
   97OSM   H11S 9640   1.805   3.919   9.716  1.4490  2.1765  2.6323
   97OSM   H11T 9641   1.720   3.944   9.869 -0.1167 -0.1290  0.2981
   97OSM   C12S 9642   1.657   3.762   9.774 -0.1805  0.1183 -0.2572
   97OSM   H12S 9643   1.625   3.695   9.857 -3.1240  0.0656 -1.3649
   97OSM   H12T 9644   1.699   3.693   9.698 -0.7945 -1.2713  0.6448
   97OSM   C13S 9645   1.536   3.821   9.703  0.4702 -0.0669 -0.0309
   97OSM   H13S 9646   1.559   3.906   9.634 -2.6677  0.7241 -0.1763
   97OSM   H13T 9647   1.485   3.881   9.781 -1.6423  0.1393 -1.5143
   97OSM   C14S 9648   1.437   3.725   9.644  0.4488 -0.6087  0.9407
   97OSM   H14S 9649   1.330   3.742   9.670 -0.4965 -1.0707 -2.4057
   97OSM   H14T 9650   1.452   3.625   9.689  1.0265 -0.4562  1.0892
   97OSM   C15S 9651   1.452   3.711   9.489  0.2453 -0.7792  0.0346
   97OSM   H15S 9652   1.390   3.621   9.469 -2.6680  1.3765 -0.9809
   97OSM   H15T 9653   1.557   3.687   9.461  0.5538 -0.4959  0.9330
   97OSM   C16S 9654   1.413   3.840   9.413  0.0512  0.1326 -0.0725
   97OSM   H16S 9655   1.475   3.925   9.448 -0.0605  0.3386 -0.3756
   97OSM   H16T 9656   1.306   3.862   9.430 -0.3300 -2.2701  0.8890
   97OSM   C17S 9657   1.439   3.834   9.261 -0.1232 -0.3824  0.5015
   97OSM   H17S 9658   1.369   3.759   9.219  0.8652 -0.1064 -1.7259
   97OSM   H17T 9659   1.531   3.776   9.242 -0.4473 -0.7906  0.1559
   97OSM   C18S 9660   1.416   3.965   9.192  0.3614  0.0796 -0.9049
   97OSM   H18S 9661   1.417   3.938   9.084 -0.9981  2.0366 -1.4272
   97OSM   H18T 9662   1.507   4.026   9.207  0.2875 -0.1780  0.6873
   97OSM   H18U 9663   1.320   4.016   9.216 -0.5362 -2.4577  1.1527
   97OSM    C1F 9664   1.666   3.869  10.740 -0.2368 -0.6426 -0.0034
   97OSM     OF 9665   1.726   3.894  10.846  0.4679  0.5572  0.0870
   97OSM    C2F 9666   1.579   3.971  10.668  0.3349  0.4880 -0.3644
   97OSM    H2F 9667   1.574   4.064  10.728  0.9948 -0.4851  1.2288
   97OSM    H2G 9668   1.477   3.929  10.654  0.4145 -0.0836  0.7785
   97OSM    C3F 9669   1.635   4.016  10.529 -0.4995 -0.0710  0.2964
   97OSM    H3F 9670   1.552   4.057  10.467 -1.0342 -0.3219  0.8420
   97OSM    H3G 9671   1.672   3.929  10.470  1.2020 -0.0293  1.2668
   97OSM    C4F 9672   1.748   4.122  10.535  0.1701  0.7818  0.3056
   97OSM    H4F 9673   1.837   4.095  10.596 -0.0093  2.9237  1.5491
   97OSM    H4G 9674   1.718   4.216  10.585  0.7836  0.7539  0.7363
   97OSM    C5F 9675   1.800   4.161  10.396  0.6822  0.4383  0.0754
   97OSM    H5F 9676   1.817   4.068  10.338  1.9485  1.2733 -0.9394
   97OSM    H5G 9677   1.902   4.203  10.412  1.0719 -0.9707  1.4356
   97OSM    C6F 9678   1.711   4.249  10.315 -0.0092  0.2320  0.6280
   97OSM    H6F 9679   1.687   4.342  10.371 -1.1570  0.7144 -0.6293
   97OSM    H6G 9680   1.619   4.194  10.288  0.7993 -0.4140 -0.9067
   97OSM    C7F 9681   1.778   4.302  10.180  0.1631 -0.0253  1.1592
   97OSM    H7F 9682   1.821   4.216  10.125 -2.3870 -0.9747  0.5861
   97OSM    H7G 9683   1.853   4.376  10.216  0.3321  1.0705 -1.3217
   97OSM    C8F 9684   1.684   4.378  10.081  0.6166 -0.5076  0.1206
   97OSM    H8F 9685   1.649   4.466  10.139  0.1449 -0.5603 -0.0845
   97OSM    H8G 9686   1.599   4.313  10.053  0.2191  0.4966 -1.0358
   97OSM    C9F 9687   1.752   4.421   9.961 -0.3042 -0.6515  0.3255
   97OSM    H9F 9688   1.827   4.498   9.983  0.8426 -1.2552 -1.3289
   97OSM   C10F 9689   1.739   4.374   9.837  0.8148 -0.0701 -0.7295
   97OSM   H10F 9690   1.798   4.417   9.755  0.5026  0.5948 -0.6035
   97OSM   C11F 9691   1.647   4.258   9.788  0.1939  0.2609 -0.0553
   97OSM   H11F 9692   1.563   4.232   9.856 -0.2086 -0.3894 -0.7916
   97OSM   H11G 9693   1.711   4.169   9.772 -1.0104 -0.6858  0.2995
   97OSM   C12F 9694   1.579   4.282   9.648 -0.0636 -0.2779 -0.1886
   97OSM   H12F 9695   1.562   4.392   9.651 -0.0952 -0.3112  0.7585
   97OSM   H12G 9696   1.483   4.227   9.637  0.6538 -1.1962 -2.2595
   97OSM   C13F 9697   1.664   4.238   9.528 -0.4312  0.6694 -0.1259
   97OSM   H13F 9698   1.690   4.132   9.548 -0.7418  0.7831  0.9188
   97OSM   H13G 9699   1.756   4.301   9.526 -1.1431  1.7107 -0.5150
   97OSM   C14F 9700   1.600   4.245   9.382 -0.1540  0.7597 -0.4233
   97OSM   H14F 9701   1.552   4.343   9.366  1.7281  1.7948  0.1506
   97OSM   H14G 9702   1.534   4.156   9.373  0.6495  0.2632 -1.5394
   97OSM   C15F 9703   1.702   4.237   9.271 -0.4673 -0.0794  0.1511
   97OSM   H15F 9704   1.765   4.146   9.270 -0.5995 -0.1802  0.6363
   97OSM   H15G 9705   1.775   4.313   9.304 -0.7301  0.5109 -0.6112
   97OSM   C16F 9706   1.652   4.267   9.129 -0.2661  0.2582  0.4334
   97OSM   H16F 9707   1.597   4.363   9.139 -1.3432 -0.2946 -0.1631
   97OSM   H16G 9708   1.587   4.193   9.078 -1.0988  0.5287  1.0876
   97OSM   C17F 9709   1.771   4.302   9.037 -0.1435  0.5873  0.7712
   97OSM   H17F 9710   1.846   4.364   9.090  0.5303 -0.5031  1.1122
   97OSM   H17G 9711   1.745   4.349   8.939  2.7870  0.7772  0.0100
   97OSM   C18F 9712   1.826   4.168   8.992 -0.0641 -0.5630 -0.0405
   97OSM   H18F 9713   1.860   4.107   9.078 -1.2415 -2.8714 -1.1825
   97OSM   H18G 9714   1.902   4.196   8.916 -0.9166  3.1831  0.4077
   97OSM   H18H 9715   1.744   4.106   8.951 -0.7215  0.0353  0.3592
   98OSM      N 9716   1.335   3.975  11.192 -0.4367  0.5106 -0.5366
   98OSM    C15 9717   1.441   4.080  11.169 -0.0865  0.3372 -1.0992
   98OSM   H15A 9718   1.484   4.106  11.265 -2.4119  1.5938 -0.3588
   98OSM   H15B 9719   1.403   4.171  11.126  0.4014  0.6870 -0.7962
   98OSM   H15C 9720   1.520   4.044  11.104 -0.9005 -0.1451 -1.8283
   98OSM    C14 9721   1.396   3.865  11.267 -0.1416  0.3333 -0.1626
   98OSM   H14A 9722   1.467   3.808  11.210  0.3968  0.6799  0.1599
   98OSM   H14B 9723   1.318   3.794  11.291  0.4151  0.1820  1.2508
   98OSM   H14C 9724   1.438   3.898  11.361  2.2765 -0.0133 -1.1007
   98OSM    C13 9725   1.216   4.032  11.274 -0.1226  0.0661  0.0347
   98OSM   H13A 9726   1.243   4.069  11.371  1.6217  2.3000 -1.2399
   98OSM   H13B 9727   1.139   3.958  11.287 -2.2078  2.0908 -0.5190
   98OSM   H13C 9728   1.175   4.113  11.216 -0.7077 -1.5910 -1.9401
   98OSM    C12 9729   1.281   3.939  11.051 -0.2947  0.1546 -0.1438
   98OSM   H12A 9730   1.240   4.034  11.021  0.8287 -0.0291 -2.3583
   98OSM   H12B 9731   1.191   3.879  11.057  0.2004 -0.5347  0.4832
   98OSM    C11 9732   1.379   3.890  10.941  0.2607  0.1723  0.1303
   98OSM   H11A 9733   1.471   3.951  10.954 -0.2772  0.9419  0.3432
   98OSM   H11B 9734   1.333   3.913  10.842  0.8023  1.1300  0.1018
   98OSM      P 9735   1.297   3.636  10.956 -0.3290 -0.1855 -0.2798
   98OSM    O13 9736   1.313   3.532  11.060  0.5739  0.3973  0.1477
   98OSM    O14 9737   1.161   3.688  10.933  0.6722  0.3213  0.6669
   98OSM    O11 9738   1.340   3.559  10.824  1.0196 -0.6667 -0.2719
   98OSM    O12 9739   1.410   3.747  10.965 -0.3589  0.7063  0.0992
   98OSM    C1S 9740   1.325   3.629  10.698 -0.5315 -0.4206  0.3823
   98OSM    H1S 9741   1.410   3.700  10.691  0.0042 -0.9399  1.4188
   98OSM    H1T 9742   1.236   3.694  10.693  0.2512  0.5839 -0.9830
   98OSM     NF 9743   1.317   3.607  10.457  0.1203  0.2931  0.4718
   98OSM    HNF 9744   1.222   3.609  10.427  0.6358  1.2773 -1.1027
   98OSM    C2S 9745   1.332   3.532  10.582  0.0608  1.2071 -0.6398
   98OSM    H2S 9746   1.427   3.475  10.568 -0.0231  1.0122 -0.4031
   98OSM    C3S 9747   1.225   3.421  10.592 -0.2160  0.3488  0.7939
   98OSM    H3S 9748   1.122   3.463  10.585 -0.4622 -0.2135  1.0250
   98OSM     O3 9749   1.218   3.357  10.716  0.3268 -0.5881  0.4710
   98OSM    HO3 9750   1.262   3.423  10.771 -1.0005 -0.4060  1.3287
   98OSM    C4S 9751   1.237   3.318  10.483  0.2226  0.3861  0.1492
   98OSM    H4S 9752   1.345   3.297  10.479  0.2293  0.0069  1.8111
   98OSM    C5S 9753   1.146   3.285  10.391 -0.4316 -0.9135  0.3820
   98OSM    H5S 9754   1.046   3.332  10.391 -1.4403 -2.9661 -0.0232
   98OSM    C6S 9755   1.167   3.183  10.284  0.1438  0.3920 -0.5784
   98OSM    H6S 9756   1.194   3.094  10.345 -2.5854  0.5776  0.9991
   98OSM    H6T 9757   1.258   3.212  10.228  1.9112  0.6850  2.3616
   98OSM    C7S 9758   1.046   3.134  10.203  0.1056 -0.5262 -0.0739
   98OSM    H7S 9759   1.007   3.218  10.142  1.1913  0.1648  0.1920
   98OSM    H7T 9760   0.966   3.106  10.276 -0.8179  0.0200 -0.8681
   98OSM    C8S 9761   1.082   3.008  10.124  0.1495  0.3278 -0.0096
   98OSM    H8S 9762   1.073   2.908  10.173 -2.0540  0.0675 -0.9222
   98OSM    H8T 9763   1.189   3.018  10.095  0.4070 -0.0743  0.7774
   98OSM    C9S 9764   1.003   3.000   9.996 -0.7879 -0.1218  0.0996
   98OSM    H9S 9765   0.994   3.101   9.951 -0.0048  1.5458  3.5746
   98OSM    H9T 9766   0.899   2.967  10.018 -0.8284 -1.9909 -2.5292
   98OSM   C10S 9767   1.050   2.909   9.892  0.1661  0.3704  0.0633
   98OSM   H10S 9768   0.979   2.867   9.818  1.4344 -1.2420 -0.2407
   98OSM   H10T 9769   1.091   2.818   9.940  0.3253  1.7506  2.6079
   98OSM   C11S 9770   1.167   2.974   9.804 -0.3420 -0.2162  0.7399
   98OSM   H11S 9771   1.242   3.009   9.879 -0.7606 -0.7018  1.3904
   98OSM   H11T 9772   1.125   3.065   9.757 -0.2784  0.6677  2.3402
   98OSM   C12S 9773   1.238   2.875   9.707 -0.0051 -0.2075 -0.2305
   98OSM   H12S 9774   1.163   2.834   9.636 -0.6732 -1.3298  1.1112
   98OSM   H12T 9775   1.286   2.784   9.748 -1.2296 -1.0319 -0.5873
   98OSM   C13S 9776   1.337   2.956   9.620  0.7985 -0.2511 -0.4565
   98OSM   H13S 9777   1.414   3.009   9.680 -0.7129  2.4446 -0.7985
   98OSM   H13T 9778   1.288   3.044   9.573 -0.7848 -0.8686 -0.0103
   98OSM   C14S 9779   1.399   2.864   9.518 -0.6363 -0.3910  0.3668
   98OSM   H14S 9780   1.324   2.828   9.445  0.6105  2.5135 -2.4637
   98OSM   H14T 9781   1.441   2.776   9.571 -0.2953 -0.5381 -0.1459
   98OSM   C15S 9782   1.499   2.944   9.433  0.4546 -0.0868  0.5014
   98OSM   H15S 9783   1.578   2.987   9.498  2.0421  0.4250 -1.7179
   98OSM   H15T 9784   1.445   3.030   9.387 -1.2627 -1.0478  0.6930
   98OSM   C16S 9785   1.554   2.864   9.311 -0.1064  0.0641  0.3183
   98OSM   H16S 9786   1.594   2.765   9.341 -0.5289 -0.0069  0.6460
   98OSM   H16T 9787   1.631   2.931   9.268 -0.0710  0.1134  0.4617
   98OSM   C17S 9788   1.461   2.830   9.188 -0.2608  0.4207 -0.7787
   98OSM   H17S 9789   1.423   2.924   9.144 -1.8762 -0.1147 -0.5739
   98OSM   H17T 9790   1.381   2.758   9.217  1.1511 -0.1662  1.7865
   98OSM   C18S 9791   1.540   2.778   9.069 -0.3571 -0.4433  0.0203
   98OSM   H18S 9792   1.580   2.675   9.084  0.7386  0.0667  0.7018
   98OSM   H18T 9793   1.640   2.826   9.062  0.0247 -0.8743  1.9649
   98OSM   H18U 9794   1.486   2.776   8.972 -0.4097  0.6987  0.0281
   98OSM    C1F 9795   1.410   3.691  10.422 -0.3303  0.8787 -0.0463
   98OSM     OF 9796   1.530   3.679  10.466 -0.6301 -0.2908  0.7472
   98OSM    C2F 9797   1.365   3.812  10.350  0.0903  0.0802  0.3118
   98OSM    H2F 9798   1.363   3.892  10.427 -0.3581 -0.8427  1.2738
   98OSM    H2G 9799   1.264   3.793  10.308 -0.0486 -2.1217  1.5340
   98OSM    C3F 9800   1.453   3.838  10.226  0.2256 -0.0045 -0.2904
   98OSM    H3F 9801   1.555   3.874  10.253  0.7655 -3.4471  2.6435
   98OSM    H3G 9802   1.403   3.924  10.176  0.5016  2.2508  3.1022
   98OSM    C4F 9803   1.465   3.727  10.122  0.2102 -0.3409  0.1228
   98OSM    H4F 9804   1.527   3.647  10.167 -1.4391  0.3632  3.8692
   98OSM    H4G 9805   1.514   3.780  10.038  0.3456 -1.8556 -0.7679
   98OSM    C5F 9806   1.330   3.668  10.080  0.4478 -0.4186 -0.3867
   98OSM    H5F 9807   1.271   3.747  10.027 -0.1339  0.4561  1.5218
   98OSM    H5G 9808   1.274   3.645  10.173  1.4217 -0.7877  0.1112
   98OSM    C6F 9809   1.347   3.545   9.983 -0.1352 -0.5273  0.0628
   98OSM    H6F 9810   1.396   3.460  10.035  0.5718  0.2369  0.6590
   98OSM    H6G 9811   1.409   3.576   9.897  0.4899 -1.2324  0.2499
   98OSM    C7F 9812   1.210   3.493   9.935  0.1451  0.9157  0.7868
   98OSM    H7F 9813   1.167   3.558   9.855  1.7287 -1.8302 -2.4397
   98OSM    H7G 9814   1.138   3.476  10.018 -0.7788 -0.2342 -0.2242
   98OSM    C8F 9815   1.223   3.350   9.877 -0.2518  0.4321 -0.1184
   98OSM    H8F 9816   1.121   3.314   9.851 -0.8293  2.1360 -0.2398
   98OSM    H8G 9817   1.250   3.289   9.967  2.2923  0.9982 -0.4680
   98OSM    C9F 9818   1.327   3.352   9.766 -0.4407 -0.7957  0.2890
   98OSM    H9F 9819   1.430   3.339   9.802 -0.5459  0.3074  1.0206
   98OSM   C10F 9820   1.302   3.356   9.636 -0.1739 -0.2278  0.1606
   98OSM   H10F 9821   1.381   3.348   9.561  0.2140  0.7277  0.4658
   98OSM   C11F 9822   1.165   3.359   9.574 -0.4065 -0.2100 -0.0116
   98OSM   H11F 9823   1.094   3.391   9.654  0.6095  1.9669  0.0482
   98OSM   H11G 9824   1.131   3.256   9.548  0.3318 -1.0347  2.1578
   98OSM   C12F 9825   1.155   3.452   9.450 -0.2104  0.5952  0.0002
   98OSM   H12F 9826   1.174   3.560   9.468  3.2189 -0.1777  1.4006
   98OSM   H12G 9827   1.049   3.444   9.419 -0.6837  0.3388  1.6368
   98OSM   C13F 9828   1.226   3.407   9.325  0.0630  0.6102  0.2203
   98OSM   H13F 9829   1.185   3.309   9.294 -0.4504  0.7722  0.3859
   98OSM   H13G 9830   1.337   3.416   9.327  0.0574  2.6837 -3.4894
   98OSM   C14F 9831   1.183   3.505   9.212  0.0232 -0.9751 -0.6016
   98OSM   H14F 9832   1.207   3.608   9.245 -1.4784 -0.9320  0.3969
   98OSM   H14G 9833   1.075   3.496   9.188  0.0353  0.9275 -1.4711
   98OSM   C15F 9834   1.268   3.489   9.084 -0.0367 -0.6359  0.0970
   98OSM   H15F 9835   1.253   3.386   9.045 -1.8136 -0.1929 -0.4576
   98OSM   H15G 9836   1.374   3.490   9.115 -0.1119  1.2054  0.3321
   98OSM   C16F 9837   1.233   3.587   8.970 -0.5850 -0.6930 -0.6479
   98OSM   H16F 9838   1.280   3.684   8.996  0.2255 -1.0422 -0.7646
   98OSM   H16G 9839   1.123   3.597   8.966 -0.5497  0.5264  0.8395
   98OSM   C17F 9840   1.292   3.552   8.829 -0.2674 -0.1256 -0.0693
   98OSM   H17F 9841   1.271   3.445   8.811  2.3127 -1.1365  2.4900
   98OSM   H17G 9842   1.402   3.570   8.829 -0.2869  0.1221  1.4167
   98OSM   C18F 9843   1.219   3.640   8.725  0.3094  0.3697  0.8585
   98OSM   H18F 9844   1.225   3.745   8.761 -0.2064  1.0769 -1.0787
   98OSM   H18G 9845   1.118   3.596   8.708  0.6483  0.9376 -3.0328
   98OSM   H18H 9846   1.260   3.615   8.625 -0.5587  0.1441  0.5527
   99OSM      N 9847   3.015   3.839  10.690  0.1112  0.4829 -0.3512
   99OSM    C15 9848   2.955   3.977  10.716 -0.5634 -0.1458  0.2078
   99OSM   H15A 9849   3.003   4.059  10.664  0.6209 -0.5925  0.5837
   99OSM   H15B 9850   2.961   3.998  10.822  0.3791  0.2674  0.0799
   99OSM   H15C 9851   2.850   3.986  10.691 -1.1609 -2.4974  1.6581
   99OSM    C14 9852   2.929   3.752  10.775 -0.2906 -0.4320 -0.0617
   99OSM   H14A 9853   2.972   3.654  10.788  3.1500  0.6433 -2.5634
   99OSM   H14B 9854   2.827   3.748  10.739 -0.7401  3.4858  0.5074
   99OSM   H14C 9855   2.931   3.788  10.877 -0.0629  0.0844 -0.2476
   99OSM    C13 9856   2.987   3.814  10.544  0.2498 -0.3769 -0.0990
   99OSM   H13A 9857   2.882   3.824  10.520 -0.8340 -1.4366  3.8620
   99OSM   H13B 9858   3.003   3.711  10.517 -0.3294 -0.1563 -1.3136
   99OSM   H13C 9859   3.038   3.886  10.482  1.1493 -0.6494  0.3196
   99OSM    C12 9860   3.162   3.829  10.735  0.4439 -0.4471 -0.2183
   99OSM   H12A 9861   3.168   3.830  10.843 -0.1906 -1.4270 -0.1716
   99OSM   H12B 9862   3.217   3.921  10.718 -3.6153  2.2533  0.5692
   99OSM    C11 9863   3.241   3.708  10.684  0.3120 -0.3262  0.1115
   99OSM   H11A 9864   3.345   3.716  10.723 -0.8282  1.5895  2.9325
   99OSM   H11B 9865   3.254   3.720  10.574 -0.3336 -1.0968 -0.0571
   99OSM      P 9866   3.224   3.503  10.843 -0.1189 -0.0990 -0.1339
   99OSM    O13 9867   3.343   3.575  10.902  0.6711 -0.0904 -0.9561
   99OSM    O14 9868   3.110   3.459  10.930 -0.0152  0.3890  0.5368
   99OSM    O11 9869   3.283   3.373  10.774 -0.3939 -0.0846 -0.3905
   99OSM    O12 9870   3.163   3.596  10.729  0.7652  0.0900 -0.4928
   99OSM    C1S 9871   3.309   3.365  10.634 -0.7351 -0.3813 -0.1005
   99OSM    H1S 9872   3.256   3.442  10.575  1.9348  2.8193  1.5096
   99OSM    H1T 9873   3.265   3.268  10.601 -2.6752  0.0690  1.1110
   99OSM     NF 9874   3.489   3.329  10.463  0.1224 -0.1403 -0.4010
   99OSM    HNF 9875   3.551   3.251  10.457  0.5657  0.1744  0.1785
   99OSM    C2S 9876   3.469   3.370  10.609 -0.3218 -0.0455 -0.3744
   99OSM    H2S 9877   3.509   3.473  10.623 -0.1076 -0.2564  0.5360
   99OSM    C3S 9878   3.546   3.284  10.713 -0.4601 -0.2669 -0.6259
   99OSM    H3S 9879   3.490   3.189  10.715  1.0293 -1.1432  0.7140
   99OSM     O3 9880   3.555   3.332  10.847 -0.3229  0.1624 -0.3298
   99OSM    HO3 9881   3.479   3.387  10.867 -0.9062 -0.1063 -1.7587
   99OSM    C4S 9882   3.685   3.264  10.669 -0.6389  0.0250 -0.0307
   99OSM    H4S 9883   3.706   3.170  10.616  1.6543  0.7006 -0.3953
   99OSM    C5S 9884   3.795   3.345  10.683  0.7276 -1.3223  1.0182
   99OSM    H5S 9885   3.780   3.447  10.722 -0.7442 -0.3029 -1.9842
   99OSM    C6S 9886   3.934   3.323  10.630 -0.9836 -0.2380 -0.3517
   99OSM    H6S 9887   4.004   3.313  10.716  0.9930  1.0762 -1.7581
   99OSM    H6T 9888   3.966   3.412  10.572  1.5205 -0.3025  0.8842
   99OSM    C7S 9889   3.950   3.205  10.533  0.0416 -0.2216 -0.3628
   99OSM    H7S 9890   3.903   3.111  10.567  1.1044 -1.4437 -2.1632
   99OSM    H7T 9891   4.060   3.193  10.526  0.4246  2.6622 -0.2907
   99OSM    C8S 9892   3.902   3.245  10.394  0.6570 -0.2477  0.7291
   99OSM    H8S 9893   3.939   3.349  10.382  2.9448 -1.2542 -1.3333
   99OSM    H8T 9894   3.792   3.249  10.385  0.5755 -2.2134  0.7046
   99OSM    C9S 9895   3.977   3.178  10.282  0.2851  0.6712  0.4167
   99OSM    H9S 9896   3.958   3.071  10.260 -2.1024  1.2151 -0.2497
   99OSM    H9T 9897   4.086   3.180  10.304  0.3179  0.5475  0.2718
   99OSM   C10S 9898   3.950   3.253  10.152 -0.5831 -0.1281  0.6936
   99OSM   H10S 9899   4.032   3.325  10.132 -0.9440 -0.0114 -0.4012
   99OSM   H10T 9900   3.863   3.319  10.167  0.8740  1.9662  0.0962
   99OSM   C11S 9901   3.904   3.164  10.040 -0.4656 -0.6691  0.1811
   99OSM   H11S 9902   3.815   3.109  10.077  0.0332 -2.2202 -0.8764
   99OSM   H11T 9903   3.996   3.107  10.013 -0.9950 -2.0030  1.1526
   99OSM   C12S 9904   3.864   3.243   9.911  1.0320  0.4497  0.1289
   99OSM   H12S 9905   3.807   3.173   9.846  0.6842 -0.4430  1.3716
   99OSM   H12T 9906   3.797   3.329   9.935  1.6669  1.6035 -2.0756
   99OSM   C13S 9907   3.986   3.300   9.838  0.8407  0.3420 -0.1967
   99OSM   H13S 9908   4.046   3.214   9.802 -1.0840 -1.7835  1.5884
   99OSM   H13T 9909   4.043   3.354   9.917 -0.1786 -1.9105  2.1428
   99OSM   C14S 9910   3.946   3.402   9.721  0.6545 -0.5369  0.1239
   99OSM   H14S 9911   3.855   3.459   9.751 -2.8326 -4.1727 -2.8582
   99OSM   H14T 9912   3.907   3.336   9.640 -0.2094 -0.5486  0.5451
   99OSM   C15S 9913   4.067   3.488   9.674  0.6666  0.2848 -0.2207
   99OSM   H15S 9914   4.143   3.426   9.622  0.6691  0.5029 -0.4746
   99OSM   H15T 9915   4.104   3.540   9.764  1.3791  0.7117 -0.7607
   99OSM   C16S 9916   4.012   3.594   9.572  1.0236 -0.0105  1.4802
   99OSM   H16S 9917   4.096   3.648   9.524  0.9879  1.4613  3.0497
   99OSM   H16T 9918   3.948   3.671   9.619  0.1047 -1.3956  2.5512
   99OSM   C17S 9919   3.925   3.534   9.463 -0.3114 -0.3821 -0.3099
   99OSM   H17S 9920   3.892   3.618   9.397  1.2806  1.6848  1.4536
   99OSM   H17T 9921   3.838   3.469   9.482 -1.0570  0.6711 -0.0922
   99OSM   C18S 9922   4.023   3.446   9.386 -0.5617 -0.1005  0.2010
   99OSM   H18S 9923   4.117   3.496   9.355  0.0823 -2.0879 -1.1295
   99OSM   H18T 9924   3.991   3.407   9.287 -0.8766  1.3760 -0.2990
   99OSM   H18U 9925   4.038   3.354   9.446  0.8100  0.9416  1.4768
   99OSM    C1F 9926   3.462   3.398  10.350 -0.5984 -0.4865 -0.4114
   99OSM     OF 9927   3.378   3.489  10.360  0.7987 -0.0545 -0.1249
   99OSM    C2F 9928   3.538   3.367  10.222 -0.1012 -0.0575  0.2317
   99OSM    H2F 9929   3.519   3.258  10.214  0.9404 -0.0458 -2.8123
   99OSM    H2G 9930   3.647   3.384  10.231 -0.2756  2.1215 -1.2160
   99OSM    C3F 9931   3.473   3.443  10.101  0.3036  0.6261 -0.6005
   99OSM    H3F 9932   3.377   3.393  10.077  0.1166 -0.4031  2.1692
   99OSM    H3G 9933   3.454   3.549  10.128  3.0579  0.3552  2.8536
   99OSM    C4F 9934   3.559   3.429   9.973 -1.2233 -0.3648 -0.1124
   99OSM    H4F 9935   3.583   3.322   9.955  0.9537  0.1981 -0.7351
   99OSM    H4G 9936   3.661   3.465   9.997 -1.2934  0.4472 -1.0106
   99OSM    C5F 9937   3.512   3.503   9.843  0.0748 -0.6678 -0.4181
   99OSM    H5F 9938   3.597   3.491   9.772 -1.7437 -3.6972 -2.1855
   99OSM    H5G 9939   3.489   3.609   9.865 -0.6353 -0.8894 -0.0895
   99OSM    C6F 9940   3.387   3.457   9.762 -0.3394 -0.1244 -0.1115
   99OSM    H6F 9941   3.306   3.470   9.837 -0.4667  1.6079 -0.5417
   99OSM    H6G 9942   3.401   3.350   9.733 -0.0492 -0.6309  1.8438
   99OSM    C7F 9943   3.365   3.547   9.640  0.2639  0.5071  0.1675
   99OSM    H7F 9944   3.450   3.536   9.569 -0.3422 -2.3725 -0.1564
   99OSM    H7G 9945   3.359   3.654   9.668  0.3035  0.2808  1.0480
   99OSM    C8F 9946   3.221   3.514   9.579  0.0657 -0.1922  0.4681
   99OSM    H8F 9947   3.179   3.601   9.525  2.0466  0.8190  0.5461
   99OSM    H8G 9948   3.154   3.496   9.666  0.8634 -0.8262  0.9656
   99OSM    C9F 9949   3.230   3.390   9.494  0.2069  0.2725 -0.8550
   99OSM    H9F 9950   3.304   3.315   9.525 -0.9056 -0.1680  0.8075
   99OSM   C10F 9951   3.140   3.355   9.400  0.3616  0.7865  0.2669
   99OSM   H10F 9952   3.162   3.277   9.327 -2.6328  0.3201 -0.1623
   99OSM   C11F 9953   3.021   3.438   9.372 -0.8276  0.3479 -0.6785
   99OSM   H11F 9954   2.990   3.493   9.462 -0.3683 -2.4907  1.2876
   99OSM   H11G 9955   2.939   3.374   9.332 -0.6427 -0.7342  0.6617
   99OSM   C12F 9956   3.050   3.534   9.253  0.3421  0.3161  0.2922
   99OSM   H12F 9957   3.137   3.596   9.285  2.2256 -1.9112 -0.3378
   99OSM   H12G 9958   2.966   3.607   9.254  2.0189  2.3105  2.1381
   99OSM   C13F 9959   3.069   3.463   9.115 -0.3992  0.4945  0.4269
   99OSM   H13F 9960   3.156   3.395   9.130 -0.4629  0.0616 -1.0880
   99OSM   H13G 9961   3.102   3.542   9.044  0.3208  0.0121  0.2154
   99OSM   C14F 9962   2.948   3.391   9.048  0.2131 -0.6352  0.5250
   99OSM   H14F 9963   2.919   3.301   9.108  0.6006 -2.2780 -1.6881
   99OSM   H14G 9964   2.975   3.358   8.945  0.6562 -1.0783  0.7802
   99OSM   C15F 9965   2.825   3.481   9.036  0.1102  0.1135 -0.0781
   99OSM   H15F 9966   2.856   3.588   9.036 -3.0099  1.0902 -2.0894
   99OSM   H15G 9967   2.778   3.473   9.137  0.0686  2.5067  0.1182
   99OSM   C16F 9968   2.727   3.440   8.916  0.0574 -0.0289  0.1544
   99OSM   H16F 9969   2.718   3.329   8.923  2.6623 -0.2384  0.7840
   99OSM   H16G 9970   2.789   3.464   8.827  0.4027 -2.2883 -0.2467
   99OSM   C17F 9971   2.592   3.513   8.903  0.1662 -0.0310 -0.0820
   99OSM   H17F 9972   2.609   3.621   8.882  0.7095  0.3391  2.1389
   99OSM   H17G 9973   2.547   3.497   9.003 -1.4238  0.4243 -0.7056
   99OSM   C18F 9974   2.511   3.443   8.789 -0.2846 -0.0422 -0.5842
   99OSM   H18F 9975   2.422   3.501   8.756 -0.0742  1.0171  0.6895
   99OSM   H18G 9976   2.484   3.344   8.833 -2.5415  0.7347 -0.1480
   99OSM   H18H 9977   2.571   3.427   8.697  1.5302 -1.9063  0.8794
  100OSM      N 9978   6.145   4.887  11.235  0.0939 -0.0649 -0.2964
  100OSM    C15 9979   6.015   4.820  11.204  0.2507  0.6139 -0.1813
  100OSM   H15A 9980   5.937   4.894  11.194  0.5657  1.1610  1.2656
  100OSM   H15B 9981   5.989   4.755  11.286  1.8233  0.7003  0.3989
  100OSM   H15C 9982   6.017   4.768  11.109  1.7677  3.2584 -1.6649
  100OSM    C14 9983   6.117   4.968  11.361  0.2166  0.3131  0.0085
  100OSM   H14A 9984   6.025   5.023  11.342  2.0212  3.7395  0.7804
  100OSM   H14B 9985   6.193   5.040  11.386  0.7095  0.0721 -0.8099
  100OSM   H14C 9986   6.108   4.910  11.452 -0.0193 -0.8920 -0.7616
  100OSM    C13 9987   6.259   4.798  11.267  0.4244 -0.2989 -0.0760
  100OSM   H13A 9988   6.346   4.856  11.294  0.8123  0.6757 -3.2136
  100OSM   H13B 9989   6.297   4.751  11.177  0.0944 -0.7504  0.0196
  100OSM   H13C 9990   6.226   4.718  11.333 -3.4298 -0.5272 -2.1607
  100OSM    C12 9991   6.174   4.981  11.114 -0.1562 -0.4395 -0.4096
  100OSM   H12A 9992   6.259   5.041  11.141  0.8483 -2.2100  0.4399
  100OSM   H12B 9993   6.089   5.048  11.101  1.8665  2.1559 -0.6298
  100OSM    C11 9994   6.211   4.920  10.973 -1.1027 -0.1237 -0.6653
  100OSM   H11A 9995   6.286   4.840  10.989 -1.8343 -0.8108 -0.6432
  100OSM   H11B 9996   6.256   5.006  10.920 -0.6316  0.3802  0.5448
  100OSM      P 9997   6.015   4.965  10.809  0.1286  0.1813 -0.3253
  100OSM    O13 9998   5.916   4.878  10.741 -0.1986 -0.6398  0.1141
  100OSM    O14 9999   5.961   5.087  10.874  0.1481 -0.1418 -0.2824
  100OSM    O1110000   6.121   5.000  10.705  0.2237 -0.4935  0.0908
  100OSM    O1210001   6.093   4.875  10.910  0.1154 -0.0176 -0.3593
  100OSM    C1S10002   6.153   4.924  10.593 -0.1020  0.2608  0.3077
  100OSM    H1S10003   6.060   4.878  10.553  0.2033 -0.1935  0.1107
  100OSM    H1T10004   6.209   4.829  10.608 -0.0587  0.3476  0.6902
  100OSM     NF10005   6.206   4.942  10.355  0.1545 -0.3010 -0.5273
  100OSM    HNF10006   6.289   4.906  10.313  1.2848 -3.4271  4.0039
  100OSM    C2S10007   6.219   5.014  10.481 -0.4282 -0.1112 -0.0118
  100OSM    H2S10008   6.158   5.105  10.462  1.5142  1.4963  1.3271
  100OSM    C3S10009   6.364   5.046  10.524 -0.3331 -0.4905  0.5260
  100OSM    H3S10010   6.426   4.955  10.540  2.8883  1.5982  0.1567
  100OSM     O310011   6.365   5.103  10.655  0.6021  0.8947  0.7508
  100OSM    HO310012   6.278   5.082  10.689  0.7860 -0.6300  0.3278
  100OSM    C4S10013   6.423   5.131  10.421 -0.6070 -0.0311 -0.4601
  100OSM    H4S10014   6.475   5.072  10.344 -0.6014 -0.9319  0.2247
  100OSM    C5S10015   6.436   5.268  10.423 -0.5217  1.2674  0.1984
  100OSM    H5S10016   6.428   5.323  10.518  2.4662  0.6750  0.8437
  100OSM    C6S10017   6.521   5.349  10.329  0.2972 -0.1018 -0.1519
  100OSM    H6S10018   6.623   5.341  10.371 -0.1056 -1.5068  0.5547
  100OSM    H6T10019   6.496   5.457  10.341  1.1732  0.1904 -0.8860
  100OSM    C7S10020   6.522   5.306  10.179  0.1838  0.5172 -0.2649
  100OSM    H7S10021   6.418   5.314  10.140  0.2537 -0.1753 -0.5975
  100OSM    H7T10022   6.548   5.199  10.166 -0.4156 -0.0471  2.7204
  100OSM    C8S10023   6.619   5.384  10.077 -0.0223  0.1574 -0.6757
  100OSM    H8S10024   6.726   5.370  10.103 -0.2799 -1.4648 -0.4124
  100OSM    H8T10025   6.606   5.494  10.075  2.8064  0.5274 -1.5914
  100OSM    C9S10026   6.603   5.325   9.943 -0.0944  0.1191 -0.3120
  100OSM    H9S10027   6.503   5.356   9.904 -0.6616 -1.1856  0.0600
  100OSM    H9T10028   6.620   5.215   9.939 -1.5247 -0.1762  1.0985
  100OSM   C10S10029   6.698   5.387   9.837 -0.2232  0.7931  0.8441
  100OSM   H10S10030   6.806   5.367   9.852  0.4255  1.7324 -2.1633
  100OSM   H10T10031   6.676   5.496   9.842 -2.0896  0.3673  2.1805
  100OSM   C11S10032   6.650   5.345   9.694  0.2648  0.5512  0.3896
  100OSM   H11S10033   6.541   5.365   9.691  0.2628  0.3765 -3.1798
  100OSM   H11T10034   6.664   5.235   9.689  2.5995  0.8372 -0.1775
  100OSM   C12S10035   6.730   5.399   9.573 -0.2532 -0.0507  0.3522
  100OSM   H12S10036   6.837   5.375   9.589  0.2494  1.5010 -0.5644
  100OSM   H12T10037   6.719   5.509   9.557 -1.4199 -0.5785 -2.9502
  100OSM   C13S10038   6.677   5.326   9.438  0.5459 -0.3931 -0.5148
  100OSM   H13S10039   6.568   5.348   9.435  0.1982 -1.9540  0.1375
  100OSM   H13T10040   6.712   5.221   9.439 -1.7150 -1.1732  1.5072
  100OSM   C14S10041   6.719   5.393   9.304  0.0705  0.4672  0.4109
  100OSM   H14S10042   6.829   5.377   9.295  0.1257  0.5263  0.9592
  100OSM   H14T10043   6.683   5.497   9.309  2.0306  1.2314 -0.8720
  100OSM   C15S10044   6.654   5.325   9.187 -0.3064 -0.6652  0.0247
  100OSM   H15S10045   6.650   5.214   9.180  1.9544 -0.7236 -0.8742
  100OSM   H15T10046   6.720   5.333   9.097 -1.1864 -0.0490 -0.5769
  100OSM   C16S10047   6.518   5.392   9.134 -0.3918 -0.2844  0.1641
  100OSM   H16S10048   6.529   5.492   9.088 -0.1232 -0.7312 -0.7516
  100OSM   H16T10049   6.458   5.399   9.228  2.6115 -0.0028  2.1431
  100OSM   C17S10050   6.441   5.314   9.026 -0.6088  0.2455 -0.3215
  100OSM   H17S10051   6.500   5.307   8.932 -0.4210  2.4206 -0.4012
  100OSM   H17T10052   6.350   5.374   9.003  0.4916  2.8113  1.7699
  100OSM   C18S10053   6.408   5.165   9.061  0.5922  0.7328  0.1885
  100OSM   H18S10054   6.340   5.166   9.149  1.3516  0.9384  0.7794
  100OSM   H18T10055   6.501   5.111   9.086  0.3078 -0.0102 -0.3432
  100OSM   H18U10056   6.360   5.118   8.973 -0.9095 -0.1975  1.4886
  100OSM    C1F10057   6.089   4.901  10.300  0.3577 -0.4513 -0.4697
  100OSM     OF10058   5.975   4.953  10.326  0.6121  0.3502 -0.0642
  100OSM    C2F10059   6.100   4.785  10.211  0.3471  0.1527  0.6637
  100OSM    H2F10060   6.129   4.698  10.275 -0.7007 -0.2365  0.6239
  100OSM    H2G10061   6.177   4.803  10.133 -0.5571 -0.0375 -0.2871
  100OSM    C3F10062   5.979   4.759  10.125 -0.0476 -0.1082  0.5502
  100OSM    H3F10063   5.888   4.783  10.184  0.2736  2.1671  0.1563
  100OSM    H3G10064   5.969   4.650  10.105  0.7170 -0.2460  0.9235
  100OSM    C4F10065   5.976   4.849  10.001 -0.1045  0.6805 -0.3913
  100OSM    H4F10066   6.065   4.837   9.935 -2.7683  2.4797 -4.4697
  100OSM    H4G10067   5.967   4.959  10.018  1.0327  0.7877 -0.4222
  100OSM    C5F10068   5.856   4.825   9.905 -0.0691 -0.1490  0.4891
  100OSM    H5F10069   5.772   4.876   9.957  0.8019  0.4562  1.3132
  100OSM    H5G10070   5.836   4.716   9.907 -3.1172  0.3243 -1.5580
  100OSM    C6F10071   5.878   4.888   9.770 -0.2396  0.0219  0.1300
  100OSM    H6F10072   5.978   4.857   9.731  0.6571 -0.4212  2.7081
  100OSM    H6G10073   5.858   4.997   9.771 -0.8675  0.0423 -4.1941
  100OSM    C7F10074   5.785   4.822   9.668  0.2629  0.2997 -0.6086
  100OSM    H7F10075   5.677   4.836   9.690  0.4076 -0.7279  0.7674
  100OSM    H7G10076   5.805   4.715   9.691  0.7536  0.8350  1.5283
  100OSM    C8F10077   5.828   4.833   9.519 -0.0673 -0.8163  0.9053
  100OSM    H8F10078   5.759   4.778   9.452 -1.0786  1.3368  0.1209
  100OSM    H8G10079   5.925   4.780   9.521  0.4408  0.0792  0.2957
  100OSM    C9F10080   5.842   4.977   9.468 -0.1261  0.4088 -0.7406
  100OSM    H9F10081   5.806   5.056   9.536  0.1406  2.1853 -2.6044
  100OSM   C10F10082   5.907   5.011   9.353 -0.4998  0.9507 -0.6541
  100OSM   H10F10083   5.918   5.118   9.330 -1.6187  1.1551 -0.2421
  100OSM   C11F10084   5.965   4.912   9.251 -0.3064 -0.0570  0.8771
  100OSM   H11F10085   5.886   4.846   9.209  1.9987 -1.5905 -1.2018
  100OSM   H11G10086   6.030   4.852   9.317  1.8684  0.2859 -0.8953
  100OSM   C12F10087   6.036   4.971   9.126 -0.2215  0.2067  0.2592
  100OSM   H12F10088   6.097   4.888   9.085 -1.0165  0.4008 -1.3420
  100OSM   H12G10089   6.114   5.046   9.152 -0.0154 -0.0074  0.2580
  100OSM   C13F10090   5.941   5.016   9.007 -0.4766  0.5263  0.3368
  100OSM   H13F10091   6.005   5.070   8.935  0.2905  1.0879  1.4277
  100OSM   H13G10092   5.863   5.088   9.038 -1.9775  0.3993 -3.0009
  100OSM   C14F10093   5.878   4.893   8.929  0.3826 -0.3029 -0.3856
  100OSM   H14F10094   5.799   4.843   8.989 -1.0415  2.0080 -0.2641
  100OSM   H14G10095   5.965   4.830   8.902  1.0317 -0.0690  1.1270
  100OSM   C15F10096   5.830   4.942   8.788  0.3916  0.3674 -0.2355
  100OSM   H15F10097   5.919   4.976   8.732 -0.8886  1.7664 -1.4629
  100OSM   H15G10098   5.759   5.028   8.798  0.9214  0.7720  0.0872
  100OSM   C16F10099   5.739   4.835   8.721 -0.7188 -0.2186 -0.2502
  100OSM   H16F10100   5.705   4.868   8.621 -2.6464 -1.6964 -0.1128
  100OSM   H16G10101   5.649   4.820   8.785 -0.6235  0.6355  0.0837
  100OSM   C17F10102   5.811   4.704   8.699 -0.1609  0.2401  0.0543
  100OSM   H17F10103   5.736   4.623   8.685  2.3413 -1.9413 -1.1076
  100OSM   H17G10104   5.856   4.660   8.790 -2.1851 -0.8969  0.5344
  100OSM   C18F10105   5.911   4.709   8.589 -0.2568 -0.2700  0.3913
  100OSM   H18F10106   5.966   4.614   8.573  0.8154  0.4684 -0.3619
  100OSM   H18G10107   5.982   4.791   8.610 -1.0162  0.8110 -1.1226
  100OSM   H18H10108   5.870   4.732   8.488 -0.5588 -3.0257 -0.1621
  101OSM      N10109   1.207   5.083  11.510 -0.1158 -0.2159  0.1103
  101OSM    C1510110   1.356   5.074  11.504  0.0402  0.2240  0.1123
  101OSM   H15A10111   1.390   5.038  11.599  1.1588  0.5823 -0.1495
  101OSM   H15B10112   1.414   5.164  11.487 -0.0547  0.3685  0.5370
  101OSM   H15C10113   1.377   4.997  11.431  0.7879  0.2250  0.3324
  101OSM    C1410114   1.150   4.942  11.513 -0.2607  0.3351  0.1338
  101OSM   H14A10115   1.167   4.896  11.416  0.0501  1.9174 -0.5680
  101OSM   H14B10116   1.042   4.941  11.517 -0.3067  2.0279 -0.4900
  101OSM   H14C10117   1.197   4.885  11.592  0.0072  0.5647  0.1364
  101OSM    C1310118   1.167   5.144  11.647  0.6595  0.2135 -0.3448
  101OSM   H13A10119   1.069   5.187  11.629  1.1808  0.7497 -1.9567
  101OSM   H13B10120   1.233   5.227  11.670 -0.9152  1.1399  1.0692
  101OSM   H13C10121   1.150   5.067  11.721 -0.9977 -1.1896 -2.1472
  101OSM    C1210122   1.142   5.165  11.393 -0.5333  0.0554 -0.2585
  101OSM   H12A10123   1.165   5.269  11.409 -0.5710 -0.1607  1.3425
  101OSM   H12B10124   1.038   5.137  11.397 -0.7548  0.8143 -0.5820
  101OSM    C1110125   1.190   5.147  11.248  0.6523 -0.2167  0.2811
  101OSM   H11A10126   1.289   5.192  11.230 -0.1143  1.2496 -0.3794
  101OSM   H11B10127   1.133   5.220  11.186 -1.8078 -1.4173  1.0335
  101OSM      P10128   1.079   4.964  11.096 -0.4536  0.1606  0.2258
  101OSM    O1310129   1.149   4.865  11.017  0.0089 -0.1500 -0.0906
  101OSM    O1410130   0.954   4.922  11.155 -0.3599  0.6351 -0.1598
  101OSM    O1110131   1.046   5.083  10.997 -0.0907 -0.0894  0.4912
  101OSM    O1210132   1.174   5.013  11.208 -0.3371  0.5474  0.1068
  101OSM    C1S10133   1.138   5.148  10.913 -0.8163  0.2908  0.2260
  101OSM    H1S10134   1.242   5.153  10.952  0.0665 -0.7998 -1.9373
  101OSM    H1T10135   1.101   5.251  10.891  0.2175  0.3288 -1.3689
  101OSM     NF10136   1.245   5.164  10.697  0.7788  0.8028 -0.0396
  101OSM    HNF10137   1.212   5.246  10.651  2.1731  2.1240  1.2848
  101OSM    C2S10138   1.157   5.080  10.775 -0.2461 -0.0526  0.2684
  101OSM    H2S10139   1.208   4.986  10.806 -1.2113  0.3131  3.1425
  101OSM    C3S10140   1.020   5.049  10.704 -0.9735 -0.0448  0.0547
  101OSM    H3S10141   0.985   5.150  10.673  0.2537 -0.5177 -2.9676
  101OSM     O310142   0.917   4.997  10.789  0.6418 -0.0105 -0.4464
  101OSM    HO310143   0.942   5.020  10.878 -0.8628 -2.1281  0.5450
  101OSM    C4S10144   1.046   4.967  10.585 -0.5879 -0.3593 -0.4685
  101OSM    H4S10145   1.053   5.037  10.500  1.6628  1.5511  1.2240
  101OSM    C5S10146   1.073   4.836  10.570  0.5576 -0.6854  0.6752
  101OSM    H5S10147   1.081   4.772  10.659 -0.2192  1.4314  2.3335
  101OSM    C6S10148   1.093   4.762  10.443  0.2671  0.3784 -0.0101
  101OSM    H6S10149   1.043   4.663  10.449 -0.3997  0.8312  2.2635
  101OSM    H6T10150   1.202   4.742  10.448  0.2233  0.4681  1.5421
  101OSM    C7S10151   1.076   4.837  10.308  0.8028  0.2413 -0.2290
  101OSM    H7S10152   1.145   4.923  10.313  1.0125  0.1800 -1.8651
  101OSM    H7T10153   0.977   4.886  10.314  0.8224  0.0657  2.0500
  101OSM    C8S10154   1.102   4.755  10.178  0.2766 -0.2689 -0.3999
  101OSM    H8S10155   1.030   4.672  10.167  1.1320 -0.8117 -2.1020
  101OSM    H8T10156   1.204   4.710  10.182  0.5236  0.1989 -1.3192
  101OSM    C9S10157   1.093   4.851  10.055  0.0843 -0.0387  0.2317
  101OSM    H9S10158   1.144   4.947  10.077 -0.1317 -0.0581  0.8290
  101OSM    H9T10159   0.984   4.875  10.056  0.1765  0.4111 -0.2017
  101OSM   C10S10160   1.128   4.779   9.925  0.4468 -0.0239  0.3626
  101OSM   H10S10161   1.230   4.736   9.939  1.0364  1.8666  2.3047
  101OSM   H10T10162   1.134   4.861   9.850  1.0651  2.4866  3.0326
  101OSM   C11S10163   1.021   4.679   9.895  0.1570  0.6347 -0.4473
  101OSM   H11S10164   0.919   4.714   9.924 -0.1226 -0.8107  0.3262
  101OSM   H11T10165   1.040   4.587   9.954  0.0549  1.2829  0.6078
  101OSM   C12S10166   1.021   4.665   9.747 -0.0820  0.1494 -0.0878
  101OSM   H12S10167   1.119   4.621   9.717 -0.1552  0.1499 -0.3244
  101OSM   H12T10168   1.025   4.760   9.689 -1.2218 -1.1418 -2.3446
  101OSM   C13S10169   0.902   4.577   9.708 -0.1506 -0.2170 -0.0702
  101OSM   H13S10170   0.805   4.630   9.718 -2.1357 -3.4635 -1.3601
  101OSM   H13T10171   0.907   4.490   9.776  0.3884  0.2956  0.5618
  101OSM   C14S10172   0.913   4.540   9.557  0.1102 -0.3283  0.4756
  101OSM   H14S10173   1.010   4.494   9.528  0.0464 -0.0618 -0.1808
  101OSM   H14T10174   0.906   4.639   9.507 -0.1686 -0.2816  0.6071
  101OSM   C15S10175   0.797   4.458   9.500  0.2623  0.1151 -0.6503
  101OSM   H15S10176   0.707   4.514   9.531  2.0274  2.5462  0.2475
  101OSM   H15T10177   0.809   4.349   9.516  3.3228  0.7910  2.4087
  101OSM   C16S10178   0.789   4.450   9.344 -0.2280  0.2063  0.7382
  101OSM   H16S10179   0.784   4.551   9.299 -0.0137 -0.8069 -1.6378
  101OSM   H16T10180   0.694   4.407   9.305  0.8093 -1.3604 -0.1225
  101OSM   C17S10181   0.898   4.359   9.274  0.3294 -0.3818  0.0854
  101OSM   H17S10182   0.898   4.255   9.313  3.8172  0.2859  2.1453
  101OSM   H17T10183   0.997   4.396   9.310  1.4463  0.0364 -3.2414
  101OSM   C18S10184   0.894   4.350   9.126  0.2453 -0.3960 -0.3607
  101OSM   H18S10185   0.918   4.448   9.079  0.8220 -1.2665 -1.9468
  101OSM   H18T10186   0.790   4.330   9.093 -0.0489  1.4914 -0.6646
  101OSM   H18U10187   0.964   4.274   9.085  0.3370  0.6288 -2.1603
  101OSM    C1F10188   1.374   5.150  10.708 -0.2114 -0.5241  0.4837
  101OSM     OF10189   1.424   5.056  10.771  0.3354 -0.2722 -0.7347
  101OSM    C2F10190   1.461   5.250  10.635  0.0703 -0.1724  0.2216
  101OSM    H2F10191   1.521   5.299  10.715 -1.7474  0.5750  1.1751
  101OSM    H2G10192   1.399   5.324  10.580 -0.7159 -0.0204  1.2902
  101OSM    C3F10193   1.566   5.187  10.547 -0.6257  0.1139  0.5922
  101OSM    H3F10194   1.523   5.097  10.497 -1.0259  1.5022 -1.5901
  101OSM    H3G10195   1.649   5.152  10.612  2.5055  1.7579 -2.4150
  101OSM    C4F10196   1.617   5.283  10.440 -0.2468 -1.2183 -0.0759
  101OSM    H4F10197   1.624   5.387  10.479 -1.8780 -2.5855  4.1536
  101OSM    H4G10198   1.540   5.282  10.361 -1.6785 -0.0513  1.2789
  101OSM    C5F10199   1.731   5.219  10.368 -0.0195 -0.1052 -0.2525
  101OSM    H5F10200   1.711   5.116  10.332 -0.8851  0.1740 -0.5964
  101OSM    H5G10201   1.819   5.224  10.436 -0.7957 -2.6895  0.9845
  101OSM    C6F10202   1.785   5.309  10.247  0.2466  0.7674  0.0982
  101OSM    H6F10203   1.878   5.258  10.214  1.5864  1.3609  2.8311
  101OSM    H6G10204   1.708   5.301  10.167 -0.6879  0.5404  1.0071
  101OSM    C7F10205   1.795   5.452  10.278 -0.1298 -0.4248 -0.1483
  101OSM    H7F10206   1.850   5.464  10.374 -0.5122 -0.9179  0.1379
  101OSM    H7G10207   1.700   5.505  10.298 -0.1136  0.2137 -1.7303
  101OSM    C8F10208   1.860   5.528  10.171  0.0718 -0.1381  0.7633
  101OSM    H8F10209   1.844   5.636  10.192 -3.4996 -0.6290  0.9427
  101OSM    H8G10210   1.804   5.519  10.075 -3.3429  0.6552  2.5955
  101OSM    C9F10211   2.007   5.496  10.161 -0.5304 -0.2704  0.0363
  101OSM    H9F10212   2.065   5.544  10.241 -1.8806  0.7804  0.4004
  101OSM   C10F10213   2.073   5.429  10.068  0.1641  0.2549 -0.0479
  101OSM   H10F10214   2.183   5.425  10.068  0.2797  2.4424  1.8099
  101OSM   C11F10215   2.026   5.354   9.953  0.1995  1.2215  0.7726
  101OSM   H11F10216   1.915   5.358   9.952  0.0409 -1.9742  0.1929
  101OSM   H11G10217   2.054   5.247   9.959 -0.5905  1.0869  2.0964
  101OSM   C12F10218   2.096   5.390   9.821 -0.1211  0.5467 -0.3813
  101OSM   H12F10219   2.206   5.393   9.834  0.0060 -0.5859 -1.1333
  101OSM   H12G10220   2.067   5.487   9.776  0.6917  0.7964 -0.3721
  101OSM   C13F10221   2.061   5.290   9.717 -1.1746  1.0756  0.2621
  101OSM   H13F10222   2.085   5.188   9.754  1.1997  1.2661 -0.6671
  101OSM   H13G10223   2.127   5.298   9.628 -0.7140 -0.2282  0.4664
  101OSM   C14F10224   1.912   5.270   9.689  0.1955  0.2677 -0.3308
  101OSM   H14F10225   1.851   5.363   9.694 -3.4864 -1.8655 -2.8632
  101OSM   H14G10226   1.866   5.201   9.762 -0.4168 -0.5421 -1.4539
  101OSM   C15F10227   1.891   5.202   9.552  0.1061 -0.6784 -1.4117
  101OSM   H15F10228   1.784   5.178   9.529 -0.8509 -0.1007  2.1663
  101OSM   H15G10229   1.944   5.105   9.544  1.0401 -0.3991  1.0204
  101OSM   C16F10230   1.930   5.295   9.430 -0.2884 -0.4228 -0.0558
  101OSM   H16F10231   2.037   5.326   9.434 -0.7869  1.1243  1.8546
  101OSM   H16G10232   1.871   5.387   9.445  1.2839  0.2495  2.1722
  101OSM   C17F10233   1.893   5.244   9.286  0.2217 -0.3440 -0.0496
  101OSM   H17F10234   1.952   5.150   9.279 -0.5227 -1.0627  2.7748
  101OSM   H17G10235   1.936   5.315   9.211  2.0124 -0.8135  0.5129
  101OSM   C18F10236   1.744   5.231   9.261 -0.2770 -0.7461  0.7390
  101OSM   H18F10237   1.693   5.330   9.263  2.7501  0.9836 -1.9216
  101OSM   H18G10238   1.700   5.169   9.342 -0.7687 -1.9328 -0.4229
  101OSM   H18H10239   1.721   5.184   9.163  2.4353  2.8504 -1.7622
  102OSM      N10240   4.883   6.306  10.948  0.2480 -0.2187  0.6455
  102OSM    C1510241   5.003   6.229  11.013  0.4980 -0.0601  0.1852
  102OSM   H15A10242   4.973   6.136  11.058  0.2711 -0.1688 -0.1908
  102OSM   H15B10243   5.053   6.300  11.078 -3.5589  2.2178  0.9801
  102OSM   H15C10244   5.077   6.217  10.935  0.5563 -2.9143  0.6277
  102OSM    C1410245   4.782   6.331  11.059  0.1703 -0.1091  0.0439
  102OSM   H14A10246   4.807   6.394  11.143  0.6084  0.6643 -0.6644
  102OSM   H14B10247   4.749   6.236  11.097 -3.1364 -1.0933 -4.8544
  102OSM   H14C10248   4.703   6.366  10.994  0.2460 -1.5367 -0.8321
  102OSM    C1310249   4.938   6.428  10.885 -0.6712 -0.0976  0.5981
  102OSM   H13A10250   5.022   6.408  10.820 -1.8672 -1.2081 -0.6447
  102OSM   H13B10251   4.976   6.504  10.952 -2.1474 -0.4468  1.8607
  102OSM   H13C10252   4.851   6.467  10.833 -1.3828 -0.0708  1.7846
  102OSM    C1210253   4.813   6.218  10.847 -0.0983  0.1823  0.5542
  102OSM   H12A10254   4.764   6.138  10.901 -0.9271  1.5310  1.8398
  102OSM   H12B10255   4.888   6.189  10.775  0.0177  0.3484  0.6073
  102OSM    C1110256   4.701   6.283  10.759 -0.0332 -0.8920  0.2655
  102OSM   H11A10257   4.663   6.233  10.668  0.7408  1.3931 -1.3704
  102OSM   H11B10258   4.746   6.367  10.701 -1.1948  1.0133  2.0404
  102OSM      P10259   4.460   6.259  10.838 -0.1398 -0.5194 -0.1140
  102OSM    O1310260   4.472   6.122  10.894  0.1206  0.1940  0.4000
  102OSM    O1410261   4.367   6.351  10.914 -0.7083 -0.0678  0.3036
  102OSM    O1110262   4.412   6.261  10.690 -0.3844  0.3064 -0.2895
  102OSM    O1210263   4.594   6.340  10.833  0.0949 -0.8051 -0.5428
  102OSM    C1S10264   4.402   6.391  10.626 -0.0239  0.2745  0.5892
  102OSM    H1S10265   4.504   6.435  10.623  0.7268 -1.3001  1.8611
  102OSM    H1T10266   4.333   6.455  10.685  0.0107  1.4030 -0.5719
  102OSM     NF10267   4.322   6.521  10.441  0.4893 -0.8298  0.0991
  102OSM    HNF10268   4.243   6.578  10.462  2.0325  1.1863  0.5989
  102OSM    C2S10269   4.333   6.386  10.483  0.0143 -0.0286  0.1381
  102OSM    H2S10270   4.397   6.321  10.419  2.7553  1.7835  0.9282
  102OSM    C3S10271   4.194   6.308  10.476  0.3361 -0.1810 -0.0500
  102OSM    H3S10272   4.117   6.352  10.543  0.2845 -0.9084  0.3735
  102OSM     O310273   4.202   6.176  10.530  0.6806 -0.2468 -0.1032
  102OSM    HO310274   4.288   6.186  10.572  1.5139 -0.1403 -1.7716
  102OSM    C4S10275   4.130   6.318  10.337  0.6404 -0.1074 -0.1706
  102OSM    H4S10276   4.123   6.419  10.296 -0.7999 -0.2970 -0.4019
  102OSM    C5S10277   4.099   6.220  10.251  0.5712  0.0349  0.8237
  102OSM    H5S10278   4.094   6.118  10.292 -1.2205  0.7441  2.4215
  102OSM    C6S10279   4.038   6.242  10.116 -0.4410  0.6117 -0.2348
  102OSM    H6S10280   3.995   6.344  10.109  1.1282  1.5002  2.5043
  102OSM    H6T10281   3.950   6.174  10.112 -1.6096  2.0935 -0.1625
  102OSM    C7S10282   4.129   6.208   9.992 -0.1523 -0.2578  0.3279
  102OSM    H7S10283   4.176   6.107  10.003 -0.0565 -0.3855 -1.2010
  102OSM    H7T10284   4.206   6.288   9.989  0.5039 -0.8708  0.5748
  102OSM    C8S10285   4.051   6.210   9.862  0.3322  0.3464 -0.1036
  102OSM    H8S10286   4.004   6.311   9.858  1.4932  0.9115  0.3487
  102OSM    H8T10287   3.963   6.143   9.871  0.9066 -0.0344  3.2292
  102OSM    C9S10288   4.124   6.173   9.734  0.1358 -0.2118 -0.0841
  102OSM    H9S10289   4.182   6.079   9.743 -2.4378 -1.8095  0.2152
  102OSM    H9T10290   4.206   6.247   9.722 -0.4190  1.0189  3.0299
  102OSM   C10S10291   4.036   6.143   9.611 -0.2929  0.5222  0.0167
  102OSM   H10S10292   3.993   6.240   9.579  0.9259  0.8400 -0.6835
  102OSM   H10T10293   3.949   6.077   9.630 -1.2437  1.8426  0.3369
  102OSM   C11S10294   4.117   6.089   9.495  0.1774 -0.5860  0.9145
  102OSM   H11S10295   4.155   5.988   9.522 -1.1789 -1.4380 -0.2975
  102OSM   H11T10296   4.205   6.155   9.476 -0.9598 -0.0081 -2.8485
  102OSM   C12S10297   4.031   6.086   9.364  0.9416  0.3251 -1.1984
  102OSM   H12S10298   3.964   5.998   9.367  0.6777  0.5489 -0.0992
  102OSM   H12T10299   4.103   6.055   9.285 -1.4165  2.1375 -4.1469
  102OSM   C13S10300   3.972   6.220   9.315 -0.0183  0.1747 -0.0039
  102OSM   H13S10301   3.903   6.262   9.391 -0.3536 -0.0601 -0.1754
  102OSM   H13T10302   3.908   6.193   9.228  1.7107 -0.5884 -1.0698
  102OSM   C14S10303   4.076   6.317   9.258 -0.3754 -0.2499 -0.1416
  102OSM   H14S10304   4.132   6.272   9.173  0.1988 -1.0963  0.6814
  102OSM   H14T10305   4.144   6.341   9.342 -0.4792 -1.2429  0.2310
  102OSM   C15S10306   4.010   6.444   9.211 -0.0933  0.4946 -0.2787
  102OSM   H15S10307   3.965   6.494   9.300 -0.7978 -3.2496  1.5608
  102OSM   H15T10308   3.925   6.421   9.142  0.1131  0.4194 -0.5073
  102OSM   C16S10309   4.097   6.551   9.152  0.1445  0.0450  0.3227
  102OSM   H16S10310   4.139   6.501   9.063  1.3178  2.2676 -0.4162
  102OSM   H16T10311   4.188   6.568   9.212 -1.4031 -0.9257  3.0288
  102OSM   C17S10312   4.029   6.683   9.108 -0.4359 -0.2524 -0.0677
  102OSM   H17S10313   3.965   6.735   9.183 -0.8769 -1.7282  0.5997
  102OSM   H17T10314   3.952   6.660   9.031  0.3318  2.0695 -1.5736
  102OSM   C18S10315   4.121   6.795   9.056  0.8880 -0.0466  0.0737
  102OSM   H18S10316   4.064   6.890   9.045 -0.7386 -0.6145  2.8454
  102OSM   H18T10317   4.167   6.763   8.961 -0.3010  0.2937 -0.6250
  102OSM   H18U10318   4.207   6.817   9.122  0.4677 -0.5161  0.7895
  102OSM    C1F10319   4.430   6.591  10.397  0.4678 -0.2362 -0.3665
  102OSM     OF10320   4.542   6.543  10.390 -0.1170  0.6407 -0.0174
  102OSM    C2F10321   4.393   6.733  10.362 -0.3077 -0.0420  0.4989
  102OSM    H2F10322   4.421   6.795  10.450  0.1735 -0.2452  0.4853
  102OSM    H2G10323   4.282   6.730  10.350 -0.2035 -0.7716 -0.2994
  102OSM    C3F10324   4.465   6.789  10.234  0.9195  0.6206 -0.2324
  102OSM    H3F10325   4.576   6.783  10.244  0.8803 -1.5986 -0.9245
  102OSM    H3G10326   4.425   6.892  10.219  0.5526 -0.0003 -3.9792
  102OSM    C4F10327   4.413   6.713  10.111 -0.7074  0.4311  0.2807
  102OSM    H4F10328   4.302   6.712  10.107 -0.7341  2.3672  0.4148
  102OSM    H4G10329   4.449   6.607  10.109 -4.3309 -0.8707 -0.5393
  102OSM    C5F10330   4.467   6.784   9.984  0.3084  1.1011  0.6172
  102OSM    H5F10331   4.578   6.774   9.995  0.2355 -1.7101 -0.8371
  102OSM    H5G10332   4.455   6.894   9.993 -2.7791  0.7683  0.8992
  102OSM    C6F10333   4.412   6.737   9.848 -0.1033 -0.6160 -0.0229
  102OSM    H6F10334   4.458   6.804   9.773 -0.2194 -1.0142 -0.4510
  102OSM    H6G10335   4.302   6.752   9.839 -0.1892 -0.8082  0.6983
  102OSM    C7F10336   4.453   6.594   9.812 -0.5583  0.7741 -0.1312
  102OSM    H7F10337   4.364   6.532   9.838 -2.1023  1.5892 -3.3177
  102OSM    H7G10338   4.540   6.580   9.880 -0.4363 -0.6450 -0.5532
  102OSM    C8F10339   4.494   6.575   9.670  0.1913  0.0133  0.5241
  102OSM    H8F10340   4.520   6.468   9.658  0.7963  0.1582  0.5397
  102OSM    H8G10341   4.577   6.645   9.646 -1.3412  1.2479 -1.4044
  102OSM    C9F10342   4.377   6.602   9.568  1.1832  0.6378 -0.3581
  102OSM    H9F10343   4.277   6.572   9.602  1.9031  0.9540  2.1038
  102OSM   C10F10344   4.392   6.657   9.447 -0.3814 -0.8221 -0.0200
  102OSM   H10F10345   4.301   6.656   9.384 -0.1303  2.7769 -0.5205
  102OSM   C11F10346   4.517   6.715   9.385 -0.3819  0.7060  0.2335
  102OSM   H11F10347   4.602   6.728   9.455 -0.0479  1.4938 -0.3062
  102OSM   H11G10348   4.501   6.819   9.350  2.1357  1.2483  0.5700
  102OSM   C12F10349   4.557   6.637   9.257 -0.6179 -0.6558 -0.1462
  102OSM   H12F10350   4.541   6.528   9.272  0.1914 -0.9686 -1.4510
  102OSM   H12G10351   4.667   6.651   9.249 -0.7162 -0.3031 -0.8859
  102OSM   C13F10352   4.484   6.676   9.133  0.0049  0.3679  0.1286
  102OSM   H13F10353   4.491   6.787   9.137  1.3768  0.2373  2.0302
  102OSM   H13G10354   4.379   6.638   9.129 -0.3444  1.2897  0.2320
  102OSM   C14F10355   4.563   6.621   9.008  0.1027  0.2291  0.0219
  102OSM   H14F10356   4.590   6.514   9.020 -1.1316  0.1721  2.7113
  102OSM   H14G10357   4.659   6.678   8.998  0.8031 -1.0420 -0.5892
  102OSM   C15F10358   4.478   6.633   8.878 -0.5899 -0.4031 -0.1522
  102OSM   H15F10359   4.369   6.626   8.898 -0.2440  1.9442  2.8502
  102OSM   H15G10360   4.509   6.553   8.807  1.3194  1.1168 -1.1042
  102OSM   C16F10361   4.498   6.770   8.805 -0.3212  0.1259  0.4168
  102OSM   H16F10362   4.604   6.787   8.776  0.3163 -1.6047  1.6589
  102OSM   H16G10363   4.454   6.848   8.871  2.3575  1.6744  0.4257
  102OSM   C17F10364   4.426   6.762   8.666 -0.1606 -0.2283 -0.4319
  102OSM   H17F10365   4.495   6.697   8.608  0.3507 -1.3236  1.3449
  102OSM   H17G10366   4.414   6.863   8.624 -3.5597  0.1830  1.3729
  102OSM   C18F10367   4.285   6.717   8.674  0.4292  0.6154  0.8784
  102OSM   H18F10368   4.285   6.612   8.710  2.4730  0.1877 -0.2341
  102OSM   H18G10369   4.232   6.726   8.577  0.4139  1.6873  0.9761
  102OSM   H18H10370   4.230   6.778   8.748 -0.2678 -0.0369  0.8951
  103OSM      N10371   3.219   3.011  10.888 -0.7803 -0.1578  0.6987
  103OSM    C1510372   3.351   3.060  10.943 -1.1260 -0.2358 -0.4534
  103OSM   H15A10373   3.414   2.978  10.974 -0.8244 -0.1771 -0.9024
  103OSM   H15B10374   3.339   3.130  11.025 -1.3276 -0.2655 -0.4574
  103OSM   H15C10375   3.403   3.109  10.862 -0.2151 -2.2534 -1.1030
  103OSM    C1410376   3.262   2.903  10.789  0.4848  0.1496 -0.3152
  103OSM   H14A10377   3.174   2.876  10.734  0.7475  0.8365 -1.0750
  103OSM   H14B10378   3.305   2.816  10.836  0.8258 -0.6187 -2.0147
  103OSM   H14C10379   3.342   2.932  10.722  1.4550 -2.4982 -0.3715
  103OSM    C1310380   3.133   2.955  10.989 -0.3408 -0.1092 -0.5013
  103OSM   H13A10381   3.085   3.027  11.054 -1.5601 -0.8540 -0.5560
  103OSM   H13B10382   3.195   2.894  11.052 -0.8319  2.3067  2.4830
  103OSM   H13C10383   3.058   2.885  10.956 -0.5998  0.0923 -0.3542
  103OSM    C1210384   3.154   3.130  10.820  0.2832  0.5094  0.0391
  103OSM   H12A10385   3.225   3.175  10.753  1.0218  1.0005  1.1557
  103OSM   H12B10386   3.142   3.213  10.888  2.0741 -1.6242  3.0877
  103OSM    C1110387   3.029   3.104  10.737 -0.5378 -0.6453 -0.5252
  103OSM   H11A10388   3.031   3.012  10.675 -0.7887 -1.4814  0.7002
  103OSM   H11B10389   3.022   3.188  10.664 -0.0838  0.1153  0.2923
  103OSM      P10390   2.798   2.995  10.813  0.0082 -0.3339 -0.0458
  103OSM    O1310391   2.855   2.865  10.774 -1.2523  0.1604  0.7142
  103OSM    O1410392   2.727   2.998  10.940  0.0816 -0.1209  0.2089
  103OSM    O1110393   2.708   3.043  10.693 -0.0327  0.1021  0.1630
  103OSM    O1210394   2.916   3.099  10.832 -0.2450 -0.0622  0.0551
  103OSM    C1S10395   2.744   3.136  10.596  0.3040  0.1501  0.8032
  103OSM    H1S10396   2.825   3.095  10.532 -1.2382 -0.7649 -0.6094
  103OSM    H1T10397   2.774   3.227  10.652 -0.5130 -0.1489  1.7426
  103OSM     NF10398   2.686   3.271  10.412 -0.7467  0.7729  0.0962
  103OSM    HNF10399   2.647   3.361  10.428 -2.0958 -0.2288  2.6877
  103OSM    C2S10400   2.625   3.175  10.499 -0.3523  0.1185 -0.3116
  103OSM    H2S10401   2.595   3.091  10.432  2.4464 -0.2463 -1.1956
  103OSM    C3S10402   2.507   3.223  10.581  0.0729  1.4184  0.1835
  103OSM    H3S10403   2.544   3.310  10.641  2.6516  0.7795 -0.4215
  103OSM     O310404   2.458   3.133  10.686 -0.5554  0.4556  0.5746
  103OSM    HO310405   2.528   3.068  10.685  0.9920  2.0463  1.8262
  103OSM    C4S10406   2.410   3.262  10.469 -0.3257  0.8666 -0.1327
  103OSM    H4S10407   2.406   3.365  10.433 -2.5638  0.6385 -0.5981
  103OSM    C5S10408   2.326   3.168  10.413  0.1587 -0.0718  0.2527
  103OSM    H5S10409   2.323   3.064  10.448 -0.7014  0.3313  1.3919
  103OSM    C6S10410   2.247   3.199  10.292 -0.1584 -0.9152 -0.0515
  103OSM    H6S10411   2.142   3.198  10.325 -1.1108  2.7797 -2.5897
  103OSM    H6T10412   2.265   3.112  10.226 -1.8263 -0.4654 -1.1201
  103OSM    C7S10413   2.260   3.321  10.201 -0.1311  0.8323 -0.0751
  103OSM    H7S10414   2.234   3.414  10.257 -0.1606  0.1806  1.0067
  103OSM    H7T10415   2.189   3.321  10.116 -2.3887  0.6293  1.7573
  103OSM    C8S10416   2.401   3.339  10.152  0.2554 -0.0327 -0.1028
  103OSM    H8S10417   2.458   3.244  10.149  0.3852  0.0877 -1.8862
  103OSM    H8T10418   2.455   3.403  10.226  0.1825 -0.4077  0.2746
  103OSM    C9S10419   2.414   3.406  10.007  0.4282  0.0135 -0.4273
  103OSM    H9S10420   2.338   3.350   9.949 -0.6964 -0.3083  1.3039
  103OSM    H9T10421   2.515   3.392   9.965  1.1503  1.7824  0.6597
  103OSM   C10S10422   2.401   3.556  10.017  0.5365 -0.7368  0.1105
  103OSM   H10S10423   2.485   3.602  10.074  1.0162 -0.8385 -0.5147
  103OSM   H10T10424   2.303   3.582  10.064  0.5786 -1.5136  0.6310
  103OSM   C11S10425   2.410   3.616   9.874 -0.3863  0.3167 -0.0391
  103OSM   H11S10426   2.456   3.543   9.803 -0.1741  2.2953 -2.0007
  103OSM   H11T10427   2.485   3.697   9.885 -0.2734  0.2965 -0.6369
  103OSM   C12S10428   2.285   3.672   9.812 -0.0797 -0.3231  0.0137
  103OSM   H12S10429   2.226   3.723   9.891  0.7041 -1.0310  1.0681
  103OSM   H12T10430   2.214   3.593   9.781 -0.8006 -0.3364  1.6346
  103OSM   C13S10431   2.297   3.763   9.695 -0.1441 -0.0423 -0.0834
  103OSM   H13S10432   2.379   3.726   9.630  2.2089  3.1048  0.9688
  103OSM   H13T10433   2.338   3.856   9.740 -0.1613 -0.0421 -0.0686
  103OSM   C14S10434   2.164   3.793   9.632 -0.4874  0.0356 -0.7700
  103OSM   H14S10435   2.099   3.858   9.694  2.2310 -0.4830  2.7698
  103OSM   H14T10436   2.126   3.693   9.603 -1.9397 -0.2225  1.8167
  103OSM   C15S10437   2.172   3.861   9.495 -0.0939 -0.1635  0.7335
  103OSM   H15S10438   2.224   3.790   9.428 -2.2969  0.2347 -1.5083
  103OSM   H15T10439   2.238   3.950   9.499 -0.5124  0.3196 -2.0870
  103OSM   C16S10440   2.031   3.910   9.442  0.2082  0.2277 -0.3954
  103OSM   H16S10441   2.046   3.974   9.353 -1.6558  0.2614 -0.7080
  103OSM   H16T10442   1.995   3.974   9.526 -1.0222 -0.0737 -0.6795
  103OSM   C17S10443   1.935   3.801   9.395  0.1268 -0.0704 -0.1191
  103OSM   H17S10444   1.884   3.754   9.482  0.1614 -0.1196 -0.1260
  103OSM   H17T10445   1.981   3.713   9.346 -1.7294 -0.7844 -0.6410
  103OSM   C18S10446   1.828   3.868   9.309  0.3343  0.2563 -0.6755
  103OSM   H18S10447   1.812   3.967   9.355 -0.1354 -0.0438 -0.1892
  103OSM   H18T10448   1.739   3.801   9.312 -0.0796  0.7257 -2.0388
  103OSM   H18U10449   1.861   3.885   9.204  0.4688  3.7547 -0.1067
  103OSM    C1F10450   2.790   3.259  10.324 -0.3469  0.5191 -0.0433
  103OSM     OF10451   2.833   3.146  10.298 -0.5041 -0.1206 -0.0672
  103OSM    C2F10452   2.849   3.389  10.279 -0.6208  0.7714 -0.0592
  103OSM    H2F10453   2.955   3.394  10.310 -0.2817 -1.0007 -0.8267
  103OSM    H2G10454   2.790   3.475  10.316 -1.4013  0.0671  0.3436
  103OSM    C3F10455   2.854   3.396  10.126 -0.0912  0.6839  0.0348
  103OSM    H3F10456   2.753   3.400  10.080  0.7867  0.9465 -1.9034
  103OSM    H3G10457   2.895   3.298  10.097 -1.6326  0.4156 -1.3084
  103OSM    C4F10458   2.937   3.511  10.066 -0.0328 -0.5596  0.2420
  103OSM    H4F10459   3.036   3.512  10.118  0.5823 -0.8837 -0.9176
  103OSM    H4G10460   2.900   3.609  10.103  0.1157 -0.0070 -1.0788
  103OSM    C5F10461   2.958   3.518   9.916  0.2044  0.2133 -0.2772
  103OSM    H5F10462   3.005   3.426   9.874 -0.9353 -1.4198  1.9474
  103OSM    H5G10463   3.024   3.604   9.892  0.0844  1.1987  2.7402
  103OSM    C6F10464   2.831   3.555   9.844 -0.1924  0.7997 -0.2715
  103OSM    H6F10465   2.787   3.650   9.883 -0.9377 -0.5575  2.2656
  103OSM    H6G10466   2.753   3.480   9.868  0.4219  0.0599 -0.5898
  103OSM    C7F10467   2.861   3.571   9.696 -0.0550 -0.1897  0.0630
  103OSM    H7F10468   2.910   3.476   9.665 -1.5044 -0.3993 -1.6717
  103OSM    H7G10469   2.941   3.648   9.692 -0.3722  0.1434  0.0154
  103OSM    C8F10470   2.741   3.619   9.615  0.0406  0.3526  0.7726
  103OSM    H8F10471   2.790   3.667   9.528  0.5037 -0.3980  0.6060
  103OSM    H8G10472   2.679   3.691   9.672  0.6124  3.0529 -1.9418
  103OSM    C9F10473   2.664   3.499   9.572  0.1972 -0.5818  0.0307
  103OSM    H9F10474   2.698   3.412   9.630 -0.8631  0.2831  1.9881
  103OSM   C10F10475   2.571   3.491   9.479  0.6698  0.1863  1.1240
  103OSM   H10F10476   2.519   3.397   9.456 -2.6321  2.2157 -0.0218
  103OSM   C11F10477   2.514   3.605   9.401 -0.6452  0.3186 -0.4771
  103OSM   H11F10478   2.549   3.699   9.450 -0.7720  0.8124 -1.3249
  103OSM   H11G10479   2.403   3.605   9.401 -0.6491  0.4801  0.1432
  103OSM   C12F10480   2.570   3.638   9.266 -0.0793  0.7797  0.6115
  103OSM   H12F10481   2.560   3.545   9.206  0.8316 -0.3617  2.1529
  103OSM   H12G10482   2.678   3.666   9.270 -0.1883  1.0958  1.5662
  103OSM   C13F10483   2.486   3.750   9.197 -0.4754  0.2194 -0.5324
  103OSM   H13F10484   2.547   3.809   9.125 -1.1585 -0.2758 -1.5331
  103OSM   H13G10485   2.459   3.821   9.278 -2.0511 -0.1942 -0.6775
  103OSM   C14F10486   2.347   3.707   9.140  0.5981 -0.0627 -0.1198
  103OSM   H14F10487   2.289   3.669   9.227  1.2162  0.5687  0.5760
  103OSM   H14G10488   2.374   3.632   9.063  0.7532  0.5956 -0.7212
  103OSM   C15F10489   2.280   3.816   9.059 -0.3800  0.1014  0.1639
  103OSM   H15F10490   2.343   3.836   8.969  0.8111 -1.0776  0.7130
  103OSM   H15G10491   2.268   3.908   9.120  0.5766  0.4703 -0.1910
  103OSM   C16F10492   2.141   3.781   9.013  0.4964 -0.2744 -0.4946
  103OSM   H16F10493   2.084   3.771   9.109  1.2327 -1.1796 -0.1407
  103OSM   H16G10494   2.144   3.684   8.958  0.2544  0.5579 -1.9966
  103OSM   C17F10495   2.076   3.878   8.914  0.0905 -0.1423  0.0862
  103OSM   H17F10496   2.167   3.903   8.856  1.0368 -0.5314  1.3992
  103OSM   H17G10497   2.039   3.974   8.956 -0.4513  0.1693 -1.0807
  103OSM   C18F10498   1.965   3.810   8.836  0.5107  0.3961 -0.1659
  103OSM   H18F10499   1.952   3.869   8.744  2.1497  0.0241 -0.6559
  103OSM   H18G10500   1.875   3.798   8.900  1.0307 -0.0422  0.4944
  103OSM   H18H10501   2.003   3.715   8.791  0.7620  0.4996 -0.1744
  104OSM      N10502   4.584   1.713  10.546  0.2168 -0.1878  0.0721
  104OSM    C1510503   4.440   1.698  10.499 -0.3800  0.3949 -0.4341
  104OSM   H15A10504   4.383   1.745  10.578  0.0473  0.7012 -0.3063
  104OSM   H15B10505   4.407   1.596  10.504 -1.3653  0.5357 -3.3438
  104OSM   H15C10506   4.423   1.746  10.404 -2.3567  1.2986  0.3397
  104OSM    C1410507   4.609   1.631  10.660  0.6636 -0.0254  0.1659
  104OSM   H14A10508   4.547   1.653  10.746 -0.1290  2.1741 -0.9432
  104OSM   H14B10509   4.712   1.633  10.694  0.6980 -1.0881  0.1398
  104OSM   H14C10510   4.575   1.531  10.637  0.9344 -0.8525  3.1667
  104OSM    C1310511   4.672   1.656  10.428 -0.3863  0.2412  0.0413
  104OSM   H13A10512   4.690   1.718  10.342 -1.6467 -1.6439 -1.6312
  104OSM   H13B10513   4.623   1.567  10.392  0.8387 -0.6133  0.4443
  104OSM   H13C10514   4.771   1.627  10.460  0.6135  2.3108 -1.0549
  104OSM    C1210515   4.621   1.847  10.580  0.3380 -0.7172  0.3432
  104OSM   H12A10516   4.608   1.922  10.504  0.0256 -1.7842 -0.6767
  104OSM   H12B10517   4.726   1.846  10.605 -0.2225  1.8790  3.0114
  104OSM    C1110518   4.540   1.914  10.694 -0.1941 -0.4750  0.3394
  104OSM   H11A10519   4.600   2.004  10.720 -1.0783  0.4209 -0.6437
  104OSM   H11B10520   4.544   1.845  10.781  2.4941 -2.7712 -1.5192
  104OSM      P10521   4.320   2.073  10.699 -0.0878  0.3704 -0.4275
  104OSM    O1310522   4.174   2.035  10.707  0.2901  0.1041 -0.4471
  104OSM    O1410523   4.386   2.128  10.820 -0.5479 -0.3146  0.1269
  104OSM    O1110524   4.336   2.170  10.576  0.0784 -0.0818 -0.3737
  104OSM    O1210525   4.408   1.946  10.658  0.1281 -0.0332 -0.1623
  104OSM    C1S10526   4.266   2.149  10.451 -0.4927 -0.0214  0.0415
  104OSM    H1S10527   4.175   2.212  10.444  1.0883  2.0184 -3.9152
  104OSM    H1T10528   4.227   2.047  10.437 -1.1572  0.3244 -0.6509
  104OSM     NF10529   4.268   2.176  10.211 -0.5442  0.1756  0.0805
  104OSM    HNF10530   4.310   2.112  10.148 -2.7788  0.7046 -1.9959
  104OSM    C2S10531   4.351   2.206  10.332 -0.6334 -0.2995 -0.2095
  104OSM    H2S10532   4.366   2.314  10.348 -3.2892  0.0919 -0.0531
  104OSM    C3S10533   4.494   2.143  10.325  0.4106  0.3765 -0.0731
  104OSM    H3S10534   4.491   2.032  10.319  1.1808  0.2131  2.0779
  104OSM     O310535   4.577   2.176  10.431  0.3831  0.1980  0.2483
  104OSM    HO310536   4.518   2.228  10.487 -0.0958 -1.7363  1.6043
  104OSM    C4S10537   4.555   2.191  10.193  0.1011  0.0375 -0.0162
  104OSM    H4S10538   4.527   2.126  10.108  0.4982 -1.8008  1.2192
  104OSM    C5S10539   4.613   2.309  10.167  0.4792 -0.0384  0.2500
  104OSM    H5S10540   4.623   2.384  10.247 -3.5380  0.9138 -0.0406
  104OSM    C6S10541   4.665   2.354  10.036  0.0270 -0.3046  0.9042
  104OSM    H6S10542   4.772   2.383  10.047  0.4054 -2.1986  2.6165
  104OSM    H6T10543   4.614   2.446  10.002 -0.7383 -0.7176  0.9236
  104OSM    C7S10544   4.662   2.260   9.920 -0.0605 -0.2293  0.8617
  104OSM    H7S10545   4.559   2.230   9.893 -0.3160 -0.5618  2.1814
  104OSM    H7T10546   4.722   2.169   9.940  0.0106  0.0582  1.9497
  104OSM    C8S10547   4.731   2.339   9.803 -0.2100 -0.6696 -0.7461
  104OSM    H8S10548   4.831   2.376   9.832  0.7975 -2.3557 -1.9982
  104OSM    H8T10549   4.683   2.434   9.773 -0.2981 -0.8634 -1.2147
  104OSM    C9S10550   4.766   2.241   9.684  0.2334  0.2009  0.4988
  104OSM    H9S10551   4.673   2.194   9.647  0.4061  1.7229 -1.9911
  104OSM    H9T10552   4.833   2.156   9.705 -0.7928 -0.7741 -0.1437
  104OSM   C10S10553   4.831   2.329   9.576 -0.2595  0.6416  1.4570
  104OSM   H10S10554   4.936   2.357   9.599  0.4643  0.9612 -1.9893
  104OSM   H10T10555   4.763   2.415   9.563  2.3846  2.7083  0.7784
  104OSM   C11S10556   4.837   2.255   9.441  0.1343  0.1022  0.2874
  104OSM   H11S10557   4.734   2.251   9.401  0.7129  2.3154 -1.6102
  104OSM   H11T10558   4.892   2.160   9.454 -2.1154 -1.3290 -0.5176
  104OSM   C12S10559   4.911   2.333   9.326  0.1513  0.3030  0.7260
  104OSM   H12S10560   5.019   2.342   9.351 -0.0057  1.7923  0.9120
  104OSM   H12T10561   4.865   2.434   9.331  2.0210  1.1029  2.9974
  104OSM   C13S10562   4.900   2.268   9.177 -0.2204 -0.8631 -0.3862
  104OSM   H13S10563   4.918   2.352   9.107 -0.2935 -0.5955 -0.0837
  104OSM   H13T10564   4.795   2.236   9.158  0.1282 -3.0083  1.1125
  104OSM   C14S10565   4.997   2.152   9.155 -0.3277  0.3558 -0.3733
  104OSM   H14S10566   4.963   2.063   9.213  2.4952  0.2284  1.1750
  104OSM   H14T10567   5.103   2.176   9.177  0.4713 -3.9166  0.9787
  104OSM   C15S10568   5.010   2.104   9.012  1.2477  0.4233 -0.0096
  104OSM   H15S10569   5.074   2.013   9.007  0.7988  0.2241 -2.4318
  104OSM   H15T10570   5.059   2.189   8.959  0.2267  2.5059  2.2874
  104OSM   C16S10571   4.884   2.071   8.931 -0.1656 -0.1175  0.6718
  104OSM   H16S10572   4.807   2.151   8.929 -0.9727 -0.9012  0.6759
  104OSM   H16T10573   4.826   1.986   8.970 -3.3494  1.0818 -1.2535
  104OSM   C17S10574   4.927   2.036   8.787  0.2612 -0.5171  0.1928
  104OSM   H17S10575   4.988   1.943   8.787 -0.6422 -1.1340 -1.6778
  104OSM   H17T10576   4.973   2.126   8.742  0.6987 -0.3014  1.0596
  104OSM   C18S10577   4.808   1.992   8.695 -0.7382  0.7306 -0.1540
  104OSM   H18S10578   4.764   1.897   8.734  0.0925 -0.3106 -1.6833
  104OSM   H18T10579   4.836   1.966   8.590 -2.0578  1.7056 -0.7603
  104OSM   H18U10580   4.727   2.068   8.693 -1.6064 -0.1269  1.3005
  104OSM    C1F10581   4.152   2.233  10.179  0.1049 -0.2369  0.1267
  104OSM     OF10582   4.101   2.317  10.254  0.0894  0.2059  0.7133
  104OSM    C2F10583   4.103   2.196  10.038  0.1362 -0.0191  0.0880
  104OSM    H2F10584   4.071   2.090  10.050  3.5133 -0.6961  4.3712
  104OSM    H2G10585   4.189   2.203   9.969  0.2674 -0.7245  0.1775
  104OSM    C3F10586   3.982   2.286  10.002  0.5234  0.7527  0.3260
  104OSM    H3F10587   4.023   2.388   9.990  1.1640  0.6621  1.5972
  104OSM    H3G10588   3.911   2.291  10.088  2.6271  0.4410  2.1127
  104OSM    C4F10589   3.910   2.255   9.869 -0.1458  0.1436 -0.3691
  104OSM    H4F10590   3.809   2.301   9.859 -0.1425  0.0606 -0.7796
  104OSM    H4G10591   3.881   2.148   9.873  0.0081  0.1513  1.2794
  104OSM    C5F10592   3.992   2.278   9.741  0.6496  0.2317 -0.2571
  104OSM    H5F10593   4.076   2.205   9.750  0.9362  0.4966 -0.8178
  104OSM    H5G10594   4.026   2.384   9.741  3.1965 -0.5544 -0.7464
  104OSM    C6F10595   3.910   2.253   9.605  0.5668  0.5244  0.0178
  104OSM    H6F10596   3.825   2.324   9.613 -0.0469  0.1993 -3.0791
  104OSM    H6G10597   3.871   2.150   9.597  0.3849  0.4446  1.7137
  104OSM    C7F10598   3.995   2.294   9.484 -0.0892  0.9333  0.6886
  104OSM    H7F10599   4.081   2.224   9.472 -0.8169  0.3299 -1.1510
  104OSM    H7G10600   4.048   2.389   9.507 -0.8545  1.0337  2.0886
  104OSM    C8F10601   3.914   2.287   9.355  0.7013 -0.7838 -0.3951
  104OSM    H8F10602   3.830   2.359   9.347  0.0465 -1.5625 -0.5622
  104OSM    H8G10603   3.869   2.186   9.342 -2.1953 -0.0755  3.4214
  104OSM    C9F10604   4.011   2.321   9.241 -0.8677 -0.4457 -0.5121
  104OSM    H9F10605   4.056   2.421   9.249  1.4316 -1.3928 -1.1569
  104OSM   C10F10606   4.038   2.252   9.125 -0.3742  0.1070 -0.0039
  104OSM   H10F10607   4.113   2.294   9.056  0.0881  1.1148  1.1025
  104OSM   C11F10608   3.981   2.121   9.093 -0.1897  0.0070  0.1303
  104OSM   H11F10609   3.893   2.099   9.156 -0.8565  3.8287  0.6587
  104OSM   H11G10610   4.062   2.048   9.113  0.3753 -0.1093 -2.3279
  104OSM   C12F10611   3.944   2.090   8.948 -0.7891 -0.0246  0.2574
  104OSM   H12F10612   3.878   2.173   8.912 -2.7893 -0.8048  2.0110
  104OSM   H12G10613   3.891   1.992   8.939 -0.6492 -0.1478  0.7881
  104OSM   C13F10614   4.059   2.092   8.856  0.0407  0.2870 -0.6162
  104OSM   H13F10615   4.138   2.031   8.906 -0.6581 -1.1715 -1.2852
  104OSM   H13G10616   4.096   2.194   8.832  0.1972  0.5185  0.5789
  104OSM   C14F10617   4.024   2.033   8.718 -0.6130  0.4283  0.3786
  104OSM   H14F10618   3.961   2.116   8.680 -2.9830 -0.0970  2.9966
  104OSM   H14G10619   3.967   1.938   8.728 -2.2703  1.5565  1.8738
  104OSM   C15F10620   4.137   2.017   8.609 -0.0805 -0.1646  0.7730
  104OSM   H15F10621   4.189   1.920   8.620  1.2899  0.5799  0.9834
  104OSM   H15G10622   4.198   2.110   8.616 -0.7065  0.1851  1.7572
  104OSM   C16F10623   4.084   2.024   8.470 -0.0742 -0.4811 -0.4810
  104OSM   H16F10624   4.040   2.123   8.444  0.1655 -0.2264  0.0646
  104OSM   H16G10625   4.006   1.945   8.469  0.3479 -0.8882 -1.5403
  104OSM   C17F10626   4.170   1.981   8.351  0.0024 -0.3419  0.0708
  104OSM   H17F10627   4.277   2.010   8.356  0.0382 -0.5524  0.5334
  104OSM   H17G10628   4.128   2.028   8.259 -1.4162  3.1815  2.4296
  104OSM   C18F10629   4.162   1.826   8.317 -0.3154  0.0327  1.0547
  104OSM   H18F10630   4.161   1.765   8.410  1.8345 -0.9094  0.5074
  104OSM   H18G10631   4.240   1.782   8.251 -2.8319  0.2577 -2.1708
  104OSM   H18H10632   4.067   1.805   8.264 -0.3081 -1.8326  1.7560
  105OSM      N10633   1.970   5.903  10.933  0.1345  0.0958 -0.5795
  105OSM    C1510634   1.997   5.783  11.008 -0.0493 -0.7962 -0.4526
  105OSM   H15A10635   1.897   5.747  11.028 -1.5999  2.7489 -1.4515
  105OSM   H15B10636   2.052   5.796  11.100 -0.7494  0.2472 -0.1676
  105OSM   H15C10637   2.055   5.712  10.951  0.7905  0.9707 -1.8183
  105OSM    C1410638   2.104   5.970  10.914 -0.5436  0.4460 -0.3941
  105OSM   H14A10639   2.092   6.058  10.852  2.0187 -0.1645 -1.8442
  105OSM   H14B10640   2.177   5.899  10.875 -0.3907  0.3385  0.0899
  105OSM   H14C10641   2.140   6.008  11.008 -1.6347  1.3325 -0.3375
  105OSM    C1310642   1.920   5.864  10.800 -0.0885 -0.4986  0.2673
  105OSM   H13A10643   1.822   5.821  10.807 -0.0535 -0.5438  0.4962
  105OSM   H13B10644   1.985   5.799  10.742 -0.5275 -1.6999  1.0982
  105OSM   H13C10645   1.912   5.955  10.744  1.4815 -0.2450  0.4274
  105OSM    C1210646   1.876   5.999  11.008 -0.5872 -0.4479 -0.1772
  105OSM   H12A10647   1.855   6.091  10.956 -0.4717 -0.2053  0.2021
  105OSM   H12B10648   1.925   6.033  11.099 -0.4260 -0.7464 -0.1517
  105OSM    C1110649   1.739   5.948  11.035 -0.1780 -0.0834  0.4251
  105OSM   H11A10650   1.674   5.996  11.111 -1.6996  1.4922 -1.8097
  105OSM   H11B10651   1.746   5.843  11.071 -0.4149  0.0479  0.8624
  105OSM      P10652   1.593   6.070  10.851  0.0742  0.2988  0.4456
  105OSM    O1310653   1.470   6.097  10.936 -0.1854  0.2682  0.1994
  105OSM    O1410654   1.690   6.181  10.844  0.5197 -0.6651  0.4239
  105OSM    O1110655   1.544   6.013  10.709 -0.2961  0.0734 -0.0944
  105OSM    O1210656   1.663   5.937  10.908  0.2518  0.8967 -0.8547
  105OSM    C1S10657   1.429   5.937  10.688  0.1869 -0.7058  0.1420
  105OSM    H1S10658   1.332   5.973  10.730  1.1443 -1.2458  2.8726
  105OSM    H1T10659   1.448   5.841  10.739  1.1022 -0.9845 -0.7093
  105OSM     NF10660   1.272   5.842  10.521 -0.8984 -0.0434 -0.4367
  105OSM    HNF10661   1.268   5.742  10.520 -0.5490 -0.0640  0.1203
  105OSM    C2S10662   1.402   5.897  10.543 -0.0961 -0.0044  0.7035
  105OSM    H2S10663   1.417   5.992  10.487 -1.1267 -0.1847  0.1031
  105OSM    C3S10664   1.510   5.802  10.490  0.4957  0.3390  0.3577
  105OSM    H3S10665   1.487   5.699  10.525  0.2873  0.2387 -0.0724
  105OSM     O310666   1.643   5.819  10.551 -0.5169  0.6833  0.2263
  105OSM    HO310667   1.631   5.871  10.631 -1.6616 -1.4359  1.4612
  105OSM    C4S10668   1.516   5.802  10.340  0.2030  0.1111 -0.6593
  105OSM    H4S10669   1.449   5.733  10.287  0.4411  1.2706 -2.5142
  105OSM    C5S10670   1.577   5.893  10.258  0.0787  0.1669  0.1318
  105OSM    H5S10671   1.626   5.979  10.306 -1.2313  0.1241  1.5677
  105OSM    C6S10672   1.577   5.882  10.109 -0.3286  0.0210  0.3378
  105OSM    H6S10673   1.654   5.807  10.084  0.8441  0.8591  1.3286
  105OSM    H6T10674   1.613   5.980  10.070 -0.6522  0.0432  0.0974
  105OSM    C7S10675   1.438   5.840  10.048 -0.4813  0.2494  0.0990
  105OSM    H7S10676   1.358   5.915  10.068 -0.3890  0.1320  0.9226
  105OSM    H7T10677   1.419   5.740  10.092 -0.1600  0.5201  0.8697
  105OSM    C8S10678   1.446   5.831   9.898  0.1370  0.3808 -0.1604
  105OSM    H8S10679   1.503   5.741   9.868 -0.8458  0.2759 -1.7635
  105OSM    H8T10680   1.502   5.914   9.849 -0.9422 -0.1846 -2.4391
  105OSM    C9S10681   1.309   5.823   9.838 -0.4091 -0.3586  0.3987
  105OSM    H9S10682   1.244   5.908   9.868 -0.6961 -0.3004 -0.3846
  105OSM    H9T10683   1.263   5.732   9.882 -1.0181  0.0404  0.5919
  105OSM   C10S10684   1.299   5.803   9.689  0.5414 -1.5016  0.6607
  105OSM   H10S10685   1.207   5.744   9.665  0.0123 -1.1902  1.9139
  105OSM   H10T10686   1.383   5.735   9.663  0.8490 -0.0939 -2.1950
  105OSM   C11S10687   1.299   5.943   9.623 -0.0711 -0.0760  0.5620
  105OSM   H11S10688   1.389   5.998   9.657  1.4261 -1.3476 -1.2259
  105OSM   H11T10689   1.216   6.006   9.660  0.9970  1.5501  0.2604
  105OSM   C12S10690   1.295   5.923   9.476  0.5006 -0.3418  0.1448
  105OSM   H12S10691   1.371   5.844   9.458 -0.7879 -2.5619  3.9578
  105OSM   H12T10692   1.333   6.013   9.423  0.1924  1.0732  2.2756
  105OSM   C13S10693   1.158   5.889   9.419 -0.1784 -0.7146 -0.3496
  105OSM   H13S10694   1.091   5.969   9.456 -1.5140 -0.4122 -3.2580
  105OSM   H13T10695   1.124   5.792   9.462  1.2037 -1.8022 -1.6494
  105OSM   C14S10696   1.160   5.884   9.271  0.0227 -0.6389  0.3515
  105OSM   H14S10697   1.210   5.788   9.246  1.5674 -0.7383  3.5507
  105OSM   H14T10698   1.225   5.967   9.235  0.9724 -1.3045  0.5246
  105OSM   C15S10699   1.016   5.907   9.214  0.1941 -0.4301 -0.0048
  105OSM   H15S10700   0.969   6.003   9.242  0.5330  0.3614 -2.0193
  105OSM   H15T10701   0.960   5.823   9.259  0.2991 -0.6409 -0.2631
  105OSM   C16S10702   1.002   5.910   9.064 -0.1515 -0.0441  0.2387
  105OSM   H16S10703   1.054   6.002   9.032  0.5632 -1.2620 -2.1614
  105OSM   H16T10704   0.896   5.921   9.032 -0.6276 -1.3445  1.3141
  105OSM   C17S10705   1.059   5.787   8.988  0.0343  0.3676  0.3168
  105OSM   H17S10706   1.061   5.695   9.051  1.5638  1.1381  1.4395
  105OSM   H17T10707   1.167   5.811   8.977 -0.0764  1.3684  1.3284
  105OSM   C18S10708   0.999   5.757   8.847 -0.2097  0.1970 -0.4875
  105OSM   H18S10709   0.893   5.730   8.865 -0.1044  0.1009 -0.0189
  105OSM   H18T10710   1.033   5.677   8.778  2.3745  0.2155  0.7148
  105OSM   H18U10711   0.997   5.855   8.794 -1.4045  0.9188  0.8269
  105OSM    C1F10712   1.169   5.925  10.527  0.6539 -0.3105  0.9772
  105OSM     OF10713   1.188   6.044  10.546  0.3502  0.0575  0.2280
  105OSM    C2F10714   1.034   5.866  10.514  0.5044  0.7932 -0.1271
  105OSM    H2F10715   0.959   5.935  10.468  0.6447  0.5790 -0.6889
  105OSM    H2G10716   0.992   5.846  10.615  1.5059  1.8844  0.4994
  105OSM    C3F10717   1.033   5.737  10.425 -0.7998 -0.3170  0.2702
  105OSM    H3F10718   0.931   5.694  10.420 -0.3936 -1.1150 -1.5911
  105OSM    H3G10719   1.094   5.662  10.480  1.6907  1.2570 -0.2617
  105OSM    C4F10720   1.075   5.769  10.280 -0.0629  0.0090 -0.1015
  105OSM    H4F10721   1.069   5.679  10.215  0.6538  2.2947 -3.4951
  105OSM    H4G10722   1.179   5.806  10.272  0.6646 -2.3652 -2.2726
  105OSM    C5F10723   0.975   5.864  10.209 -0.5272  0.2099  0.1166
  105OSM    H5F10724   0.978   5.970  10.241  1.0267  0.6302 -1.3867
  105OSM    H5G10725   0.876   5.829  10.246 -1.1446 -0.0692 -1.7530
  105OSM    C6F10726   0.989   5.852  10.058  0.7619  0.2882  0.4835
  105OSM    H6F10727   0.959   5.750  10.026 -1.8052  1.5527 -1.3280
  105OSM    H6G10728   1.094   5.864  10.023  0.4927 -2.9820 -1.6623
  105OSM    C7F10729   0.876   5.944   9.994  0.1485  0.4312  0.0873
  105OSM    H7F10730   0.925   6.041   9.967 -3.3659  2.2169 -0.1344
  105OSM    H7G10731   0.797   5.961  10.070 -2.1675  0.7343 -2.2996
  105OSM    C8F10732   0.794   5.880   9.880 -0.4671  0.2192 -0.5867
  105OSM    H8F10733   0.697   5.934   9.878 -0.9205 -0.3684  2.4884
  105OSM    H8G10734   0.775   5.777   9.916 -0.2700 -0.3584 -2.0982
  105OSM    C9F10735   0.868   5.884   9.749 -0.2502 -0.2566  0.6883
  105OSM    H9F10736   0.962   5.827   9.747  0.3970  0.6481  3.1823
  105OSM   C10F10737   0.825   5.934   9.630  0.0164  0.1113 -0.0508
  105OSM   H10F10738   0.896   5.924   9.547 -1.6922 -0.8535 -1.4100
  105OSM   C11F10739   0.698   6.010   9.595  0.2169 -0.0285 -0.0247
  105OSM   H11F10740   0.654   6.070   9.677 -3.9481 -3.0372  0.1103
  105OSM   H11G10741   0.613   5.944   9.566 -0.0095  1.2625 -2.4300
  105OSM   C12F10742   0.728   6.113   9.478 -0.3044 -0.2301  0.0348
  105OSM   H12F10743   0.799   6.066   9.407  1.3506  0.7139  1.0367
  105OSM   H12G10744   0.778   6.203   9.521 -0.2030  0.5658 -1.7047
  105OSM   C13F10745   0.601   6.167   9.410  0.1732  0.1154 -0.2094
  105OSM   H13F10746   0.623   6.264   9.360 -0.1511 -0.4433 -1.4609
  105OSM   H13G10747   0.520   6.180   9.485  0.5220  0.0291  0.1827
  105OSM   C14F10748   0.534   6.071   9.307  0.3627 -0.0001 -0.3779
  105OSM   H14F10749   0.436   6.118   9.285  0.3482  0.2067  0.1447
  105OSM   H14G10750   0.510   5.978   9.362 -1.4318  1.2210  0.9413
  105OSM   C15F10751   0.602   6.052   9.172 -0.2422 -0.1050 -0.5376
  105OSM   H15F10752   0.695   5.992   9.173  0.5198  1.0748  0.8748
  105OSM   H15G10753   0.618   6.157   9.139 -3.4042  0.2237 -1.2150
  105OSM   C16F10754   0.501   5.990   9.073  0.4427  0.5897  0.7532
  105OSM   H16F10755   0.430   6.065   9.031  0.4980  0.0853 -0.2537
  105OSM   H16G10756   0.446   5.911   9.129  1.9662 -0.1422  1.2447
  105OSM   C17F10757   0.574   5.933   8.947 -0.3183 -0.5987 -0.2198
  105OSM   H17F10758   0.649   5.861   8.983  0.6635  0.0037 -1.0219
  105OSM   H17G10759   0.629   6.016   8.897 -0.6634  0.1122  0.5719
  105OSM   C18F10760   0.501   5.861   8.839  0.3751  0.1843  0.0541
  105OSM   H18F10761   0.453   5.765   8.868 -0.6527  0.8374  0.5665
  105OSM   H18G10762   0.569   5.838   8.754 -0.9635  1.3278 -1.3396
  105OSM   H18H10763   0.422   5.928   8.798  0.6420  0.3226 -0.2334
  106OSM      N10764   6.547   5.315  10.902  0.0361 -0.2318  0.3568
  106OSM    C1510765   6.619   5.225  10.994  0.4581  0.6410 -0.4267
  106OSM   H15A10766   6.610   5.246  11.100  0.3403 -0.4399 -0.2187
  106OSM   H15B10767   6.723   5.216  10.967  0.6775  0.8218  0.3476
  106OSM   H15C10768   6.563   5.133  10.988 -0.0766  1.0412 -1.6713
  106OSM    C1410769   6.399   5.308  10.914  0.3348 -0.0384 -0.0741
  106OSM   H14A10770   6.359   5.236  10.845 -0.1279 -0.3056  0.4695
  106OSM   H14B10771   6.347   5.395  10.876  1.4833  0.2284 -1.0877
  106OSM   H14C10772   6.372   5.300  11.018 -0.0560  1.3136 -0.0583
  106OSM    C1310773   6.594   5.454  10.940 -0.1558  0.8345 -0.1811
  106OSM   H13A10774   6.696   5.469  10.908  0.4835 -2.4396  0.1988
  106OSM   H13B10775   6.596   5.479  11.045 -0.5522 -1.2720  0.3551
  106OSM   H13C10776   6.534   5.531  10.893  0.1997  0.6013 -1.0274
  106OSM    C1210777   6.580   5.286  10.756 -0.2265  0.1627 -0.5504
  106OSM   H12A10778   6.512   5.330  10.683 -1.4232 -0.9297 -0.1136
  106OSM   H12B10779   6.565   5.180  10.740  1.8662 -0.0897 -1.0168
  106OSM    C1110780   6.720   5.327  10.704 -0.3442  0.4281  0.6079
  106OSM   H11A10781   6.733   5.437  10.699  2.7982  0.1162  1.0565
  106OSM   H11B10782   6.714   5.303  10.596  0.4928  1.6221  0.2872
  106OSM      P10783   6.961   5.323  10.797 -0.1192 -0.1683 -0.1194
  106OSM    O1310784   6.938   5.412  10.916  0.1659  0.4503 -0.4428
  106OSM    O1410785   7.067   5.218  10.811 -0.2199 -0.0649  0.4115
  106OSM    O1110786   6.977   5.408  10.655 -0.3522 -0.1271 -0.4315
  106OSM    O1210787   6.821   5.251  10.766 -0.0165  0.4097 -0.2625
  106OSM    C1S10788   7.041   5.350  10.541 -0.2721  0.2281  0.4580
  106OSM    H1S10789   7.031   5.240  10.526 -2.0746  0.5484 -0.8881
  106OSM    H1T10790   7.151   5.364  10.550 -0.1046 -0.9928  0.4372
  106OSM     NF10791   7.022   5.333  10.287 -0.3595  0.0780 -0.0368
  106OSM    HNF10792   7.088   5.377  10.226  1.8755 -3.7605 -0.5849
  106OSM    C2S10793   6.982   5.412  10.412 -0.4870 -0.7431  0.2587
  106OSM    H2S10794   6.872   5.401  10.421 -0.4561 -1.5937 -0.2611
  106OSM    C3S10795   7.018   5.563  10.412 -0.5535  0.1934  0.7516
  106OSM    H3S10796   7.123   5.577  10.376 -1.4079  0.2442 -1.8235
  106OSM     O310797   7.003   5.647  10.523 -1.0377  0.4844  0.4764
  106OSM    HO310798   7.000   5.580  10.592 -0.8265 -2.7542 -2.5381
  106OSM    C4S10799   6.957   5.620  10.285 -0.3909 -0.3365 -0.4971
  106OSM    H4S10800   7.023   5.634  10.199 -1.6366 -0.7209 -1.5354
  106OSM    C5S10801   6.829   5.657  10.266 -0.2418 -0.0642  0.2700
  106OSM    H5S10802   6.754   5.646  10.346 -0.6508  0.7414  0.0100
  106OSM    C6S10803   6.783   5.722  10.138  0.0303 -0.0600  0.0635
  106OSM    H6S10804   6.791   5.832  10.151  0.7369 -0.3055  1.8950
  106OSM    H6T10805   6.678   5.690  10.123  0.3075 -1.3755  0.7987
  106OSM    C7S10806   6.867   5.686  10.006 -0.2233 -0.6547  0.5835
  106OSM    H7S10807   6.845   5.578   9.991 -0.3069 -0.7179  1.1714
  106OSM    H7T10808   6.976   5.702  10.018 -0.1711 -0.8684  0.3978
  106OSM    C8S10809   6.812   5.759   9.880  0.2710 -0.1616  0.6404
  106OSM    H8S10810   6.816   5.870   9.889 -2.9973 -0.0428  1.2100
  106OSM    H8T10811   6.706   5.738   9.855  0.2980  0.0847  0.3208
  106OSM    C9S10812   6.901   5.722   9.759  0.3279 -0.5336  0.4639
  106OSM    H9S10813   6.878   5.616   9.734 -2.6873  0.3402 -0.6999
  106OSM    H9T10814   7.011   5.719   9.774  0.1742 -0.5630  1.6324
  106OSM   C10S10815   6.870   5.803   9.633 -0.0902 -0.5928  0.1075
  106OSM   H10S10816   6.869   5.910   9.661 -0.5129 -0.1728 -1.4701
  106OSM   H10T10817   6.765   5.778   9.607 -0.4099  0.2854  0.5385
  106OSM   C11S10818   6.956   5.776   9.505  0.8257 -0.0972  0.1586
  106OSM   H11S10819   6.955   5.666   9.488  0.7965 -0.0646 -0.0520
  106OSM   H11T10820   7.059   5.818   9.512  0.1000  1.6985  0.0745
  106OSM   C12S10821   6.886   5.825   9.377  0.2786 -0.9011  0.1649
  106OSM   H12S10822   6.866   5.933   9.393  2.2886 -0.4169 -0.4242
  106OSM   H12T10823   6.793   5.767   9.358  0.0770 -0.4101 -0.3597
  106OSM   C13S10824   6.982   5.813   9.253 -0.2873  0.1001  0.0683
  106OSM   H13S10825   7.085   5.817   9.295 -0.3475  1.4106  0.1125
  106OSM   H13T10826   6.959   5.896   9.183  0.2399 -0.5481 -0.8890
  106OSM   C14S10827   6.941   5.684   9.187 -0.3601 -0.0699 -0.1611
  106OSM   H14S10828   6.831   5.673   9.182 -0.5943  1.9988  0.0934
  106OSM   H14T10829   6.958   5.607   9.265 -3.1829 -1.3901 -0.7850
  106OSM   C15S10830   7.009   5.658   9.052 -0.2156 -0.4451  0.2431
  106OSM   H15S10831   7.114   5.648   9.086 -0.3644 -0.4976  0.6977
  106OSM   H15T10832   7.003   5.743   8.981 -0.0106 -0.6800 -0.0606
  106OSM   C16S10833   6.959   5.521   8.989 -0.2198  1.0102 -0.5613
  106OSM   H16S10834   6.922   5.438   9.053  2.2694 -0.4284 -0.9191
  106OSM   H16T10835   7.045   5.482   8.931 -0.0331 -0.7079  0.8249
  106OSM   C17S10836   6.851   5.552   8.883 -0.9291 -0.0126  0.4334
  106OSM   H17S10837   6.817   5.456   8.839 -1.6572  0.7911 -0.7958
  106OSM   H17T10838   6.907   5.598   8.799 -0.1839  0.7936  1.3572
  106OSM   C18S10839   6.736   5.635   8.933 -0.1775 -0.2438 -0.8323
  106OSM   H18S10840   6.769   5.739   8.951 -1.9721 -0.1767  2.5252
  106OSM   H18T10841   6.696   5.607   9.033 -3.5392  1.2997 -1.6738
  106OSM   H18U10842   6.655   5.621   8.859  0.7568  1.3933 -2.1917
  106OSM    C1F10843   6.975   5.217  10.246  0.3577  0.6686 -0.4108
  106OSM     OF10844   6.902   5.153  10.317  0.3006 -0.2674 -0.2501
  106OSM    C2F10845   7.003   5.183  10.107 -0.3984  0.5350  0.5424
  106OSM    H2F10846   7.099   5.226  10.072  1.2780 -2.5331  1.2321
  106OSM    H2G10847   6.924   5.235  10.047  1.0288  1.0524 -0.9246
  106OSM    C3F10848   6.987   5.035  10.078  0.5594 -0.7895  0.1822
  106OSM    H3F10849   6.879   5.015  10.095  0.2097  0.0385 -0.9963
  106OSM    H3G10850   7.048   4.967  10.142  0.5115  0.4123  1.5032
  106OSM    C4F10851   7.023   4.996   9.927  0.2987 -0.9433  0.2119
  106OSM    H4F10852   6.976   4.897   9.913 -0.2278 -0.7440  0.5847
  106OSM    H4G10853   7.132   4.978   9.914  0.7564 -0.6861  3.3485
  106OSM    C5F10854   6.965   5.087   9.815  0.1929  0.5505 -0.1932
  106OSM    H5F10855   7.016   5.186   9.812  2.5274 -0.5811  0.9704
  106OSM    H5G10856   6.856   5.101   9.832  0.2237 -0.9537  1.3009
  106OSM    C6F10857   7.006   5.027   9.678  0.7709 -0.1320 -0.4362
  106OSM    H6F10858   6.947   4.936   9.655  0.4758 -0.4429  1.4356
  106OSM    H6G10859   7.108   4.990   9.700  0.2516 -0.8233  0.9263
  106OSM    C7F10860   6.979   5.126   9.568 -0.6103  0.0626 -0.4517
  106OSM    H7F10861   7.055   5.207   9.575 -0.7924  0.1033  1.2307
  106OSM    H7G10862   6.879   5.173   9.567 -1.0864 -0.8017  2.2182
  106OSM    C8F10863   6.980   5.064   9.431  0.3116 -0.5284  0.6860
  106OSM    H8F10864   6.943   5.138   9.357 -0.9900 -0.4688  1.3812
  106OSM    H8G10865   6.908   4.981   9.446  1.7538 -2.0481 -0.6129
  106OSM    C9F10866   7.103   5.007   9.371  0.0219  0.3882  0.6159
  106OSM    H9F10867   7.182   4.973   9.439 -0.2909  0.2336  0.9018
  106OSM   C10F10868   7.126   4.979   9.239 -0.1143 -0.2320  0.7243
  106OSM   H10F10869   7.222   4.938   9.205 -0.8679  0.9349 -3.0025
  106OSM   C11F10870   7.029   5.000   9.123  0.7929  0.0802  0.3127
  106OSM   H11F10871   7.065   5.078   9.054 -2.3537  1.8043  0.5073
  106OSM   H11G10872   6.941   5.054   9.166  1.8596  2.4378 -0.4158
  106OSM   C12F10873   6.991   4.873   9.048  0.0823  0.0203  0.7271
  106OSM   H12F10874   6.946   4.803   9.122  0.1447 -0.2394  0.5216
  106OSM   H12G10875   7.080   4.832   8.995 -1.0498  0.6036 -1.7357
  106OSM   C13F10876   6.883   4.901   8.938  0.7421  0.0150 -0.4770
  106OSM   H13F10877   6.916   4.977   8.864  0.7740 -1.4099 -1.9892
  106OSM   H13G10878   6.790   4.937   8.986  1.2595  0.5862  0.0983
  106OSM   C14F10879   6.858   4.771   8.865 -0.4403 -0.3852 -0.6441
  106OSM   H14F10880   6.793   4.703   8.924  1.8610 -0.0551  2.3763
  106OSM   H14G10881   6.948   4.719   8.827 -2.6936 -4.4043 -0.7208
  106OSM   C15F10882   6.772   4.796   8.742  0.3444  0.2858  0.2073
  106OSM   H15F10883   6.826   4.869   8.679 -1.4556  1.4305 -0.0516
  106OSM   H15G10884   6.675   4.848   8.757 -1.2935 -2.2506 -1.1754
  106OSM   C16F10885   6.724   4.676   8.661  0.3346  0.2667  1.1588
  106OSM   H16F10886   6.678   4.730   8.575  2.1618  0.6161  0.3822
  106OSM   H16G10887   6.639   4.625   8.712  0.1797  1.6679  2.3190
  106OSM   C17F10888   6.842   4.595   8.591  0.0247 -0.5769  0.6463
  106OSM   H17F10889   6.923   4.583   8.666 -1.9171 -2.5952  2.4758
  106OSM   H17G10890   6.878   4.656   8.505  0.4669 -0.3487  0.9925
  106OSM   C18F10891   6.805   4.456   8.544  0.4472  0.5157 -0.2476
  106OSM   H18F10892   6.889   4.398   8.501 -0.2996 -0.0306 -1.0108
  106OSM   H18G10893   6.733   4.456   8.459  1.5098  2.7244 -1.2042
  106OSM   H18H10894   6.764   4.399   8.630 -0.7233  0.5696 -0.7543
  107OSM      N10895   2.080   2.613  10.774  0.0295  0.3839 -0.6749
  107OSM    C1510896   2.134   2.675  10.905 -0.6767 -0.2589  0.5967
  107OSM   H15A10897   2.213   2.609  10.939 -1.0183 -1.4562 -0.8436
  107OSM   H15B10898   2.058   2.679  10.980 -2.8043 -2.2150 -1.3500
  107OSM   H15C10899   2.183   2.770  10.891 -0.2867 -0.0594  3.1239
  107OSM    C1410900   1.971   2.512  10.804  0.1107 -0.8221  0.9745
  107OSM   H14A10901   1.908   2.480  10.722 -0.6660  0.4746  1.0544
  107OSM   H14B10902   1.905   2.560  10.874 -0.4535 -1.3261  0.7975
  107OSM   H14C10903   2.015   2.427  10.855  2.7553 -0.9489 -1.3878
  107OSM    C1310904   2.018   2.724  10.698  0.3577 -0.2171 -0.5533
  107OSM   H13A10905   1.961   2.693  10.612  0.8310  0.0081 -0.9567
  107OSM   H13B10906   2.098   2.781  10.653  1.4094 -1.1745  0.0742
  107OSM   H13C10907   1.947   2.782  10.755  0.3745 -0.3435 -0.4051
  107OSM    C1210908   2.190   2.540  10.686 -0.0546 -0.5195  0.8088
  107OSM   H12A10909   2.260   2.617  10.658 -0.1229 -0.7681 -0.0644
  107OSM   H12B10910   2.143   2.485  10.606  0.1674  0.7288 -0.1780
  107OSM    C1110911   2.280   2.437  10.759 -0.3253 -0.2914 -0.1084
  107OSM   H11A10912   2.346   2.393  10.682 -1.4194  1.7985 -2.2807
  107OSM   H11B10913   2.210   2.356  10.790 -0.8987  1.1922  2.6361
  107OSM      P10914   2.491   2.563  10.852  0.2180  0.0581 -0.2031
  107OSM    O1310915   2.506   2.655  10.965  0.1248 -0.3772 -0.3638
  107OSM    O1410916   2.595   2.460  10.839  0.0133  0.5360  0.2392
  107OSM    O1110917   2.471   2.651  10.714  0.1665  0.1675 -0.0670
  107OSM    O1210918   2.347   2.491  10.871  0.2140  0.5101 -0.2028
  107OSM    C1S10919   2.586   2.688  10.638  0.7591  0.1252  0.6966
  107OSM    H1S10920   2.675   2.623  10.646  0.0588 -0.4918  4.3731
  107OSM    H1T10921   2.608   2.796  10.651 -1.2512  0.4892  1.3082
  107OSM     NF10922   2.683   2.684  10.409 -0.7657 -0.4226  0.1450
  107OSM    HNF10923   2.687   2.769  10.358 -1.4396 -0.9961 -0.8805
  107OSM    C2S10924   2.556   2.671  10.483  0.5095  0.2876  0.2071
  107OSM    H2S10925   2.521   2.567  10.464  0.5796  0.3069 -0.0305
  107OSM    C3S10926   2.442   2.768  10.450  1.2353  0.5615  0.0555
  107OSM    H3S10927   2.490   2.867  10.466  0.3267  0.8701  0.9296
  107OSM     O310928   2.330   2.789  10.537 -0.2589  0.2799 -0.2427
  107OSM    HO310929   2.376   2.748  10.611 -0.4482 -3.0478 -1.8745
  107OSM    C4S10930   2.401   2.738  10.309  0.3832 -0.0682  0.0366
  107OSM    H4S10931   2.459   2.796  10.236  0.1166  0.7984  0.4952
  107OSM    C5S10932   2.313   2.642  10.268  0.6768  0.1567  0.1752
  107OSM    H5S10933   2.260   2.577  10.338  1.2996  0.2966  0.7768
  107OSM    C6S10934   2.290   2.617  10.124 -0.7190  0.1627  0.6285
  107OSM    H6S10935   2.181   2.613  10.103 -1.1425  2.0272  2.3007
  107OSM    H6T10936   2.322   2.513  10.099 -0.5410  0.1873  0.7555
  107OSM    C7S10937   2.370   2.692  10.014  0.2473  0.2969  0.1083
  107OSM    H7S10938   2.478   2.665  10.005  0.5213  1.4846 -0.3181
  107OSM    H7T10939   2.353   2.800  10.033 -0.3357  0.3011 -0.4550
  107OSM    C8S10940   2.325   2.645   9.878  0.4594 -0.7256  0.0294
  107OSM    H8S10941   2.214   2.644   9.869  0.2370  1.8891  1.9937
  107OSM    H8T10942   2.356   2.539   9.866  1.3438 -0.2205 -2.3279
  107OSM    C9S10943   2.386   2.712   9.763  0.0773  0.1639  0.6739
  107OSM    H9S10944   2.492   2.684   9.746 -0.2564  0.1536 -1.6154
  107OSM    H9T10945   2.376   2.823   9.764 -2.1588  0.0583 -2.2441
  107OSM   C10S10946   2.315   2.665   9.632 -0.2153  0.4640 -0.5856
  107OSM   H10S10947   2.212   2.706   9.633 -1.0727 -1.5395 -1.6461
  107OSM   H10T10948   2.312   2.554   9.639 -0.4640  0.4054 -1.5803
  107OSM   C11S10949   2.375   2.704   9.492 -0.3675 -0.0345 -0.4200
  107OSM   H11S10950   2.486   2.703   9.504 -0.1588  0.0542 -2.1704
  107OSM   H11T10951   2.346   2.806   9.460  2.0674  0.2545 -1.9013
  107OSM   C12S10952   2.338   2.596   9.392 -0.5730  0.0426 -0.1209
  107OSM   H12S10953   2.227   2.587   9.386 -0.4870 -0.0699 -1.6957
  107OSM   H12T10954   2.371   2.495   9.424 -0.0306  0.8327  1.8881
  107OSM   C13S10955   2.398   2.637   9.253 -0.4196  0.9213 -0.0533
  107OSM   H13S10956   2.509   2.645   9.261 -0.2554  0.5896 -1.7786
  107OSM   H13T10957   2.369   2.742   9.234  0.1757  1.0038 -0.5236
  107OSM   C14S10958   2.357   2.550   9.137  0.0613  0.7841 -0.3534
  107OSM   H14S10959   2.249   2.526   9.148  0.7366 -1.4224  1.9676
  107OSM   H14T10960   2.401   2.448   9.144 -0.8336  0.5235  2.0682
  107OSM   C15S10961   2.389   2.614   9.006  0.0220 -0.1877  0.8946
  107OSM   H15S10962   2.495   2.646   9.007  1.1195 -3.1725 -3.7843
  107OSM   H15T10963   2.329   2.707   8.992 -0.1989 -0.3118  1.0059
  107OSM   C16S10964   2.380   2.520   8.886  0.2984 -0.3377  0.3332
  107OSM   H16S10965   2.275   2.483   8.891 -0.0529  0.6200  0.1897
  107OSM   H16T10966   2.442   2.429   8.896 -0.2319 -0.9375 -1.6232
  107OSM   C17S10967   2.420   2.581   8.751  1.4555  0.2683  0.1733
  107OSM   H17S10968   2.531   2.578   8.746  1.4397  1.7965 -1.0577
  107OSM   H17T10969   2.381   2.685   8.746 -0.8266 -0.4997  1.1750
  107OSM   C18S10970   2.359   2.501   8.638  0.7380 -0.2868  0.0803
  107OSM   H18S10971   2.251   2.507   8.663  1.0876 -0.4647  1.7148
  107OSM   H18T10972   2.400   2.398   8.646  2.5184  0.3817 -0.2012
  107OSM   H18U10973   2.371   2.538   8.534  0.9665  0.1073  0.2468
  107OSM    C1F10974   2.788   2.595  10.405 -0.1037 -0.6585 -0.4110
  107OSM     OF10975   2.798   2.496  10.472  0.0690  0.9790  0.0506
  107OSM    C2F10976   2.895   2.647  10.322 -0.2441 -0.3337 -0.4552
  107OSM    H2F10977   2.915   2.752  10.351  0.8560 -0.8052  0.5130
  107OSM    H2G10978   2.846   2.669  10.224  0.8039  2.2485 -0.4443
  107OSM    C3F10979   3.027   2.565  10.302  0.3091 -0.3334 -0.4024
  107OSM    H3F10980   3.014   2.460  10.337  0.5643  0.1669  1.2656
  107OSM    H3G10981   3.108   2.610  10.363  0.0379 -2.0749  1.3349
  107OSM    C4F10982   3.070   2.575  10.153 -0.3404  0.5586 -0.0908
  107OSM    H4F10983   3.111   2.676  10.131  0.6908  0.2978  0.6124
  107OSM    H4G10984   2.978   2.572  10.091 -0.2905 -1.5904 -0.0987
  107OSM    C5F10985   3.181   2.473  10.096 -0.0587 -0.8464  0.2225
  107OSM    H5F10986   3.179   2.381  10.158 -1.3723 -0.3050  1.0042
  107OSM    H5G10987   3.276   2.518  10.130 -1.4219  4.1884 -2.1211
  107OSM    C6F10988   3.179   2.451   9.942  0.2156  0.0111  0.0469
  107OSM    H6F10989   3.082   2.407   9.909  1.3730 -1.4496 -1.5020
  107OSM    H6G10990   3.250   2.368   9.920 -0.4033 -0.2747 -0.8851
  107OSM    C7F10991   3.205   2.580   9.860 -0.1269 -0.2427  0.4338
  107OSM    H7F10992   3.315   2.599   9.864 -0.5208  2.3600 -0.3024
  107OSM    H7G10993   3.145   2.657   9.914 -0.0652  0.2608 -0.2058
  107OSM    C8F10994   3.163   2.569   9.713 -0.4192  0.0796 -0.0376
  107OSM    H8F10995   3.170   2.667   9.660  1.4623 -0.2020 -0.3508
  107OSM    H8G10996   3.059   2.533   9.703  0.2432 -1.2484 -2.6036
  107OSM    C9F10997   3.236   2.463   9.635 -0.1144 -0.0251  0.6459
  107OSM    H9F10998   3.252   2.364   9.680 -1.1960 -0.6063 -0.2061
  107OSM   C10F10999   3.269   2.475   9.503  0.9406  0.1840  0.1852
  107OSM   H10F11000   3.318   2.391   9.451  1.1489  0.9676 -0.8866
  107OSM   C11F11001   3.240   2.589   9.409  0.1877 -0.2607 -0.6215
  107OSM   H11F11002   3.326   2.656   9.392 -0.0710  0.1625 -0.2595
  107OSM   H11G11003   3.167   2.666   9.442  2.0264  2.2981 -2.3372
  107OSM   C12F11004   3.205   2.537   9.265 -0.3548 -0.0626  0.3406
  107OSM   H12F11005   3.112   2.476   9.276 -0.7727  0.4945 -0.0752
  107OSM   H12G11006   3.290   2.479   9.223  0.0733  0.8846 -0.0931
  107OSM   C13F11007   3.182   2.658   9.176 -0.2492  0.2844  0.2912
  107OSM   H13F11008   3.241   2.741   9.218  0.3212  0.4524 -0.8147
  107OSM   H13G11009   3.075   2.690   9.175  0.0913  1.4750  1.2451
  107OSM   C14F11010   3.196   2.633   9.017  0.1620 -0.2215 -0.0007
  107OSM   H14F11011   3.142   2.715   8.964  1.6501 -0.3391 -1.7616
  107OSM   H14G11012   3.143   2.542   8.982 -0.8016  1.3493 -2.7913
  107OSM   C15F11013   3.345   2.630   8.975 -0.2211 -0.1570  0.1853
  107OSM   H15F11014   3.394   2.550   9.034 -1.3417  0.8550  2.5223
  107OSM   H15G11015   3.386   2.727   9.011 -0.3240 -0.8525  2.2070
  107OSM   C16F11016   3.367   2.600   8.823 -0.8197 -0.1494  0.2620
  107OSM   H16F11017   3.344   2.493   8.800  0.2407 -0.5625  1.0706
  107OSM   H16G11018   3.476   2.611   8.807 -0.3648 -3.5604  0.5727
  107OSM   C17F11019   3.293   2.694   8.731  0.9046 -0.2824  0.3875
  107OSM   H17F11020   3.321   2.798   8.761 -2.1960  0.7253 -0.0090
  107OSM   H17G11021   3.188   2.670   8.757  0.4326  0.5538 -0.7139
  107OSM   C18F11022   3.323   2.663   8.582  0.1421 -0.4062  0.2972
  107OSM   H18F11023   3.273   2.568   8.554 -0.9842 -0.4066  2.1730
  107OSM   H18G11024   3.432   2.652   8.564  0.7205  2.8712  1.4494
  107OSM   H18H11025   3.279   2.749   8.527 -0.2956 -1.0963 -0.4358
  108OSM      N11026   0.014   4.518  10.761 -0.1087 -0.4072  0.1471
  108OSM    C1511027   0.035   4.480  10.908  0.6093 -0.1200  0.1566
  108OSM   H15A11028  -0.029   4.537  10.974 -0.8608 -1.7609  0.1656
  108OSM   H15B11029   0.129   4.521  10.941 -0.9057  4.3506 -0.7089
  108OSM   H15C11030   0.021   4.374  10.917  0.3527 -0.0995  0.0090
  108OSM    C1411031  -0.103   4.445  10.702 -0.2700 -0.2978  0.1301
  108OSM   H14A11032  -0.192   4.481  10.750  1.0970  1.7616  1.2234
  108OSM   H14B11033  -0.103   4.337  10.713  2.0515 -0.1752  1.7226
  108OSM   H14C11034  -0.119   4.467  10.597  1.7410  1.8418  0.2151
  108OSM    C1311035  -0.001   4.668  10.740  0.0077  0.5390  0.0371
  108OSM   H13A11036   0.073   4.727  10.792 -0.9869  2.0227 -0.2019
  108OSM   H13B11037  -0.095   4.715  10.762 -0.2258 -0.7709  1.9173
  108OSM   H13C11038   0.008   4.687  10.634 -1.1058  0.9439  0.0112
  108OSM    C1211039   0.146   4.470  10.695 -0.4527 -0.1588  0.8729
  108OSM   H12A11040   0.239   4.518  10.724 -2.2477  2.5174  2.3456
  108OSM   H12B11041   0.125   4.480  10.589  1.1178 -1.3514  0.4292
  108OSM    C1111042   0.181   4.318  10.714  0.3174  0.0558 -0.6108
  108OSM   H11A11043   0.209   4.294  10.819 -1.7129 -1.9478 -0.4765
  108OSM   H11B11044   0.279   4.299  10.664 -0.2711 -0.6966 -1.5063
  108OSM      P11045   0.076   4.186  10.523 -0.4287  0.0375 -0.7141
  108OSM    O1311046   0.038   4.301  10.435  0.1404 -0.0593 -1.2148
  108OSM    O1411047   0.215   4.134  10.491  0.7834 -0.5197 -0.5213
  108OSM    O1111048  -0.031   4.066  10.517  0.1039 -0.1551 -0.4107
  108OSM    O1211049   0.075   4.231  10.674 -0.0397  0.7179 -0.0235
  108OSM    C1S11050  -0.176   4.099  10.520 -1.2024  0.3356 -0.0647
  108OSM    H1S11051  -0.207   4.188  10.578 -3.2255 -1.2515  1.3509
  108OSM    H1T11052  -0.224   4.007  10.559  0.2081 -0.9943 -1.3838
  108OSM     NF11053  -0.376   4.153  10.380 -0.3388 -0.0851 -0.1554
  108OSM    HNF11054  -0.447   4.109  10.327  0.9702  0.1638 -2.1803
  108OSM    C2S11055  -0.238   4.109  10.375  0.3956 -0.1157  0.5017
  108OSM    H2S11056  -0.183   4.188  10.319  0.8532  0.3218  1.5612
  108OSM    C3S11057  -0.220   3.975  10.294 -0.1658  0.3633  0.4793
  108OSM    H3S11058  -0.299   3.908  10.333 -0.5489  1.1636  1.1036
  108OSM     O311059  -0.095   3.901  10.301 -0.0983  0.1719  0.1712
  108OSM    HO311060  -0.050   3.950  10.371  0.5766  0.8756 -0.7470
  108OSM    C4S11061  -0.248   4.000  10.148 -0.5973  0.1849 -0.0143
  108OSM    H4S11062  -0.350   3.969  10.123 -1.4247  0.6918  2.5774
  108OSM    C5S11063  -0.159   4.052  10.061 -0.0438 -1.1706  0.5646
  108OSM    H5S11064  -0.069   4.097  10.107 -1.5126  1.9248  0.4850
  108OSM    C6S11065  -0.192   4.080   9.917  0.4901  0.4341 -0.7915
  108OSM    H6S11066  -0.109   4.050   9.849  2.3010  1.3911  0.9587
  108OSM    H6T11067  -0.204   4.190   9.908  1.1165  0.5098 -0.7096
  108OSM    C7S11068  -0.320   4.026   9.860 -0.2785  0.3928  0.2144
  108OSM    H7S11069  -0.397   4.054   9.934 -0.5130  0.8765 -0.2174
  108OSM    H7T11070  -0.302   3.917   9.874  1.8517  0.8792  1.5380
  108OSM    C8S11071  -0.355   4.074   9.714 -0.7311  0.2875 -1.5441
  108OSM    H8S11072  -0.269   4.070   9.643  0.5777  3.1743 -0.2171
  108OSM    H8T11073  -0.384   4.181   9.717 -0.9504  0.2537 -2.3470
  108OSM    C9S11074  -0.480   3.997   9.670 -0.1342  0.2072 -0.6226
  108OSM    H9S11075  -0.563   4.034   9.733 -1.2966 -0.6008 -1.6408
  108OSM    H9T11076  -0.444   3.891   9.672  0.9072  0.5723  1.9153
  108OSM   C10S11077  -0.526   4.037   9.532 -0.5001  0.0617  0.4622
  108OSM   H10S11078  -0.567   4.140   9.543  1.1652  0.6559  1.2415
  108OSM   H10T11079  -0.620   3.986   9.503 -0.4828 -0.0481  0.5911
  108OSM   C11S11080  -0.429   4.030   9.407 -0.4346  0.5944 -0.6080
  108OSM   H11S11081  -0.359   3.951   9.441  0.7318  1.7503 -0.3029
  108OSM   H11T11082  -0.381   4.129   9.417 -2.1288  1.2460  1.9229
  108OSM   C12S11083  -0.485   3.987   9.268 -0.2641 -0.5961  0.0310
  108OSM   H12S11084  -0.589   4.028   9.272 -1.3996 -3.2181 -1.4962
  108OSM   H12T11085  -0.495   3.876   9.261  2.0770 -0.7534 -0.9801
  108OSM   C13S11086  -0.418   4.047   9.145 -1.6218 -0.2107  0.1435
  108OSM   H13S11087  -0.308   4.041   9.156 -1.8791 -0.1544  3.2452
  108OSM   H13T11088  -0.454   4.152   9.140 -0.8598  0.1256  1.6136
  108OSM   C14S11089  -0.460   3.979   9.014  0.2139 -0.0533 -0.0838
  108OSM   H14S11090  -0.567   3.950   9.011 -0.0797  1.1156 -1.4431
  108OSM   H14T11091  -0.412   3.879   9.019  2.0104  0.6547 -2.3910
  108OSM   C15S11092  -0.428   4.047   8.883  0.1857  0.0328 -0.1361
  108OSM   H15S11093  -0.326   4.090   8.885 -0.6688  2.2021 -1.0994
  108OSM   H15T11094  -0.508   4.124   8.873  0.2046  0.3231  1.8513
  108OSM   C16S11095  -0.432   3.957   8.754  0.4483  0.1842  0.4288
  108OSM   H16S11096  -0.429   4.029   8.669  0.0174  0.6466  0.8110
  108OSM   H16T11097  -0.532   3.910   8.757  0.9619 -1.0296 -0.4911
  108OSM   C17S11098  -0.322   3.854   8.737 -0.2452 -0.4600 -0.2089
  108OSM   H17S11099  -0.323   3.789   8.827 -2.1861 -1.4887 -0.9453
  108OSM   H17T11100  -0.224   3.906   8.732 -1.3519  2.2192  3.7273
  108OSM   C18S11101  -0.350   3.753   8.620 -0.1660  0.3132 -0.1457
  108OSM   H18S11102  -0.397   3.810   8.537  0.3904  1.8640  0.5824
  108OSM   H18T11103  -0.410   3.666   8.656  1.2764 -1.0522 -0.9922
  108OSM   H18U11104  -0.255   3.708   8.585  1.1110  0.6502  2.7236
  108OSM    C1F11105  -0.410   4.275  10.425 -0.3179 -0.2621 -1.0795
  108OSM     OF11106  -0.330   4.356  10.456 -0.3986  0.6220  0.5700
  108OSM    C2F11107  -0.554   4.311  10.427  0.1421  0.0911 -0.2095
  108OSM    H2F11108  -0.574   4.357  10.526  1.8773  1.4497 -0.4716
  108OSM    H2G11109  -0.611   4.215  10.424  2.4740 -1.3907  1.1517
  108OSM    C3F11110  -0.590   4.407  10.313 -0.3283 -0.2441  0.1636
  108OSM    H3F11111  -0.514   4.488  10.325 -1.0105  0.2585  1.2135
  108OSM    H3G11112  -0.688   4.457  10.325 -1.1758 -1.9341  0.3848
  108OSM    C4F11113  -0.566   4.353  10.170  0.2545  0.1425 -0.8806
  108OSM    H4F11114  -0.559   4.242  10.170 -0.1463  0.0990 -2.7870
  108OSM    H4G11115  -0.470   4.395  10.135  1.4494 -0.5284  1.4535
  108OSM    C5F11116  -0.658   4.405  10.060  0.6900 -0.1744 -0.4459
  108OSM    H5F11117  -0.686   4.511  10.079  0.3969 -0.4508  0.6609
  108OSM    H5G11118  -0.761   4.363  10.066  0.0717  1.0298 -2.2593
  108OSM    C6F11119  -0.603   4.394   9.920 -0.2460 -0.2649 -0.0259
  108OSM    H6F11120  -0.591   4.287   9.892 -1.2099 -1.1045  2.5661
  108OSM    H6G11121  -0.501   4.438   9.915 -0.7119  1.0382  1.5637
  108OSM    C7F11122  -0.686   4.460   9.813 -0.3183 -0.2158 -0.2852
  108OSM    H7F11123  -0.684   4.569   9.835 -1.3487 -0.5974  1.8196
  108OSM    H7G11124  -0.795   4.440   9.821 -0.4654  0.2390 -1.0454
  108OSM    C8F11125  -0.639   4.421   9.666  0.1347 -0.1657 -0.5424
  108OSM    H8F11126  -0.666   4.315   9.648  3.4704 -1.3916  1.2823
  108OSM    H8G11127  -0.529   4.416   9.658  0.2199  0.7621 -0.0755
  108OSM    C9F11128  -0.689   4.522   9.569 -0.3828  0.3008 -0.4045
  108OSM    H9F11129  -0.648   4.624   9.568  0.9237 -0.2231 -1.7826
  108OSM   C10F11130  -0.774   4.495   9.464 -0.0894  0.5267 -0.3999
  108OSM   H10F11131  -0.800   4.577   9.396  0.1343  0.5515 -0.4548
  108OSM   C11F11132  -0.833   4.363   9.427  0.8241 -0.9391 -0.6925
  108OSM   H11F11133  -0.938   4.365   9.392 -0.2698 -2.6770  2.3444
  108OSM   H11G11134  -0.837   4.286   9.508  0.3871  0.7198  0.8900
  108OSM   C12F11135  -0.753   4.316   9.304  0.2001  0.0304  0.2186
  108OSM   H12F11136  -0.744   4.206   9.315  2.3955  0.0762 -0.8636
  108OSM   H12G11137  -0.655   4.365   9.285  0.0688  0.3761  0.4230
  108OSM   C13F11138  -0.810   4.359   9.166  0.1485 -0.2108  0.4033
  108OSM   H13F11139  -0.763   4.455   9.136  1.5631 -1.2903 -0.9333
  108OSM   H13G11140  -0.918   4.382   9.176 -0.7128 -2.8203 -2.1250
  108OSM   C14F11141  -0.793   4.261   9.045 -0.5328  0.3889  0.0573
  108OSM   H14F11142  -0.817   4.159   9.083 -0.5378  0.1733 -0.5182
  108OSM   H14G11143  -0.686   4.260   9.017 -0.9922 -1.3400 -1.8404
  108OSM   C15F11144  -0.886   4.306   8.928  0.2603  0.2332  0.1467
  108OSM   H15F11145  -0.871   4.415   8.913 -1.1795  0.1964 -1.6477
  108OSM   H15G11146  -0.990   4.289   8.963 -1.2580  3.8380 -2.3840
  108OSM   C16F11147  -0.856   4.238   8.794  0.5627 -0.3368  0.7204
  108OSM   H16F11148  -0.850   4.128   8.812  1.2562 -0.7243 -1.7191
  108OSM   H16G11149  -0.756   4.274   8.761  0.4366  0.8809  1.6107
  108OSM   C17F11150  -0.960   4.265   8.676  1.0623 -0.0546  0.4323
  108OSM   H17F11151  -0.965   4.376   8.666 -0.8110 -0.2295 -0.6746
  108OSM   H17G11152  -1.065   4.250   8.707  0.1283  0.4084 -2.3985
  108OSM   C18F11153  -0.926   4.199   8.538  0.0810 -0.3886  1.2855
  108OSM   H18F11154  -0.946   4.093   8.562  0.8886 -1.5344 -2.8608
  108OSM   H18G11155  -0.820   4.224   8.517 -0.2358  0.7132  0.9419
  108OSM   H18H11156  -0.996   4.229   8.458  1.8813  0.0841 -0.1399
  109OSM      N11157   5.265   1.630  11.093  0.0688  0.4651 -0.1410
  109OSM    C1511158   5.241   1.487  11.063  0.6140 -0.8408  0.1177
  109OSM   H15A11159   5.319   1.446  11.000  0.9705  2.6261 -1.8301
  109OSM   H15B11160   5.154   1.482  11.000 -0.6969  3.6071  1.4148
  109OSM   H15C11161   5.223   1.429  11.153 -1.4884 -0.1720  0.1591
  109OSM    C1411162   5.153   1.660  11.186 -0.1147 -0.1833 -0.1277
  109OSM   H14A11163   5.166   1.765  11.207 -1.6243  0.4157 -2.0557
  109OSM   H14B11164   5.152   1.604  11.278 -0.8525  1.1705  0.6934
  109OSM   H14C11165   5.061   1.632  11.136 -0.5730  0.6150  0.2568
  109OSM    C1311166   5.393   1.644  11.170 -0.4511  0.1197  0.1192
  109OSM   H13A11167   5.401   1.574  11.252  1.0682 -2.0493 -1.8087
  109OSM   H13B11168   5.423   1.745  11.193  0.2920  0.2103 -1.1939
  109OSM   H13C11169   5.465   1.612  11.096 -0.9209  2.0066 -1.2127
  109OSM    C1211170   5.250   1.720  10.981 -0.1512  0.2128 -0.8323
  109OSM   H12A11171   5.151   1.719  10.939 -0.2243 -0.2855 -0.6478
  109OSM   H12B11172   5.305   1.677  10.898  0.5665  0.8872 -0.7169
  109OSM    C1111173   5.297   1.866  10.996 -0.1858 -1.0670 -0.2589
  109OSM   H11A11174   5.300   1.899  10.890 -2.2313 -2.1022 -0.6739
  109OSM   H11B11175   5.405   1.869  11.022 -0.6413 -0.9791  1.6885
  109OSM      P11176   5.092   2.040  11.013  0.3222 -0.4530 -0.1453
  109OSM    O1311177   4.975   1.955  11.054  0.2709  0.0218 -0.2009
  109OSM    O1411178   5.113   2.178  11.056 -0.5242  0.2298  0.3921
  109OSM    O1111179   5.114   2.028  10.858 -0.0111 -0.1076 -0.1790
  109OSM    O1211180   5.219   1.960  11.070 -0.2029  0.1455 -0.1504
  109OSM    C1S11181   5.116   2.160  10.794  0.0159 -0.2917  0.2095
  109OSM    H1S11182   5.216   2.205  10.810  0.2820 -0.9207  0.3275
  109OSM    H1T11183   5.035   2.229  10.826 -0.0318  0.1445 -0.8449
  109OSM     NF11184   5.075   2.273  10.577  0.1785 -0.3862 -0.4439
  109OSM    HNF11185   4.981   2.304  10.561 -0.2956 -0.2131  2.4716
  109OSM    C2S11186   5.085   2.143  10.641 -0.1919 -0.0255 -0.1732
  109OSM    H2S11187   5.178   2.102  10.597 -0.3740 -0.3351 -0.2714
  109OSM    C3S11188   4.962   2.050  10.606 -0.2628 -0.4235  0.2917
  109OSM    H3S11189   4.863   2.095  10.627  0.1432 -0.4750  2.4684
  109OSM     O311190   4.958   1.919  10.668 -0.0146 -0.1248  0.4297
  109OSM    HO311191   5.030   1.929  10.732 -0.8021  1.2854  1.1325
  109OSM    C4S11192   4.969   2.025  10.456 -0.6910 -0.8575 -0.2797
  109OSM    H4S11193   5.067   1.997  10.414  0.1320  0.4096  0.7385
  109OSM    C5S11194   4.864   2.016  10.371 -0.0014 -0.4696 -0.1657
  109OSM    H5S11195   4.775   2.071  10.405 -0.6851 -2.5846  1.6270
  109OSM    C6S11196   4.871   1.992  10.223 -0.3896 -0.1895 -0.1643
  109OSM    H6S11197   4.979   1.978  10.202 -0.6733 -2.0034 -0.4191
  109OSM    H6T11198   4.850   2.087  10.169  3.0736  0.3336 -0.7375
  109OSM    C7S11199   4.797   1.871  10.163  0.4393 -0.0023 -0.1364
  109OSM    H7S11200   4.686   1.879  10.173  0.1605 -3.6959  0.5725
  109OSM    H7T11201   4.818   1.774  10.214  2.4297 -0.5343 -1.9288
  109OSM    C8S11202   4.814   1.856  10.009  0.4085 -0.7279 -0.1768
  109OSM    H8S11203   4.815   1.957   9.962  0.8906 -0.5970  0.1116
  109OSM    H8T11204   4.721   1.806   9.975  0.6921 -3.4375  2.7706
  109OSM    C9S11205   4.937   1.774   9.973 -0.0846  0.5793  0.1480
  109OSM    H9S11206   4.917   1.666   9.984  0.7407  0.6268  2.2205
  109OSM    H9T11207   5.014   1.824  10.036 -1.7626  1.9452  1.1702
  109OSM   C10S11208   4.991   1.808   9.828  0.3382 -0.5470 -0.1642
  109OSM   H10S11209   5.101   1.799   9.841  0.0956 -3.5234  0.2350
  109OSM   H10T11210   4.969   1.913   9.800  2.8395 -0.0984 -0.5160
  109OSM   C11S11211   4.952   1.719   9.713 -0.5938 -0.4601 -0.0818
  109OSM   H11S11212   4.845   1.742   9.697 -0.3196 -0.2080 -1.6711
  109OSM   H11T11213   4.965   1.615   9.751 -1.8872  0.2980  2.5327
  109OSM   C12S11214   5.035   1.763   9.586  0.0063  0.6506 -0.5454
  109OSM   H12S11215   5.142   1.736   9.600 -0.4096 -2.2097 -2.4642
  109OSM   H12T11216   5.016   1.871   9.571 -1.6914  0.2257 -1.5299
  109OSM   C13S11217   4.990   1.676   9.463  0.5361 -0.5605 -0.3192
  109OSM   H13S11218   4.882   1.702   9.455  0.3213  0.0635  3.5004
  109OSM   H13T11219   5.001   1.569   9.490  0.7822 -0.2465  0.8788
  109OSM   C14S11220   5.058   1.721   9.341 -0.4831 -0.2632 -0.3018
  109OSM   H14S11221   5.164   1.688   9.343  0.2360  1.9662  0.2470
  109OSM   H14T11222   5.064   1.832   9.338 -3.3554 -0.1020 -1.6979
  109OSM   C15S11223   4.982   1.682   9.215 -0.4825  0.2205  0.0596
  109OSM   H15S11224   4.887   1.739   9.212 -1.5126 -1.3525  1.7526
  109OSM   H15T11225   4.949   1.576   9.222  2.3126 -0.7021 -0.1220
  109OSM   C16S11226   5.063   1.678   9.088 -0.0992 -0.4570  0.5377
  109OSM   H16S11227   5.149   1.612   9.109 -0.1256 -0.4259  0.7450
  109OSM   H16T11228   5.105   1.780   9.070  3.8646 -2.4273 -1.9599
  109OSM   C17S11229   4.975   1.635   8.972  1.1668 -0.3514 -0.0859
  109OSM   H17S11230   4.906   1.721   8.959  0.7259 -0.9205 -1.5106
  109OSM   H17T11231   4.917   1.544   8.997  0.2184 -0.0917 -1.2936
  109OSM   C18S11232   5.040   1.620   8.843  0.4355  0.1911  0.4955
  109OSM   H18S11233   5.123   1.547   8.846  0.1702 -0.1684 -0.5211
  109OSM   H18T11234   5.086   1.715   8.807  0.6826 -0.1877 -0.2084
  109OSM   H18U11235   4.971   1.589   8.761  1.5115 -0.2845 -0.2374
  109OSM    C1F11236   5.173   2.361  10.555 -0.6751 -0.5609  0.2081
  109OSM     OF11237   5.290   2.330  10.565  0.3998 -0.2964  0.0263
  109OSM    C2F11238   5.132   2.502  10.516 -0.3214 -0.0950 -0.2838
  109OSM    H2F11239   5.214   2.565  10.557  1.5977 -1.9514 -1.1591
  109OSM    H2G11240   5.036   2.529  10.564 -1.0015  0.9054 -2.1605
  109OSM    C3F11241   5.125   2.525  10.364  0.6099  0.2885 -0.5924
  109OSM    H3F11242   5.072   2.622  10.364  0.0767  0.0007 -1.3175
  109OSM    H3G11243   5.062   2.440  10.330  1.9931 -1.3690  0.9115
  109OSM    C4F11244   5.256   2.548  10.285 -0.7706 -0.5025  0.6566
  109OSM    H4F11245   5.317   2.455  10.294  0.7449  0.6150  2.2909
  109OSM    H4G11246   5.313   2.640  10.309  0.7369 -0.9633 -1.0319
  109OSM    C5F11247   5.225   2.558  10.137 -0.3905 -0.0392 -0.0357
  109OSM    H5F11248   5.149   2.638  10.123 -1.7393 -1.3200 -0.1330
  109OSM    H5G11249   5.176   2.463  10.105 -0.7315  0.3091 -0.5656
  109OSM    C6F11250   5.354   2.587  10.062  0.0499  0.3720 -0.4159
  109OSM    H6F11251   5.417   2.497  10.046  0.3805  0.0380  2.6397
  109OSM    H6G11252   5.421   2.654  10.120  1.5187 -0.1879 -1.4191
  109OSM    C7F11253   5.333   2.660   9.926  0.3276  0.0638  0.1379
  109OSM    H7F11254   5.430   2.696   9.885  1.2400 -1.9169  0.4867
  109OSM    H7G11255   5.278   2.755   9.940 -1.1320 -1.0287  2.1557
  109OSM    C8F11256   5.256   2.572   9.820 -0.0331 -0.4195 -0.1355
  109OSM    H8F11257   5.195   2.644   9.762  0.3892 -0.2906 -0.4260
  109OSM    H8G11258   5.192   2.495   9.868  0.2111 -0.4493  0.1462
  109OSM    C9F11259   5.369   2.506   9.743 -0.3300 -0.3483  0.0978
  109OSM    H9F11260   5.453   2.468   9.802  0.6706  2.3575  0.4549
  109OSM   C10F11261   5.368   2.471   9.609 -0.8784  0.9915  0.0791
  109OSM   H10F11262   5.450   2.419   9.558  1.0823  1.0508  3.0790
  109OSM   C11F11263   5.249   2.498   9.513  0.1084  0.1786 -0.6846
  109OSM   H11F11264   5.188   2.583   9.551  0.8815  0.2612  0.3896
  109OSM   H11G11265   5.182   2.409   9.509  1.4637 -1.0543  2.5468
  109OSM   C12F11266   5.289   2.539   9.368 -0.3806 -0.9712  0.2337
  109OSM   H12F11267   5.362   2.622   9.380 -2.4547  1.0030 -0.3825
  109OSM   H12G11268   5.197   2.583   9.325  0.7108 -1.1895 -2.3882
  109OSM   C13F11269   5.318   2.429   9.271  0.6204 -0.4355 -0.6481
  109OSM   H13F11270   5.227   2.399   9.215 -0.4785 -2.3602  2.0979
  109OSM   H13G11271   5.327   2.344   9.341  5.0927  0.5507  0.1177
  109OSM   C14F11272   5.441   2.435   9.182 -0.2228  0.8228 -0.5935
  109OSM   H14F11273   5.531   2.399   9.236 -0.7726 -1.8560 -1.4064
  109OSM   H14G11274   5.475   2.536   9.148  2.6388  0.4354  0.9297
  109OSM   C15F11275   5.408   2.352   9.054 -0.3637  0.3114  0.0717
  109OSM   H15F11276   5.306   2.371   9.014 -0.6397  1.0710  1.1291
  109OSM   H15G11277   5.416   2.245   9.085  1.9818  1.0604  2.2465
  109OSM   C16F11278   5.518   2.368   8.945  0.6335 -0.2279 -0.0294
  109OSM   H16F11279   5.615   2.372   8.999  0.0317 -0.6595  1.1018
  109OSM   H16G11280   5.510   2.472   8.909  0.4197  0.0898  0.9374
  109OSM   C17F11281   5.538   2.254   8.841 -0.8927 -0.5030 -0.2624
  109OSM   H17F11282   5.451   2.248   8.771 -0.2543  0.2530 -1.1364
  109OSM   H17G11283   5.543   2.156   8.893  1.0562  0.5733  1.6352
  109OSM   C18F11284   5.662   2.284   8.747 -0.0070  0.2352 -0.1798
  109OSM   H18F11285   5.653   2.378   8.689 -0.8263 -0.2443 -0.8338
  109OSM   H18G11286   5.671   2.209   8.666 -0.9591  0.1235 -0.1808
  109OSM   H18H11287   5.759   2.281   8.801  0.3880 -0.3247 -0.9084
  110OSM      N11288   5.694   1.046  10.865 -0.1815 -0.1926 -0.0647
  110OSM    C1511289   5.787   1.159  10.812 -0.0568  0.3973 -0.0584
  110OSM   H15A11290   5.834   1.123  10.721  0.6195  0.0311  0.4322
  110OSM   H15B11291   5.870   1.179  10.877  1.1420  3.6153 -2.4449
  110OSM   H15C11292   5.743   1.257  10.797  0.6860  1.1154  2.3168
  110OSM    C1411293   5.620   1.091  10.986  0.5440 -0.4043 -0.4524
  110OSM   H14A11294   5.565   1.182  10.969  0.5942 -0.2427  0.2368
  110OSM   H14B11295   5.683   1.099  11.074 -1.2320 -0.3207  0.8469
  110OSM   H14C11296   5.537   1.026  11.009 -0.4178  0.7192 -0.7159
  110OSM    C1311297   5.603   1.016  10.756 -0.1066  0.0201 -0.3112
  110OSM   H13A11298   5.514   0.960  10.781  0.5145 -0.2076  1.4279
  110OSM   H13B11299   5.647   0.976  10.666 -0.4086  1.4759 -1.1271
  110OSM   H13C11300   5.559   1.109  10.722  0.3782 -0.8530 -3.4958
  110OSM    C1211301   5.769   0.924  10.903 -0.3461 -0.1643  0.3752
  110OSM   H12A11302   5.705   0.857  10.961 -1.4413  1.4895  1.1293
  110OSM   H12B11303   5.841   0.958  10.976 -2.0752 -1.6075  2.8516
  110OSM    C1111304   5.853   0.852  10.796  0.6314 -0.1874 -0.2264
  110OSM   H11A11305   5.922   0.922  10.745 -1.3089  1.7359 -0.2610
  110OSM   H11B11306   5.788   0.813  10.715 -1.1951 -1.1749  1.6551
  110OSM      P11307   6.041   0.743  10.946  0.2146  0.0852 -0.3399
  110OSM    O1311308   6.009   0.837  11.058 -0.5268  0.2559  0.3082
  110OSM    O1411309   6.068   0.604  10.983 -0.0916 -0.3191 -0.6064
  110OSM    O1111310   6.149   0.804  10.856  0.1953 -0.0858 -0.1308
  110OSM    O1211311   5.917   0.740  10.857  0.5221 -0.1063  0.0627
  110OSM    C1S11312   6.197   0.745  10.734  0.5472  0.3333  0.0979
  110OSM    H1S11313   6.111   0.743  10.663 -0.0211 -2.2648  0.8135
  110OSM    H1T11314   6.236   0.641  10.737 -0.0041 -0.0435 -3.3743
  110OSM     NF11315   6.343   0.804  10.540 -0.2745  0.2448  0.1542
  110OSM    HNF11316   6.435   0.772  10.523 -0.9905 -1.3842 -0.7308
  110OSM    C2S11317   6.307   0.838  10.673 -0.6764 -0.0250  0.0004
  110OSM    H2S11318   6.270   0.942  10.665  0.6879  0.4325 -0.5023
  110OSM    C3S11319   6.427   0.839  10.771 -0.2171  0.2560  0.8872
  110OSM    H3S11320   6.471   0.737  10.774 -0.2507  0.1515 -1.5726
  110OSM     O311321   6.401   0.874  10.903  0.0871 -0.5080 -0.0208
  110OSM    HO311322   6.306   0.878  10.912  0.1674 -1.8541  1.7223
  110OSM    C4S11323   6.536   0.927  10.724  0.1738  0.1690  0.2705
  110OSM    H4S11324   6.610   0.882  10.657  0.1613  2.8954 -1.6632
  110OSM    C5S11325   6.568   1.054  10.762 -0.1092 -0.1161  0.0359
  110OSM    H5S11326   6.513   1.106  10.842 -0.5115 -0.4157 -0.0432
  110OSM    C6S11327   6.683   1.122  10.698 -0.4170 -0.4331 -0.2662
  110OSM    H6S11328   6.756   1.049  10.657 -1.1582 -1.4460  0.1671
  110OSM    H6T11329   6.730   1.199  10.763 -1.4057 -0.0460  0.0052
  110OSM    C7S11330   6.633   1.213  10.589  0.1549 -0.4478  0.5905
  110OSM    H7S11331   6.714   1.266  10.535  0.9537 -1.0940  1.1551
  110OSM    H7T11332   6.576   1.295  10.638 -1.9085  0.2165 -2.7248
  110OSM    C8S11333   6.540   1.143  10.486 -0.6316  0.2476 -0.1626
  110OSM    H8S11334   6.440   1.133  10.533 -2.0031  2.2492 -2.5210
  110OSM    H8T11335   6.582   1.043  10.464 -0.4280  0.1772  0.5280
  110OSM    C9S11336   6.530   1.215  10.349  0.2042 -0.2268 -0.0206
  110OSM    H9S11337   6.489   1.317  10.367 -0.9516 -0.6524 -0.2323
  110OSM    H9T11338   6.452   1.160  10.293  0.7807 -0.2323 -0.8293
  110OSM   C10S11339   6.662   1.209  10.259 -0.5601 -0.5005 -0.4254
  110OSM   H10S11340   6.722   1.116  10.267 -0.9354 -0.9340 -2.4441
  110OSM   H10T11341   6.733   1.292  10.278 -1.3840 -0.0051  0.5510
  110OSM   C11S11342   6.623   1.224  10.110 -0.0799 -0.3559  0.3764
  110OSM   H11S11343   6.534   1.289  10.093  0.4405 -0.2480 -1.9874
  110OSM   H11T11344   6.593   1.123  10.074  0.2873  0.6776 -2.9409
  110OSM   C12S11345   6.736   1.281  10.027  0.0498 -0.3545  0.6861
  110OSM   H12S11346   6.830   1.221  10.036  1.4400  1.5541 -0.6051
  110OSM   H12T11347   6.759   1.388  10.047 -1.5108  0.7328 -3.0051
  110OSM   C13S11348   6.696   1.278   9.881  0.7872  0.2065 -0.5504
  110OSM   H13S11349   6.599   1.330   9.868 -0.3389 -0.3620  4.7501
  110OSM   H13T11350   6.692   1.172   9.847  0.7278  0.0403 -0.0179
  110OSM   C14S11351   6.807   1.340   9.790 -0.1567  0.0797  0.4505
  110OSM   H14S11352   6.898   1.280   9.811 -0.4730 -0.1011  1.3510
  110OSM   H14T11353   6.833   1.443   9.823  1.3474 -0.3756  0.7491
  110OSM   C15S11354   6.780   1.328   9.635  0.6545 -0.1579  0.0379
  110OSM   H15S11355   6.725   1.232   9.629 -1.1183  0.8119  0.4856
  110OSM   H15T11356   6.875   1.310   9.580  0.9256  1.2172  0.0185
  110OSM   C16S11357   6.693   1.448   9.583 -0.2058  1.0634 -0.1374
  110OSM   H16S11358   6.746   1.529   9.529  1.2517 -0.3016 -0.7958
  110OSM   H16T11359   6.655   1.494   9.677  2.4836  1.9739  0.5378
  110OSM   C17S11360   6.584   1.410   9.491  0.0687 -0.2056  0.0115
  110OSM   H17S11361   6.537   1.498   9.440 -1.6655 -0.3068  1.3752
  110OSM   H17T11362   6.500   1.360   9.544  1.8868 -1.4223  1.7839
  110OSM   C18S11363   6.622   1.315   9.372  0.0507 -0.1206  0.6247
  110OSM   H18S11364   6.692   1.362   9.300 -2.4286  3.4623  0.4484
  110OSM   H18T11365   6.524   1.289   9.325 -0.6460  1.4338  1.1964
  110OSM   H18U11366   6.675   1.228   9.417  2.4362  1.0883  0.2150
  110OSM    C1F11367   6.252   0.817  10.437 -0.3443  0.2456  0.1866
  110OSM     OF11368   6.152   0.880  10.458 -0.0815  0.6196 -0.7196
  110OSM    C2F11369   6.275   0.751  10.306 -0.4235 -0.4113  0.1128
  110OSM    H2F11370   6.176   0.722  10.265 -0.7277  1.6782 -0.7075
  110OSM    H2G11371   6.330   0.656  10.320 -1.4658 -0.9596  0.5234
  110OSM    C3F11372   6.349   0.853  10.213  0.1075  0.0105 -0.2545
  110OSM    H3F11373   6.443   0.889  10.262 -0.1014  1.6419 -1.0083
  110OSM    H3G11374   6.282   0.935  10.181 -2.7755 -1.3703  2.0926
  110OSM    C4F11375   6.381   0.780  10.078 -0.1693  1.2396 -0.4050
  110OSM    H4F11376   6.390   0.674  10.109  0.2616  1.6978  1.0522
  110OSM    H4G11377   6.479   0.820  10.044  0.3010 -0.8345 -1.5360
  110OSM    C5F11378   6.276   0.801   9.964  0.3045 -0.2466  0.6058
  110OSM    H5F11379   6.179   0.841  10.001 -0.4330  0.3456 -1.8881
  110OSM    H5G11380   6.240   0.700   9.933 -1.6403  0.2389  1.2067
  110OSM    C6F11381   6.316   0.888   9.847  0.3910 -0.8003  0.0847
  110OSM    H6F11382   6.223   0.911   9.791  0.3280  0.2180  0.5902
  110OSM    H6G11383   6.393   0.831   9.790 -1.7268 -2.2198 -1.4210
  110OSM    C7F11384   6.385   1.018   9.887  0.5836  0.5074 -0.0022
  110OSM    H7F11385   6.495   1.010   9.885  0.9493  4.1895  1.4834
  110OSM    H7G11386   6.356   1.061   9.985 -2.9365  1.8014 -1.5032
  110OSM    C8F11387   6.355   1.131   9.786 -0.0495 -0.1489  0.1480
  110OSM    H8F11388   6.399   1.221   9.834 -1.5965  0.4672  0.4509
  110OSM    H8G11389   6.247   1.153   9.771  0.4042  1.6941 -0.5533
  110OSM    C9F11390   6.425   1.110   9.654  0.3742 -1.0277 -0.3455
  110OSM    H9F11391   6.523   1.060   9.657  1.3048  0.7740 -0.0228
  110OSM   C10F11392   6.378   1.109   9.530  0.8121  0.7555  0.2628
  110OSM   H10F11393   6.446   1.078   9.449 -1.3494  0.4290 -1.4716
  110OSM   C11F11394   6.243   1.132   9.478  0.4127 -0.0306  0.0128
  110OSM   H11F11395   6.183   1.193   9.548 -0.2077  1.3808 -1.7100
  110OSM   H11G11396   6.184   1.039   9.464 -0.1189 -0.1313  2.7511
  110OSM   C12F11397   6.248   1.217   9.347 -0.6146 -0.7281 -0.2668
  110OSM   H12F11398   6.306   1.183   9.259 -2.1855 -1.4410 -1.0446
  110OSM   H12G11399   6.297   1.315   9.369  0.8321 -1.5133  0.0477
  110OSM   C13F11400   6.110   1.271   9.310  0.4250  0.3477  0.2355
  110OSM   H13F11401   6.076   1.325   9.401  1.4671  0.8583  0.3418
  110OSM   H13G11402   6.042   1.185   9.292 -0.8008  1.3677 -0.0474
  110OSM   C14F11403   6.115   1.347   9.175 -0.0563 -0.2441  0.2833
  110OSM   H14F11404   6.008   1.352   9.148  0.0159 -0.6400 -0.0903
  110OSM   H14G11405   6.164   1.289   9.093  0.4862 -0.7404  0.9400
  110OSM   C15F11406   6.177   1.492   9.172  0.3810  0.1677  0.3999
  110OSM   H15F11407   6.283   1.487   9.206  1.2395 -1.0765 -2.3397
  110OSM   H15G11408   6.129   1.551   9.253 -0.1142  0.6159 -0.2132
  110OSM   C16F11409   6.186   1.558   9.033  0.3142  0.2323  0.1144
  110OSM   H16F11410   6.087   1.547   8.982  0.2571  0.8718  0.0782
  110OSM   H16G11411   6.251   1.492   8.973 -2.3503 -2.3582 -0.0225
  110OSM   C17F11412   6.237   1.701   9.040  0.1294 -0.3015  0.0733
  110OSM   H17F11413   6.339   1.707   9.083  1.1747  2.1277 -2.6514
  110OSM   H17G11414   6.162   1.750   9.106 -0.5440  0.2035 -1.0630
  110OSM   C18F11415   6.250   1.764   8.906 -0.7579 -0.2137  0.7787
  110OSM   H18F11416   6.308   1.693   8.843 -1.3585 -0.5111  0.5569
  110OSM   H18G11417   6.302   1.861   8.923 -1.0406  0.2424 -0.9371
  110OSM   H18H11418   6.148   1.781   8.865 -0.4880 -0.6631 -0.0696
  111OSM      N11419   0.510   5.430  10.962 -0.7928 -0.0766  0.2062
  111OSM    C1511420   0.620   5.490  11.033 -0.1917 -0.9627  0.3706
  111OSM   H15A11421   0.597   5.590  11.066 -0.4751 -1.5411  1.9865
  111OSM   H15B11422   0.699   5.488  10.959  1.6267 -1.5518  2.2792
  111OSM   H15C11423   0.642   5.437  11.125 -1.2998 -3.4348 -0.7520
  111OSM    C1411424   0.527   5.293  10.992  0.1086  0.4379  0.8789
  111OSM   H14A11425   0.451   5.235  10.942  1.3238  0.1454 -0.6674
  111OSM   H14B11426   0.516   5.264  11.096 -1.6765 -1.4386  0.2091
  111OSM   H14C11427   0.629   5.266  10.969  0.2121  1.6016 -0.0801
  111OSM    C1311428   0.381   5.483  11.019 -0.2310  0.0677  0.6710
  111OSM   H13A11429   0.307   5.411  10.987 -0.1789  0.5813 -0.6331
  111OSM   H13B11430   0.370   5.588  10.996 -0.8461  0.2596  1.7896
  111OSM   H13C11431   0.389   5.478  11.126  2.9549 -0.3575  0.4504
  111OSM    C1211432   0.518   5.453  10.817  0.3743 -0.5006  0.8109
  111OSM   H12A11433   0.452   5.386  10.764  1.5010  0.6384 -2.1206
  111OSM   H12B11434   0.614   5.410  10.791  0.8211 -1.4301  3.7717
  111OSM    C1111435   0.495   5.593  10.749 -0.3718  0.2668  0.1781
  111OSM   H11A11436   0.387   5.608  10.768 -0.5634 -0.1624 -0.5566
  111OSM   H11B11437   0.514   5.590  10.640  1.5934  0.5899  0.4761
  111OSM      P11438   0.726   5.708  10.785 -0.0340 -0.1703 -0.1071
  111OSM    O1311439   0.805   5.788  10.888  0.1387  0.6190 -0.7027
  111OSM    O1411440   0.781   5.570  10.758  0.4012  0.1848  0.5481
  111OSM    O1111441   0.717   5.788  10.651  0.3137  0.3781 -0.1114
  111OSM    O1211442   0.572   5.695  10.814 -0.3837  0.0560 -0.2099
  111OSM    C1S11443   0.639   5.907  10.631 -0.4066 -0.0893 -0.1846
  111OSM    H1S11444   0.685   5.994  10.682 -0.4809 -0.1992  0.0697
  111OSM    H1T11445   0.540   5.899  10.681 -0.3523  0.5713  0.0373
  111OSM     NF11446   0.529   6.062  10.465  0.3275  0.5681  0.4383
  111OSM    HNF11447   0.432   6.042  10.452 -0.3842  3.4782  0.9107
  111OSM    C2S11448   0.613   5.940  10.479  0.5012  0.1872 -0.1114
  111OSM    H2S11449   0.713   5.964  10.439 -0.0923  2.2322 -0.4203
  111OSM    C3S11450   0.558   5.803  10.411  0.1039  0.2262 -0.0279
  111OSM    H3S11451   0.465   5.762  10.455 -1.0721  4.0636  1.2706
  111OSM     O311452   0.652   5.695  10.420  0.8831 -0.1003  0.1057
  111OSM    HO311453   0.703   5.715  10.499 -1.6106 -1.3850  2.1094
  111OSM    C4S11454   0.540   5.833  10.268  0.3374 -0.7017 -0.1748
  111OSM    H4S11455   0.632   5.826  10.208  0.1891 -0.6704 -0.4070
  111OSM    C5S11456   0.419   5.859  10.201  0.1097 -0.4073  0.2798
  111OSM    H5S11457   0.327   5.864  10.262  2.0188 -0.6035  3.2884
  111OSM    C6S11458   0.402   5.891  10.056  0.0676  0.1370  0.0976
  111OSM    H6S11459   0.364   5.809   9.991 -1.1046  1.5820 -1.0645
  111OSM    H6T11460   0.494   5.929  10.009  0.9139 -0.6170  1.1055
  111OSM    C7S11461   0.294   5.996  10.045  0.0632  0.1410  0.0077
  111OSM    H7S11462   0.320   6.093  10.093 -0.2515  0.4919 -0.5228
  111OSM    H7T11463   0.195   5.956  10.075 -0.5902  0.0560 -2.1629
  111OSM    C8S11464   0.272   6.032   9.895 -0.1882 -0.1492 -0.5736
  111OSM    H8S11465   0.235   5.944   9.839 -1.6004  0.7624 -1.0818
  111OSM    H8T11466   0.373   6.064   9.861  0.7927 -0.0104  2.2690
  111OSM    C9S11467   0.179   6.145   9.872  0.9967 -0.8271 -0.1569
  111OSM    H9S11468   0.206   6.230   9.937 -0.9810 -0.4958  0.2518
  111OSM    H9T11469   0.079   6.124   9.914  0.9528 -0.5253 -0.1087
  111OSM   C10S11470   0.186   6.180   9.726 -0.4891 -0.7632  0.2239
  111OSM   H10S11471   0.142   6.096   9.669 -0.1573 -0.4869 -0.4504
  111OSM   H10T11472   0.296   6.186   9.709 -0.3794  2.0868  1.6388
  111OSM   C11S11473   0.093   6.300   9.690 -0.0931 -0.8054  0.5917
  111OSM   H11S11474   0.102   6.382   9.765 -0.0482  2.2926 -2.6675
  111OSM   H11T11475  -0.008   6.255   9.696 -1.1021  1.3919  0.4513
  111OSM   C12S11476   0.097   6.363   9.553  0.9919  0.1842  0.0712
  111OSM   H12S11477   0.180   6.438   9.548  1.0494  0.0096 -2.0018
  111OSM   H12T11478   0.004   6.416   9.525  1.2488 -0.0413 -1.2318
  111OSM   C13S11479   0.125   6.251   9.449  0.3771  0.0809  0.1506
  111OSM   H13S11480   0.042   6.177   9.453  0.6283 -0.2266 -0.2819
  111OSM   H13T11481   0.206   6.177   9.462 -1.0029 -1.3908  0.5074
  111OSM   C14S11482   0.139   6.304   9.307  0.3769 -0.3040 -0.2627
  111OSM   H14S11483   0.246   6.332   9.298  0.9635 -2.2466  0.3450
  111OSM   H14T11484   0.077   6.395   9.299  1.5088  0.4510 -0.6499
  111OSM   C15S11485   0.115   6.193   9.201 -0.1033  0.5238  0.0542
  111OSM   H15S11486   0.011   6.154   9.210 -0.3637  0.9516 -0.9905
  111OSM   H15T11487   0.173   6.102   9.227  0.2902  1.1020  1.1964
  111OSM   C16S11488   0.149   6.241   9.060  0.3987  0.3977  0.0820
  111OSM   H16S11489   0.258   6.261   9.053  0.6265 -1.4920 -2.1828
  111OSM   H16T11490   0.113   6.345   9.041 -1.4350 -0.0854  0.8373
  111OSM   C17S11491   0.130   6.133   8.951 -1.0954  0.3005 -0.2003
  111OSM   H17S11492   0.024   6.122   8.920 -1.2343  1.1216 -0.0338
  111OSM   H17T11493   0.172   6.040   8.995 -1.8741 -0.9331 -1.9920
  111OSM   C18S11494   0.211   6.167   8.823 -0.5785  0.2486  0.1987
  111OSM   H18S11495   0.222   6.078   8.757  0.2460 -1.6790  2.8350
  111OSM   H18T11496   0.315   6.199   8.846 -1.3200  2.6621  0.2984
  111OSM   H18U11497   0.165   6.250   8.766 -1.9224 -1.3867 -1.1885
  111OSM    C1F11498   0.574   6.180  10.497  0.7716 -0.0600  0.1017
  111OSM     OF11499   0.672   6.207  10.563  0.5526  0.1074 -0.4637
  111OSM    C2F11500   0.484   6.291  10.434 -0.6879 -0.0571  0.4456
  111OSM    H2F11501   0.432   6.341  10.519  1.7190  3.0756  0.1252
  111OSM    H2G11502   0.406   6.234  10.379 -3.3522  2.9699  0.9426
  111OSM    C3F11503   0.562   6.395  10.353 -0.3424 -0.3159 -0.2569
  111OSM    H3F11504   0.656   6.424  10.405 -1.1454  1.4794  0.2335
  111OSM    H3G11505   0.501   6.488  10.353 -0.0857 -0.1243  2.2429
  111OSM    C4F11506   0.597   6.353  10.211  0.2588 -0.6878 -0.1116
  111OSM    H4F11507   0.502   6.334  10.157 -1.3757  0.6405  2.2061
  111OSM    H4G11508   0.664   6.264  10.216  0.7294 -0.3468 -0.2864
  111OSM    C5F11509   0.657   6.465  10.118 -0.5075  0.0262  0.6131
  111OSM    H5F11510   0.756   6.487  10.163  0.4202  0.3988 -1.5362
  111OSM    H5G11511   0.601   6.559  10.137 -1.4216 -0.6233  1.1500
  111OSM    C6F11512   0.671   6.413   9.972 -0.7435  0.0804  0.2772
  111OSM    H6F11513   0.583   6.352   9.943  1.6803 -2.6835 -1.5214
  111OSM    H6G11514   0.752   6.337   9.967 -0.4826  0.3723  0.1151
  111OSM    C7F11515   0.712   6.520   9.879 -0.9843 -0.2175  0.3882
  111OSM    H7F11516   0.819   6.545   9.894 -0.9288  0.2255 -0.6741
  111OSM    H7G11517   0.650   6.610   9.899  1.0525  0.7392  2.4712
  111OSM    C8F11518   0.702   6.476   9.731  0.6479  0.1967  0.2437
  111OSM    H8F11519   0.748   6.375   9.731 -1.1319 -0.7191 -3.3593
  111OSM    H8G11520   0.752   6.549   9.664 -1.6158  2.2194  0.6814
  111OSM    C9F11521   0.557   6.454   9.697  0.5807  0.3063 -0.1307
  111OSM    H9F11522   0.519   6.352   9.715  2.0039 -0.5927 -2.0265
  111OSM   C10F11523   0.485   6.541   9.631  0.0430  0.1325  0.5801
  111OSM   H10F11524   0.384   6.510   9.599 -0.2899  1.0422  0.7259
  111OSM   C11F11525   0.518   6.670   9.570 -0.0264  0.6158  0.2221
  111OSM   H11F11526   0.612   6.708   9.616  1.5181 -2.1922 -0.5357
  111OSM   H11G11527   0.450   6.747   9.611 -0.5544 -0.4386  1.3460
  111OSM   C12F11528   0.502   6.668   9.417  0.1923 -0.1689 -0.4252
  111OSM   H12F11529   0.482   6.772   9.381  1.9109  0.8408  1.4410
  111OSM   H12G11530   0.419   6.604   9.381 -0.3872  0.5593 -0.3945
  111OSM   C13F11531   0.619   6.612   9.338  0.4382 -1.5098  0.3738
  111OSM   H13F11532   0.646   6.509   9.368 -0.2711 -1.9582 -0.4921
  111OSM   H13G11533   0.711   6.670   9.363 -0.2536  0.7744 -2.0632
  111OSM   C14F11534   0.600   6.635   9.181 -0.2873  0.4100  0.3664
  111OSM   H14F11535   0.679   6.702   9.142  0.7879 -0.5952  0.7825
  111OSM   H14G11536   0.499   6.674   9.156 -0.6979 -1.1685 -0.5301
  111OSM   C15F11537   0.621   6.497   9.106 -0.1394  0.3909  0.1575
  111OSM   H15F11538   0.534   6.431   9.128 -0.8668  1.4615  0.5318
  111OSM   H15G11539   0.718   6.453   9.137  0.5446  3.1993  2.1224
  111OSM   C16F11540   0.629   6.518   8.953  0.6572 -0.8831  0.6830
  111OSM   H16F11541   0.682   6.607   8.914 -0.1994 -0.3420  0.7468
  111OSM   H16G11542   0.521   6.530   8.928  1.3469  3.2047 -0.6879
  111OSM   C17F11543   0.681   6.406   8.868 -0.2373  0.4727  0.4761
  111OSM   H17F11544   0.639   6.405   8.765  2.0565 -2.1943 -0.5006
  111OSM   H17G11545   0.650   6.305   8.904  0.1975 -0.1397 -0.8288
  111OSM   C18F11546   0.834   6.397   8.878  0.4604 -0.1598  0.4350
  111OSM   H18F11547   0.875   6.471   8.807 -1.2564  2.0118  1.6624
  111OSM   H18G11548   0.877   6.296   8.859 -0.1565 -0.3316 -0.1047
  111OSM   H18H11549   0.855   6.421   8.984 -1.1268 -0.9168  0.9504
  112OSM      N11550   6.752   3.672  10.662  0.4352 -0.9506  0.1794
  112OSM    C1511551   6.745   3.807  10.721  1.1631 -0.0732  0.0480
  112OSM   H15A11552   6.849   3.827  10.744  0.9661 -0.5934  1.4010
  112OSM   H15B11553   6.691   3.804  10.815  1.2931  1.4740  0.1811
  112OSM   H15C11554   6.713   3.883  10.652 -4.5602 -1.2937  1.1069
  112OSM    C1411555   6.809   3.690  10.523  0.3537  0.0805 -0.4240
  112OSM   H14A11556   6.801   3.598  10.467 -2.0454 -0.5154  0.8464
  112OSM   H14B11557   6.912   3.723  10.525  1.0755 -1.9008 -2.6307
  112OSM   H14C11558   6.750   3.763  10.470  0.5049  0.9902  0.6350
  112OSM    C1311559   6.849   3.585  10.741  0.2181  0.0378 -0.0020
  112OSM   H13A11560   6.807   3.568  10.839  1.8446 -0.1489  0.6690
  112OSM   H13B11561   6.947   3.631  10.745  0.9125 -1.4877  0.9227
  112OSM   H13C11562   6.872   3.490  10.696  1.1680 -0.0809  0.7174
  112OSM    C1211563   6.619   3.612  10.653 -0.5605 -0.0123 -0.8464
  112OSM   H12A11564   6.632   3.508  10.625  3.4105 -0.0696  0.9255
  112OSM   H12B11565   6.557   3.662  10.581  1.0870  2.6753 -0.4373
  112OSM    C1111566   6.517   3.627  10.776  0.2028 -0.1347  0.1026
  112OSM   H11A11567   6.566   3.577  10.863 -0.2304 -1.8116 -0.6021
  112OSM   H11B11568   6.427   3.563  10.765  0.4970  0.1727 -4.8197
  112OSM      P11569   6.375   3.843  10.750  0.0616 -0.1296  0.3048
  112OSM    O1311570   6.247   3.802  10.810 -0.1314 -0.3492  0.1948
  112OSM    O1411571   6.404   3.986  10.765  0.1390  0.0787  0.5587
  112OSM    O1111572   6.375   3.800  10.600  0.2508  0.0755 -0.4260
  112OSM    O1211573   6.486   3.759  10.814  0.2792  0.3209  0.4705
  112OSM    C1S11574   6.260   3.823  10.510 -0.0160 -0.2185  0.0790
  112OSM    H1S11575   6.278   3.928  10.479 -1.4268 -0.8899 -3.2120
  112OSM    H1T11576   6.163   3.817  10.563  0.2625 -4.1216  0.3477
  112OSM     NF11577   6.167   3.785  10.274  0.1848 -1.0686  0.1253
  112OSM    HNF11578   6.078   3.742  10.262 -0.0962 -1.2260  2.5413
  112OSM    C2S11579   6.261   3.739  10.381 -0.0858 -0.1192 -0.6496
  112OSM    H2S11580   6.366   3.742  10.345  0.3512 -0.5032  0.5504
  112OSM    C3S11581   6.229   3.597  10.423  0.1835  0.6839  0.7577
  112OSM    H3S11582   6.131   3.608  10.474 -0.6108  0.1599 -0.6536
  112OSM     O311583   6.308   3.549  10.526 -0.5833 -0.3286 -0.1215
  112OSM    HO311584   6.349   3.625  10.568  0.8143 -0.7630 -0.6669
  112OSM    C4S11585   6.235   3.500  10.308  0.1663  0.1466  0.5002
  112OSM    H4S11586   6.334   3.452  10.300  0.0388 -0.0933  0.3635
  112OSM    C5S11587   6.133   3.461  10.231 -0.5222 -0.7199  0.0765
  112OSM    H5S11588   6.029   3.491  10.248 -0.6456  0.4727 -2.4990
  112OSM    C6S11589   6.141   3.363  10.119  0.5402  0.0801  0.6291
  112OSM    H6S11590   6.090   3.267  10.139 -1.2761  0.8191 -0.3198
  112OSM    H6T11591   6.246   3.337  10.093  0.0334 -1.6853  0.3115
  112OSM    C7S11592   6.070   3.421   9.997  1.0970  0.4837  0.1842
  112OSM    H7S11593   5.970   3.467  10.013  0.6930 -0.9356  1.9168
  112OSM    H7T11594   6.053   3.338   9.926  0.5475 -0.6937  1.6492
  112OSM    C8S11595   6.159   3.528   9.934 -0.1532  0.0397  0.1374
  112OSM    H8S11596   6.263   3.490   9.935  0.1286  0.5349 -3.1795
  112OSM    H8T11597   6.158   3.629   9.979  0.7314 -0.0012  0.2601
  112OSM    C9S11598   6.131   3.548   9.784 -0.1350 -0.0032  0.1392
  112OSM    H9S11599   6.025   3.570   9.763 -0.4266 -0.2675  1.2840
  112OSM    H9T11600   6.144   3.454   9.727  1.1110 -1.3213  2.4760
  112OSM   C10S11601   6.223   3.659   9.723  0.4992  0.4024  0.7218
  112OSM   H10S11602   6.331   3.639   9.737  0.3065 -1.5599 -0.5183
  112OSM   H10T11603   6.205   3.758   9.771 -1.9411  1.1329 -1.5809
  112OSM   C11S11604   6.219   3.660   9.568  0.5114 -0.6967 -0.4628
  112OSM   H11S11605   6.278   3.740   9.519  0.5786 -0.9306 -0.7658
  112OSM   H11T11606   6.116   3.662   9.527 -0.5172 -1.2905  2.0090
  112OSM   C12S11607   6.288   3.540   9.500  0.2364  0.6348 -0.1606
  112OSM   H12S11608   6.229   3.449   9.524  1.1821  0.3980  1.3347
  112OSM   H12T11609   6.385   3.517   9.549  0.2781  0.4162 -0.3418
  112OSM   C13S11610   6.322   3.548   9.354 -0.0982  0.2108 -0.3231
  112OSM   H13S11611   6.333   3.445   9.316 -0.6470 -1.1503  3.0653
  112OSM   H13T11612   6.420   3.600   9.352 -0.1437  0.3642  0.7850
  112OSM   C14S11613   6.205   3.616   9.275  0.0820 -0.1055  0.2410
  112OSM   H14S11614   6.203   3.722   9.307  3.0131  1.1066 -3.2689
  112OSM   H14T11615   6.115   3.555   9.300 -0.3391  0.8678  1.1490
  112OSM   C15S11616   6.240   3.615   9.125  0.2803  0.0859 -1.2561
  112OSM   H15S11617   6.274   3.515   9.092  1.7924  0.3107 -0.4055
  112OSM   H15T11618   6.319   3.693   9.127  1.5453 -1.2066  0.9462
  112OSM   C16S11619   6.136   3.673   9.029  0.1048 -0.0189 -0.2557
  112OSM   H16S11620   6.101   3.774   9.061 -0.8115 -0.2866 -0.4101
  112OSM   H16T11621   6.045   3.610   9.026 -1.2469  1.6556  2.4545
  112OSM   C17S11622   6.190   3.675   8.884  1.0441 -0.5790 -0.5008
  112OSM   H17S11623   6.207   3.570   8.852  1.5007 -0.8735  0.6718
  112OSM   H17T11624   6.296   3.709   8.883  2.0261 -3.5729 -0.8743
  112OSM   C18S11625   6.092   3.730   8.774  0.5714  0.3389  0.1870
  112OSM   H18S11626   5.998   3.673   8.792  0.5381 -0.0351 -1.1463
  112OSM   H18T11627   6.120   3.715   8.668  3.2504  1.0288  0.7610
  112OSM   H18U11628   6.087   3.840   8.786  3.2472  0.4358  0.7048
  112OSM    C1F11629   6.177   3.906  10.211 -0.3157  0.0761 -0.0794
  112OSM     OF11630   6.249   3.996  10.256 -0.4859  0.4201  0.0488
  112OSM    C2F11631   6.079   3.935  10.092 -0.0379 -0.0247  0.0116
  112OSM    H2F11632   6.146   3.919  10.005  1.3931  0.2832  1.0234
  112OSM    H2G11633   6.049   4.042  10.092  0.9671  0.2795 -1.5072
  112OSM    C3F11634   5.962   3.837  10.092 -0.8299  0.2869 -0.2623
  112OSM    H3F11635   5.922   3.813  10.193 -0.0784  2.2657  0.5173
  112OSM    H3G11636   5.988   3.746  10.034  0.9628  0.4689  0.2375
  112OSM    C4F11637   5.837   3.896  10.033  0.1472  0.0058 -0.2482
  112OSM    H4F11638   5.784   3.964  10.103 -1.5573  0.2867 -1.7857
  112OSM    H4G11639   5.772   3.808  10.012  1.1032 -0.5853 -0.8103
  112OSM    C5F11640   5.857   3.973   9.904 -1.0199  0.1821 -0.2177
  112OSM    H5F11641   5.888   4.078   9.924  1.0830 -0.2276 -1.1972
  112OSM    H5G11642   5.759   4.005   9.864 -1.1797 -0.2794 -0.1984
  112OSM    C6F11643   5.930   3.901   9.793  0.0783 -0.1515  0.0606
  112OSM    H6F11644   5.894   3.799   9.767 -0.3252  0.1255 -0.4713
  112OSM    H6G11645   6.039   3.887   9.814  0.5736  3.0638 -0.0704
  112OSM    C7F11646   5.931   3.988   9.664  0.6350 -0.4860 -0.2372
  112OSM    H7F11647   6.029   3.975   9.613  0.2369 -2.5296 -0.5020
  112OSM    H7G11648   5.921   4.097   9.684  0.2414 -0.7172  0.8462
  112OSM    C8F11649   5.820   3.945   9.569 -0.7041  0.2229 -0.0071
  112OSM    H8F11650   5.796   4.033   9.507 -1.9825 -1.9972 -2.7719
  112OSM    H8G11651   5.723   3.921   9.617 -1.2225  0.8361 -0.7444
  112OSM    C9F11652   5.851   3.831   9.479 -0.5253  0.1494 -0.4167
  112OSM    H9F11653   5.839   3.736   9.534  1.3994  0.4097  0.5009
  112OSM   C10F11654   5.872   3.819   9.346 -1.1310  0.5486 -0.5603
  112OSM   H10F11655   5.889   3.720   9.301 -2.2606  1.5599 -3.3288
  112OSM   C11F11656   5.880   3.935   9.252  0.2658 -0.6733 -0.0088
  112OSM   H11F11657   5.983   3.969   9.230 -0.5069  1.4921 -0.4030
  112OSM   H11G11658   5.821   4.024   9.283  1.1712 -0.3524  0.8151
  112OSM   C12F11659   5.831   3.885   9.113 -0.5336 -0.4448  0.1284
  112OSM   H12F11660   5.871   3.786   9.079 -1.7138 -1.1608  0.7778
  112OSM   H12G11661   5.881   3.957   9.045  1.5439 -0.8702  1.1674
  112OSM   C13F11662   5.682   3.886   9.081 -0.1341  0.7078 -0.2553
  112OSM   H13F11663   5.651   3.981   9.129  1.2761  0.1886  1.7347
  112OSM   H13G11664   5.630   3.806   9.136  0.3108 -0.3706 -1.3872
  112OSM   C14F11665   5.640   3.880   8.930  0.1738  0.1095  0.5738
  112OSM   H14F11666   5.677   3.973   8.882 -0.1836 -0.5317 -0.9445
  112OSM   H14G11667   5.529   3.882   8.932  0.1484  0.3721 -0.8947
  112OSM   C15F11668   5.708   3.767   8.856 -0.4305  0.9444 -0.8940
  112OSM   H15F11669   5.698   3.670   8.911 -0.2831  0.9429 -0.8723
  112OSM   H15G11670   5.814   3.799   8.850 -0.7643  2.2737  0.2040
  112OSM   C16F11671   5.648   3.745   8.713 -0.0963 -0.4308 -0.0144
  112OSM   H16F11672   5.696   3.824   8.651  0.0869  0.1857  0.8894
  112OSM   H16G11673   5.538   3.761   8.713 -0.4260 -2.3030  2.3527
  112OSM   C17F11674   5.674   3.603   8.651 -0.2166  0.4007  0.5420
  112OSM   H17F11675   5.767   3.558   8.692  0.0694  3.2078  3.1567
  112OSM   H17G11676   5.695   3.616   8.543  0.1781  2.6528  0.8542
  112OSM   C18F11677   5.559   3.508   8.676 -0.5706  0.9659 -0.1840
  112OSM   H18F11678   5.576   3.419   8.611  1.4092  1.9316 -1.0200
  112OSM   H18G11679   5.462   3.555   8.649 -1.4441 -0.4350  0.4216
  112OSM   H18H11680   5.562   3.489   8.786  0.6473  0.2027 -0.3419
  113OSM      N11681   6.631   1.822  11.058  0.8011 -0.2084 -0.1563
  113OSM    C1511682   6.688   1.774  10.928 -0.6798  0.0556  0.5077
  113OSM   H15A11683   6.753   1.848  10.883 -0.2690 -0.9139 -0.5219
  113OSM   H15B11684   6.613   1.738  10.859  0.3206 -0.2676 -0.4260
  113OSM   H15C11685   6.757   1.693  10.945 -0.4547 -0.9575 -4.4534
  113OSM    C1411686   6.560   1.704  11.113 -0.2644  0.7401  0.2801
  113OSM   H14A11687   6.626   1.625  11.148 -0.8889 -0.4488 -1.1633
  113OSM   H14B11688   6.489   1.664  11.042  0.7165  0.9439 -0.8320
  113OSM   H14C11689   6.506   1.720  11.205 -0.3182 -0.3133  0.4457
  113OSM    C1311690   6.742   1.863  11.158 -0.1454  0.7052  0.4476
  113OSM   H13A11691   6.805   1.777  11.175 -0.4472 -0.0265 -1.9382
  113OSM   H13B11692   6.691   1.897  11.247  0.1494  0.5272  0.6865
  113OSM   H13C11693   6.806   1.944  11.125  1.3641 -0.0672  1.3764
  113OSM    C1211694   6.537   1.937  11.035  0.2650 -0.5584 -0.0391
  113OSM   H12A11695   6.498   1.956  11.134  2.3311 -1.1826  0.9178
  113OSM   H12B11696   6.460   1.920  10.962  1.7928 -0.1557 -1.7574
  113OSM    C1111697   6.599   2.077  11.015  0.5073  0.0369 -0.2927
  113OSM   H11A11698   6.659   2.105  11.105  1.1776 -1.6272 -0.1999
  113OSM   H11B11699   6.514   2.147  11.003 -0.6280 -1.4095 -0.7685
  113OSM      P11700   6.810   2.107  10.864  0.3412 -0.2123  0.3040
  113OSM    O1311701   6.871   2.134  10.990 -0.2098 -0.0975  0.0551
  113OSM    O1411702   6.863   2.003  10.778  0.0230  0.2036  0.7589
  113OSM    O1111703   6.801   2.243  10.788 -0.0842  0.0642 -0.0280
  113OSM    O1211704   6.668   2.063  10.900  0.7631 -0.3217  0.3012
  113OSM    C1S11705   6.747   2.267  10.655 -0.0018  0.4439 -0.1404
  113OSM    H1S11706   6.723   2.170  10.608 -0.9706 -0.0628  1.3674
  113OSM    H1T11707   6.816   2.332  10.598  1.4863 -0.1721  0.9210
  113OSM     NF11708   6.559   2.361  10.530 -0.0155  0.3704 -0.2584
  113OSM    HNF11709   6.581   2.450  10.490  3.0731 -1.0908 -1.9655
  113OSM    C2S11710   6.612   2.346  10.662 -0.5109 -0.0652  0.2155
  113OSM    H2S11711   6.544   2.276  10.716 -1.1213  2.4532  2.8269
  113OSM    C3S11712   6.618   2.474  10.752  0.4377 -0.1450 -0.2286
  113OSM    H3S11713   6.692   2.549  10.717 -0.3702  0.8882  0.2180
  113OSM     O311714   6.654   2.441  10.888  0.0361 -0.5961  0.1444
  113OSM    HO311715   6.705   2.360  10.881  2.1858  0.8815 -1.8590
  113OSM    C4S11716   6.486   2.535  10.761  0.4267  0.5511  0.1847
  113OSM    H4S11717   6.495   2.645  10.754 -0.4006  0.5754 -0.5995
  113OSM    C5S11718   6.366   2.480  10.781 -0.2336  0.4340  0.2302
  113OSM    H5S11719   6.365   2.376  10.817  2.1773  0.1467 -0.4498
  113OSM    C6S11720   6.244   2.566  10.774  0.0731 -0.1734 -0.2287
  113OSM    H6S11721   6.268   2.675  10.771 -2.4154  0.4022 -0.1424
  113OSM    H6T11722   6.186   2.551  10.868  0.7750 -1.9267 -0.0607
  113OSM    C7S11723   6.164   2.530  10.648 -0.2041 -0.5630 -0.4857
  113OSM    H7S11724   6.064   2.575  10.663  1.0889  1.2005  3.2675
  113OSM    H7T11725   6.152   2.420  10.632 -0.6825 -0.3663 -1.5550
  113OSM    C8S11726   6.224   2.574  10.513 -0.2592 -0.2233  0.0483
  113OSM    H8S11727   6.325   2.529  10.505  0.0819  0.3510  1.1708
  113OSM    H8T11728   6.226   2.684  10.519  1.4901 -0.2333 -0.2378
  113OSM    C9S11729   6.141   2.522  10.392 -0.1931 -0.2262 -0.0649
  113OSM    H9S11730   6.040   2.558  10.419  0.6759  1.9326  0.4005
  113OSM    H9T11731   6.145   2.411  10.389 -1.7354 -0.3496  1.7133
  113OSM   C10S11732   6.188   2.585  10.257 -0.7677  0.5065 -0.1399
  113OSM   H10S11733   6.150   2.689  10.266 -1.4026  0.0350  3.2573
  113OSM   H10T11734   6.139   2.527  10.176 -1.5877 -0.8656  1.3171
  113OSM   C11S11735   6.335   2.588  10.228 -0.1871 -0.8969  0.2063
  113OSM   H11S11736   6.352   2.492  10.176 -0.8903 -0.9349  0.0374
  113OSM   H11T11737   6.405   2.605  10.313 -3.2680  0.0325  2.6851
  113OSM   C12S11738   6.365   2.688  10.108 -0.0875 -0.5803 -0.9126
  113OSM   H12S11739   6.391   2.778  10.167  1.2408 -0.4876 -1.6119
  113OSM   H12T11740   6.294   2.709  10.026  0.3240  0.7652 -0.9303
  113OSM   C13S11741   6.494   2.654  10.035  0.5387 -0.6661  0.5239
  113OSM   H13S11742   6.481   2.558   9.979 -0.6416  0.3140 -0.9327
  113OSM   H13T11743   6.563   2.640  10.121  0.1460  1.1748  1.1602
  113OSM   C14S11744   6.556   2.756   9.943 -0.6679  0.3689 -0.5659
  113OSM   H14S11745   6.665   2.758   9.967 -0.2187 -3.3341 -1.9908
  113OSM   H14T11746   6.525   2.860   9.963  2.2128  0.8639  1.7385
  113OSM   C15S11747   6.544   2.723   9.794  0.7239 -0.1953  0.0586
  113OSM   H15S11748   6.555   2.806   9.721  1.6848  0.6645  1.1680
  113OSM   H15T11749   6.440   2.694   9.767  0.5202  1.2550 -0.7541
  113OSM   C16S11750   6.633   2.608   9.737  0.2292 -0.0264  0.0628
  113OSM   H16S11751   6.631   2.525   9.812  1.7760 -1.1415 -1.0986
  113OSM   H16T11752   6.739   2.642   9.742  0.9346 -2.2482  0.7974
  113OSM   C17S11753   6.591   2.558   9.604 -0.1631  0.0572  0.3033
  113OSM   H17S11754   6.600   2.641   9.531 -2.2486  0.1095  0.0676
  113OSM   H17T11755   6.484   2.530   9.589  0.1243 -2.0770  1.9606
  113OSM   C18S11756   6.678   2.445   9.550  0.8922 -0.0883 -0.7563
  113OSM   H18S11757   6.695   2.364   9.624  2.2471  0.9275  0.0560
  113OSM   H18T11758   6.774   2.495   9.526  0.8511  1.0142  1.2959
  113OSM   H18U11759   6.622   2.400   9.465  1.7290  0.0922 -1.4046
  113OSM    C1F11760   6.506   2.267  10.455  0.7791  0.0761 -0.3032
  113OSM     OF11761   6.464   2.171  10.515 -0.0936  0.2799  0.7724
  113OSM    C2F11762   6.490   2.295  10.311 -0.3314 -0.1821  0.3860
  113OSM    H2F11763   6.545   2.390  10.293 -0.8385  0.3328  1.4867
  113OSM    H2G11764   6.382   2.313  10.297  0.0280 -0.3464 -2.9395
  113OSM    C3F11765   6.559   2.196  10.215  0.2612 -0.1744  0.7384
  113OSM    H3F11766   6.538   2.089  10.238  0.1219  0.1964  2.3683
  113OSM    H3G11767   6.669   2.209  10.218  0.3080 -0.5621  0.8098
  113OSM    C4F11768   6.516   2.239  10.076 -0.5878  0.0022  0.2893
  113OSM    H4F11769   6.551   2.344  10.065 -1.0746 -0.1222 -2.9175
  113OSM    H4G11770   6.405   2.240  10.078 -0.5827 -0.7114  1.2887
  113OSM    C5F11771   6.562   2.157   9.962  0.2563 -0.2921 -0.6108
  113OSM    H5F11772   6.543   2.049   9.981  0.7129 -0.2398  0.1491
  113OSM    H5G11773   6.673   2.154   9.947  0.7232  1.8680  2.0461
  113OSM    C6F11774   6.511   2.190   9.826  0.1346 -0.1793 -0.1437
  113OSM    H6F11775   6.564   2.129   9.750 -0.2260 -1.1779  0.4057
  113OSM    H6G11776   6.536   2.297   9.810  1.6862 -0.6551 -1.0149
  113OSM    C7F11777   6.362   2.173   9.807  0.4326 -0.3637 -0.0126
  113OSM    H7F11778   6.314   2.243   9.880 -0.8607  0.3525 -1.5188
  113OSM    H7G11779   6.323   2.072   9.831 -0.1008 -0.2881 -0.5424
  113OSM    C8F11780   6.314   2.212   9.664  0.6102 -0.4086 -0.2639
  113OSM    H8F11781   6.327   2.114   9.614 -2.2517 -2.1244  2.1179
  113OSM    H8G11782   6.370   2.296   9.618  0.0508  0.5442  0.7489
  113OSM    C9F11783   6.164   2.238   9.657  0.3305  0.2455 -0.0144
  113OSM    H9F11784   6.107   2.145   9.657  0.7463 -0.0614 -2.4177
  113OSM   C10F11785   6.103   2.357   9.627 -0.6487 -0.1719 -0.2264
  113OSM   H10F11786   5.993   2.366   9.625 -0.6929 -0.6924 -0.2158
  113OSM   C11F11787   6.173   2.491   9.601  0.0102  0.1350 -0.1682
  113OSM   H11F11788   6.276   2.494   9.641 -1.1564 -0.2982  2.9861
  113OSM   H11G11789   6.132   2.575   9.661 -2.5135 -2.6718  2.2004
  113OSM   C12F11790   6.170   2.546   9.446  0.5963 -0.1811  0.1554
  113OSM   H12F11791   6.226   2.642   9.449  0.3450 -0.0652  1.4141
  113OSM   H12G11792   6.066   2.560   9.410  0.0305  0.4975  2.0181
  113OSM   C13F11793   6.254   2.453   9.348  0.3399  0.1172  0.1316
  113OSM   H13F11794   6.214   2.350   9.348 -2.4602  1.1527  0.6590
  113OSM   H13G11795   6.356   2.453   9.393 -0.1172 -0.4680  1.1883
  113OSM   C14F11796   6.236   2.506   9.206 -0.1048 -0.5895 -0.4807
  113OSM   H14F11797   6.138   2.542   9.167 -0.5126  2.5744  3.1766
  113OSM   H14G11798   6.270   2.421   9.144 -0.1730 -1.3861  0.5688
  113OSM   C15F11799   6.326   2.630   9.183 -0.9444 -0.9158  0.5813
  113OSM   H15F11800   6.303   2.696   9.269  0.2827 -0.4615  0.5672
  113OSM   H15G11801   6.289   2.678   9.089 -1.0201  0.8032  1.4677
  113OSM   C16F11802   6.473   2.592   9.184 -0.2377 -0.1371  0.1314
  113OSM   H16F11803   6.485   2.504   9.118  1.2332  1.4849 -1.8436
  113OSM   H16G11804   6.504   2.561   9.286 -2.0734 -0.6388  0.5459
  113OSM   C17F11805   6.570   2.700   9.136 -0.0042 -0.1949  0.9214
  113OSM   H17F11806   6.548   2.785   9.205 -3.3131  0.7520 -1.1951
  113OSM   H17G11807   6.547   2.733   9.032 -0.0366 -2.5738  0.1515
  113OSM   C18F11808   6.715   2.661   9.133  0.1432 -0.1817  0.1982
  113OSM   H18F11809   6.725   2.588   9.049  1.1758 -0.0363  0.1821
  113OSM   H18G11810   6.753   2.609   9.223 -1.8668 -0.6660  0.7794
  113OSM   H18H11811   6.777   2.744   9.094  3.3445 -2.1400  0.9417
  114OSM      N11812   0.723   0.839  11.687 -0.3436  0.1944 -0.2253
  114OSM    C1511813   0.736   0.698  11.629 -0.1569 -0.7787  0.0052
  114OSM   H15A11814   0.658   0.676  11.558 -0.5880 -0.2929  0.3326
  114OSM   H15B11815   0.717   0.630  11.710  1.6009 -1.4898 -0.1386
  114OSM   H15C11816   0.835   0.682  11.589 -0.8227 -0.5859 -1.7396
  114OSM    C1411817   0.601   0.851  11.774 -0.5929  0.0937  0.7631
  114OSM   H14A11818   0.596   0.762  11.834  1.3750 -1.0251 -0.6592
  114OSM   H14B11819   0.512   0.868  11.715  0.2209  1.4283 -0.1240
  114OSM   H14C11820   0.612   0.940  11.835  1.0203  0.7046 -0.3717
  114OSM    C1311821   0.837   0.854  11.773 -0.1411  0.2015  0.3212
  114OSM   H13A11822   0.933   0.841  11.726 -0.8873 -3.0215 -0.3613
  114OSM   H13B11823   0.840   0.783  11.854  0.0580  0.9193  0.9562
  114OSM   H13C11824   0.828   0.956  11.808 -0.8458 -0.3026  1.6792
  114OSM    C1211825   0.732   0.943  11.573  0.6578  0.2029  0.3223
  114OSM   H12A11826   0.651   0.924  11.504  0.4753  2.6862 -0.2033
  114OSM   H12B11827   0.830   0.933  11.527  0.0468  0.2725 -1.0301
  114OSM    C1111828   0.717   1.098  11.609 -0.3060  0.5200  0.0849
  114OSM   H11A11829   0.647   1.103  11.695 -0.9377  1.9598 -0.5158
  114OSM   H11B11830   0.661   1.140  11.523 -1.6885 -2.5506 -0.5934
  114OSM      P11831   0.943   1.202  11.535  0.0801  0.3156  0.1652
  114OSM    O1311832   1.059   1.277  11.581 -0.3010 -0.7473 -0.1157
  114OSM    O1411833   0.976   1.071  11.473 -0.5497  0.0073  0.2136
  114OSM    O1111834   0.855   1.292  11.451 -0.0875  0.3277  0.2278
  114OSM    O1211835   0.839   1.162  11.646  0.2841 -0.5732  0.0691
  114OSM    C1S11836   0.888   1.373  11.344 -0.5931 -0.0005  0.0801
  114OSM    H1S11837   0.986   1.423  11.362 -0.6593  1.4733 -3.1990
  114OSM    H1T11838   0.808   1.449  11.332  0.7972  1.6953  1.3737
  114OSM     NF11839   0.975   1.370  11.105 -1.1169 -0.1048  0.6608
  114OSM    HNF11840   0.916   1.400  11.030 -1.9847 -1.5969  0.7325
  114OSM    C2S11841   0.898   1.288  11.209  0.0429 -0.2447 -0.5462
  114OSM    H2S11842   0.966   1.200  11.215  0.5791  0.1524 -0.8374
  114OSM    C3S11843   0.754   1.233  11.163  0.4248 -0.5774  0.1248
  114OSM    H3S11844   0.697   1.323  11.133  0.3002 -1.4629 -2.4415
  114OSM     O311845   0.682   1.166  11.269 -0.2291  0.2099 -0.1313
  114OSM    HO311846   0.734   1.189  11.347  0.0392  1.7491 -0.7355
  114OSM    C4S11847   0.771   1.139  11.041  0.0990  0.1534  0.7749
  114OSM    H4S11848   0.813   1.039  11.058 -0.7751 -0.4012 -0.2286
  114OSM    C5S11849   0.738   1.180  10.909  0.2151  0.1729  0.2515
  114OSM    H5S11850   0.736   1.287  10.886  1.3116 -0.3806 -2.6298
  114OSM    C6S11851   0.776   1.094  10.786 -0.3673  0.4181 -0.0486
  114OSM    H6S11852   0.687   1.062  10.728 -0.8256 -0.0385  0.8966
  114OSM    H6T11853   0.841   1.008  10.812  0.1719  1.1300  1.0040
  114OSM    C7S11854   0.864   1.194  10.699  0.1696  1.0867 -0.1838
  114OSM    H7S11855   0.915   1.127  10.627 -0.1896  0.2351  0.3385
  114OSM    H7T11856   0.946   1.243  10.755  0.2828  1.1128 -0.3721
  114OSM    C8S11857   0.787   1.304  10.624  0.5272 -0.4319  0.5605
  114OSM    H8S11858   0.861   1.377  10.585  0.5115 -0.5228  0.3600
  114OSM    H8T11859   0.713   1.353  10.692  0.1773 -0.2104  0.0278
  114OSM    C9S11860   0.697   1.252  10.516 -0.1917  0.3198  0.2620
  114OSM    H9S11861   0.648   1.333  10.458 -0.0412 -0.4011 -0.8857
  114OSM    H9T11862   0.622   1.180  10.552  1.3908 -0.0397  2.9834
  114OSM   C10S11863   0.784   1.177  10.410 -0.7892 -0.1132  0.0113
  114OSM   H10S11864   0.838   1.089  10.453 -2.8127 -0.0625  2.7595
  114OSM   H10T11865   0.860   1.253  10.382 -1.8448  1.6238  1.8176
  114OSM   C11S11866   0.721   1.133  10.277  1.3498  0.7122  0.0057
  114OSM   H11S11867   0.648   1.213  10.252  0.5404  0.0276  0.1501
  114OSM   H11T11868   0.672   1.035  10.293  0.9526  0.6233 -1.6578
  114OSM   C12S11869   0.818   1.122  10.158 -0.1840  0.0766  0.2806
  114OSM   H12S11870   0.911   1.065  10.182 -0.0134  0.1279 -0.2526
  114OSM   H12T11871   0.839   1.227  10.126  1.5659 -0.5002 -0.5312
  114OSM   C13S11872   0.751   1.051  10.033 -0.3959  0.4805 -0.7336
  114OSM   H13S11873   0.676   1.124   9.996  1.1770  2.5391  0.0110
  114OSM   H13T11874   0.691   0.967  10.074 -1.2049  0.9457 -0.9556
  114OSM   C14S11875   0.848   1.001   9.927 -0.1156 -0.1762 -0.1578
  114OSM   H14S11876   0.883   0.903   9.966 -1.3559 -0.7627 -0.4779
  114OSM   H14T11877   0.928   1.077   9.918 -2.3863  1.9639 -3.7190
  114OSM   C15S11878   0.778   0.995   9.792  0.2493 -0.5651 -0.3213
  114OSM   H15S11879   0.707   1.076   9.767 -0.2914 -1.5299 -1.9588
  114OSM   H15T11880   0.709   0.908   9.790  0.5677 -0.7886 -1.9836
  114OSM   C16S11881   0.878   0.987   9.679 -0.2396 -0.4054  0.4112
  114OSM   H16S11882   0.954   0.915   9.716 -1.5181 -1.4250  1.0910
  114OSM   H16T11883   0.934   1.083   9.668 -1.0712  0.0934  0.5151
  114OSM   C17S11884   0.832   0.938   9.539  0.1532  0.1318 -0.6030
  114OSM   H17S11885   0.770   1.014   9.486 -1.6695 -0.9998 -0.1618
  114OSM   H17T11886   0.763   0.851   9.550  0.6380 -0.2978 -0.9221
  114OSM   C18S11887   0.947   0.906   9.432  0.1606 -0.6992 -0.0222
  114OSM   H18S11888   0.921   0.840   9.347 -2.3103 -0.6423  0.6547
  114OSM   H18T11889   1.024   0.845   9.484 -0.4630 -0.7615  0.8349
  114OSM   H18U11890   0.986   1.006   9.405 -3.6714  1.2701  1.3821
  114OSM    C1F11891   1.098   1.413  11.115  0.1271 -0.0850 -0.4384
  114OSM     OF11892   1.172   1.387  11.213  0.3778 -0.1012  0.0028
  114OSM    C2F11893   1.158   1.470  10.990 -0.1788 -0.0369 -0.0016
  114OSM    H2F11894   1.233   1.549  11.015 -0.1437 -0.1852  0.3697
  114OSM    H2G11895   1.074   1.516  10.934 -0.8324 -0.8826  0.2888
  114OSM    C3F11896   1.226   1.372  10.889 -0.7238  0.5700 -0.9131
  114OSM    H3F11897   1.167   1.278  10.880 -0.5131  0.5527 -2.2663
  114OSM    H3G11898   1.329   1.347  10.924 -0.8266 -1.5525 -2.0135
  114OSM    C4F11899   1.233   1.432  10.749  0.4465  0.0971  0.3980
  114OSM    H4F11900   1.291   1.526  10.765 -0.2023  0.4830  0.4975
  114OSM    H4G11901   1.131   1.461  10.715  0.3697  2.1520  2.2711
  114OSM    C5F11902   1.292   1.340  10.641  0.6163  0.3733 -0.1529
  114OSM    H5F11903   1.218   1.258  10.630  1.8817 -0.8288  0.2366
  114OSM    H5G11904   1.382   1.298  10.689  1.3431  0.8889 -1.0548
  114OSM    C6F11905   1.313   1.391  10.499 -0.2872 -0.8488 -0.2565
  114OSM    H6F11906   1.369   1.311  10.446 -0.1840  0.2921 -1.9013
  114OSM    H6G11907   1.382   1.478  10.497  0.2986 -1.2533  1.6780
  114OSM    C7F11908   1.185   1.420  10.429  0.4262 -0.7871  0.2168
  114OSM    H7F11909   1.119   1.487  10.488 -0.9544 -0.7341 -1.3575
  114OSM    H7G11910   1.130   1.324  10.436  0.2737 -0.7078  0.1092
  114OSM    C8F11911   1.191   1.467  10.284  0.0066 -0.3059  0.1201
  114OSM    H8F11912   1.257   1.395  10.230 -0.9888  0.1010 -1.6900
  114OSM    H8G11913   1.252   1.560  10.275 -0.0842 -0.0372  2.0433
  114OSM    C9F11914   1.059   1.476  10.211 -0.5049  0.0869  0.3028
  114OSM    H9F11915   0.998   1.560  10.248  0.1171  1.0211 -0.7551
  114OSM   C10F11916   1.031   1.434  10.085  0.5911  0.7134  0.3488
  114OSM   H10F11917   0.940   1.467  10.033  2.4330  0.9469 -2.8676
  114OSM   C11F11918   1.123   1.367   9.991  0.5515 -0.0709  0.5282
  114OSM   H11F11919   1.073   1.278   9.947 -1.2093  2.5221 -2.9862
  114OSM   H11G11920   1.204   1.317  10.048 -0.1076 -2.6912 -0.7400
  114OSM   C12F11921   1.178   1.457   9.881  0.3297  0.1873  0.0292
  114OSM   H12F11922   1.259   1.404   9.827 -0.9506 -2.2881  0.4578
  114OSM   H12G11923   1.215   1.555   9.920 -0.4523  0.3998  0.2507
  114OSM   C13F11924   1.078   1.485   9.775  0.2357  0.2053 -0.2309
  114OSM   H13F11925   0.993   1.545   9.814 -0.5116 -1.2773  0.4547
  114OSM   H13G11926   1.033   1.391   9.735  1.8465 -0.7822  0.2588
  114OSM   C14F11927   1.147   1.559   9.657  0.1190  0.1533  0.5170
  114OSM   H14F11928   1.210   1.639   9.701  0.2188 -0.5580  1.6888
  114OSM   H14G11929   1.067   1.613   9.603  0.3539 -1.6757 -1.7517
  114OSM   C15F11930   1.218   1.472   9.548  0.5003  0.8707  0.3884
  114OSM   H15F11931   1.158   1.379   9.535  1.7575  0.0044  0.6446
  114OSM   H15G11932   1.308   1.433   9.601 -0.7606 -1.1973  1.0607
  114OSM   C16F11933   1.256   1.560   9.431 -0.0748 -0.1488  0.8551
  114OSM   H16F11934   1.323   1.643   9.460  1.5498 -0.5131 -1.6097
  114OSM   H16G11935   1.170   1.622   9.399  1.6417  1.3105 -1.0781
  114OSM   C17F11936   1.332   1.493   9.312  0.2647  0.0803 -0.5815
  114OSM   H17F11937   1.251   1.462   9.241 -0.8158  1.4441  0.0168
  114OSM   H17G11938   1.375   1.398   9.348 -3.4421 -1.8431 -0.9188
  114OSM   C18F11939   1.439   1.576   9.241 -0.0615  0.4985  0.0126
  114OSM   H18F11940   1.384   1.667   9.211 -0.9661  0.4408  1.4527
  114OSM   H18G11941   1.479   1.527   9.149 -0.0149 -1.1325  0.8714
  114OSM   H18H11942   1.531   1.593   9.302  1.2515 -3.2845 -0.7278
  115OSM      N11943   2.615   4.577   6.209 -0.2596 -0.3184  0.4814
  115OSM    C1511944   2.692   4.700   6.217 -0.7818 -0.2396 -1.1122
  115OSM   H15A11945   2.691   4.734   6.320  0.9473 -0.5815 -0.9653
  115OSM   H15B11946   2.658   4.776   6.148  0.1522  1.6599  0.4532
  115OSM   H15C11947   2.797   4.685   6.196  0.0349  1.4346  1.4251
  115OSM    C1411948   2.592   4.530   6.065  0.0694 -0.2626 -0.3019
  115OSM   H14A11949   2.508   4.462   6.072 -0.7794  0.8519  0.5761
  115OSM   H14B11950   2.677   4.474   6.031 -2.4850 -2.0125 -4.1492
  115OSM   H14C11951   2.578   4.610   5.994  1.4671 -0.6985 -1.0799
  115OSM    C1311952   2.700   4.465   6.276 -0.1564 -0.3192  0.3045
  115OSM   H13A11953   2.761   4.414   6.203 -0.4894  1.6745 -1.3970
  115OSM   H13B11954   2.627   4.400   6.321 -0.7150  0.2100  0.1793
  115OSM   H13C11955   2.756   4.492   6.365 -0.6063  0.4474  0.3654
  115OSM    C1211956   2.480   4.584   6.280  0.4064  0.1540  0.6520
  115OSM   H12A11957   2.501   4.588   6.386  1.7124 -0.6970  0.4286
  115OSM   H12B11958   2.422   4.494   6.267  0.3190  0.0319  1.8207
  115OSM    C1111959   2.395   4.707   6.236 -0.0755  0.3857 -0.5137
  115OSM   H11A11960   2.292   4.681   6.269  0.2207  0.0971  0.1975
  115OSM   H11B11961   2.384   4.711   6.125 -0.6149  1.2847 -0.4337
  115OSM      P11962   2.393   4.965   6.230  0.1520  0.0373  0.1306
  115OSM    O1311963   2.485   5.079   6.258 -0.6872  0.0046  0.2244
  115OSM    O1411964   2.345   4.942   6.089 -0.4200 -0.3723  0.2606
  115OSM    O1111965   2.262   4.997   6.308  0.5225  0.8419  0.5158
  115OSM    O1211966   2.444   4.826   6.291 -0.0272  0.3320 -0.4764
  115OSM    C1S11967   2.266   4.989   6.454 -0.1590  0.1510 -0.4006
  115OSM    H1S11968   2.362   5.023   6.497  0.4060 -1.0400 -0.6972
  115OSM    H1T11969   2.251   4.882   6.481 -0.0265  0.4762  0.9718
  115OSM     NF11970   2.169   5.030   6.667 -0.4060 -0.5223  0.5313
  115OSM    HNF11971   2.110   4.961   6.709  0.7745 -1.5589  0.5133
  115OSM    C2S11972   2.146   5.058   6.528  0.2790  0.2462  0.3258
  115OSM    H2S11973   2.146   5.169   6.517 -0.4748  0.1612 -0.6063
  115OSM    C3S11974   2.006   5.023   6.466 -0.0980  0.4082 -0.2038
  115OSM    H3S11975   2.013   4.914   6.450  2.0083  0.4923 -0.0510
  115OSM     O311976   1.970   5.094   6.343 -0.1215  0.7444  0.2930
  115OSM    HO311977   2.052   5.088   6.293  0.8598 -0.1548  1.9802
  115OSM    C4S11978   1.896   5.062   6.567 -0.8511  0.2967 -0.7058
  115OSM    H4S11979   1.919   5.162   6.606 -1.2499 -0.3330  1.1994
  115OSM    C5S11980   1.783   4.994   6.602  0.0484 -0.2698  0.3457
  115OSM    H5S11981   1.778   4.894   6.558  1.6332 -0.2344  0.0457
  115OSM    C6S11982   1.695   5.056   6.708  0.3676  0.8571 -0.4576
  115OSM    H6S11983   1.591   5.034   6.675  0.1828 -1.1235  1.3607
  115OSM    H6T11984   1.712   5.165   6.723  0.8892  1.3870 -4.3859
  115OSM    C7S11985   1.689   4.981   6.840 -0.0391 -0.0482  0.0354
  115OSM    H7S11986   1.652   4.876   6.831 -2.6531  0.9234 -0.7995
  115OSM    H7T11987   1.616   5.034   6.904  1.4518  1.4906  0.4966
  115OSM    C8S11988   1.832   4.958   6.912 -0.6647 -0.0306 -0.1500
  115OSM    H8S11989   1.879   5.055   6.939 -0.3257 -0.1448 -0.3282
  115OSM    H8T11990   1.910   4.919   6.844  0.3413 -0.1262  1.0474
  115OSM    C9S11991   1.829   4.856   7.021  0.7156  1.3078 -0.4532
  115OSM    H9S11992   1.808   4.754   6.983 -0.2231  1.9010 -1.5471
  115OSM    H9T11993   1.742   4.878   7.087  0.7291 -0.3306  0.1188
  115OSM   C10S11994   1.962   4.847   7.097 -0.2812 -0.4137  0.1234
  115OSM   H10S11995   1.979   4.947   7.143  0.1533 -0.1507 -0.6010
  115OSM   H10T11996   2.043   4.828   7.024 -0.4555  1.6954 -0.6726
  115OSM   C11S11997   1.970   4.749   7.220  0.2305  0.9445  0.4351
  115OSM   H11S11998   1.941   4.644   7.201  4.8073 -0.3623  0.0875
  115OSM   H11T11999   1.894   4.793   7.288 -0.3844 -0.7121  0.8522
  115OSM   C12S12000   2.101   4.761   7.294  0.4656 -0.7026 -0.0118
  115OSM   H12S12001   2.122   4.870   7.300 -5.5919  0.6508 -0.1122
  115OSM   H12T12002   2.189   4.714   7.246  0.5761 -0.7254  0.2157
  115OSM   C13S12003   2.092   4.697   7.432 -0.1355 -0.9262  0.6011
  115OSM   H13S12004   2.078   4.587   7.431  2.5700 -1.3103  0.6829
  115OSM   H13T12005   1.996   4.729   7.478 -0.5561 -0.7864 -0.3641
  115OSM   C14S12006   2.211   4.742   7.528 -0.6467  0.3901  0.2536
  115OSM   H14S12007   2.222   4.852   7.531 -0.8921  0.3884  1.5796
  115OSM   H14T12008   2.309   4.705   7.491 -0.4683  1.0729  0.0391
  115OSM   C15S12009   2.206   4.698   7.671  0.5453  0.7630 -0.8443
  115OSM   H15S12010   2.214   4.587   7.669  0.5052  0.7281  0.4557
  115OSM   H15T12011   2.109   4.730   7.714  0.3008  0.8856 -1.4928
  115OSM   C16S12012   2.326   4.770   7.738  0.6542  0.7631  0.3970
  115OSM   H16S12013   2.330   4.878   7.715  0.1476  0.3610 -1.7008
  115OSM   H16T12014   2.418   4.723   7.698 -0.7520 -1.7524 -0.0594
  115OSM   C17S12015   2.318   4.768   7.895  0.5839 -0.1499  0.2769
  115OSM   H17S12016   2.335   4.669   7.943 -0.2581  0.0756  1.0412
  115OSM   H17T12017   2.215   4.791   7.929  1.3583  3.1169  0.6076
  115OSM   C18S12018   2.413   4.868   7.960  0.3412 -0.2223  0.0597
  115OSM   H18S12019   2.404   4.845   8.069  0.6694  1.0389  0.3606
  115OSM   H18T12020   2.397   4.977   7.944 -4.1111 -0.7786  0.1889
  115OSM   H18U12021   2.513   4.836   7.924  0.2864  1.3794 -1.6077
  115OSM    C1F12022   2.263   5.096   6.747 -0.1160  0.6606  0.7046
  115OSM     OF12023   2.316   5.202   6.709  0.4971  0.0727 -0.2654
  115OSM    C2F12024   2.290   5.032   6.880 -0.0108 -0.2458 -0.1969
  115OSM    H2F12025   2.356   4.944   6.868 -0.4757 -0.7092  0.5611
  115OSM    H2G12026   2.192   4.995   6.917  0.4746  0.2938  1.6815
  115OSM    C3F12027   2.351   5.119   6.992  0.2665 -0.1706 -0.2586
  115OSM    H3F12028   2.287   5.206   7.018  0.5476  0.0871 -0.4256
  115OSM    H3G12029   2.455   5.149   6.968  0.5889 -0.4569  0.7663
  115OSM    C4F12030   2.370   5.033   7.124  0.7433 -1.0052  0.5978
  115OSM    H4F12031   2.445   4.956   7.095 -0.5537 -1.4562 -1.6239
  115OSM    H4G12032   2.273   4.983   7.143  0.7648 -1.7972 -1.2481
  115OSM    C5F12033   2.421   5.113   7.242 -0.1309  0.3057 -1.0657
  115OSM    H5F12034   2.366   5.207   7.266 -2.1804 -0.5873 -2.1570
  115OSM    H5G12035   2.528   5.129   7.216 -0.0680 -0.6379 -1.4015
  115OSM    C6F12036   2.419   5.013   7.357  0.1937 -0.7401  0.2073
  115OSM    H6F12037   2.467   4.917   7.328  0.9261 -0.9275  1.9916
  115OSM    H6G12038   2.316   4.982   7.383 -0.0943 -1.4200 -1.6356
  115OSM    C7F12039   2.488   5.062   7.482 -0.2773 -0.2327 -0.3911
  115OSM    H7F12040   2.592   5.093   7.456 -0.3608  0.3862 -0.0055
  115OSM    H7G12041   2.493   4.970   7.544 -0.0555 -0.8913 -1.3797
  115OSM    C8F12042   2.416   5.172   7.564  0.4668  0.3263 -0.9441
  115OSM    H8F12043   2.409   5.266   7.505  0.0352  0.9987  0.1607
  115OSM    H8G12044   2.492   5.187   7.644 -0.0809 -1.3457 -0.0915
  115OSM    C9F12045   2.278   5.148   7.624  0.1194 -0.5010 -0.6811
  115OSM    H9F12046   2.278   5.058   7.688  2.1907  0.6888  1.0683
  115OSM   C10F12047   2.165   5.225   7.603  0.1030 -0.5848  0.0416
  115OSM   H10F12048   2.071   5.200   7.653 -0.4348  1.2652  0.0107
  115OSM   C11F12049   2.140   5.353   7.525  0.0940  0.6319 -0.1689
  115OSM   H11F12050   2.227   5.386   7.465  0.6861  0.4972  0.6030
  115OSM   H11G12051   2.106   5.436   7.590  0.9204  0.4793  0.4625
  115OSM   C12F12052   2.028   5.329   7.418 -0.1492 -0.5074  0.1720
  115OSM   H12F12053   1.927   5.309   7.459  1.0886 -3.0721  2.1237
  115OSM   H12G12054   2.057   5.239   7.358 -1.0690  0.3618 -1.6143
  115OSM   C13F12055   2.029   5.446   7.320  0.4835 -0.8754 -0.0917
  115OSM   H13F12056   2.112   5.443   7.246 -1.0582  0.4834 -1.9279
  115OSM   H13G12057   2.041   5.545   7.368  0.1428 -0.4766 -0.8223
  115OSM   C14F12058   1.897   5.435   7.236  0.4742  0.8117  0.6893
  115OSM   H14F12059   1.814   5.479   7.295 -0.3276 -1.3850  1.2589
  115OSM   H14G12060   1.887   5.325   7.220 -0.3201  0.9775  0.0545
  115OSM   C15F12061   1.887   5.506   7.103  0.2315 -0.7047  0.0260
  115OSM   H15F12062   1.882   5.617   7.101 -0.7141 -0.7227  1.0159
  115OSM   H15G12063   1.788   5.482   7.058  0.7357 -1.3742 -0.7506
  115OSM   C16F12064   1.983   5.445   6.993 -0.4884  0.1737  0.5287
  115OSM   H16F12065   2.007   5.337   7.006  0.4064  0.3051  0.0413
  115OSM   H16G12066   2.086   5.485   7.006  0.3302 -1.4610 -0.7088
  115OSM   C17F12067   1.936   5.474   6.853  0.1565  0.3983  0.1010
  115OSM   H17F12068   1.917   5.583   6.837  0.5805  0.3639 -0.6384
  115OSM   H17G12069   1.846   5.413   6.835 -0.4601  1.4219 -0.2921
  115OSM   C18F12070   2.043   5.438   6.754 -0.2943 -0.7084 -0.0613
  115OSM   H18F12071   2.128   5.501   6.787  0.3101 -2.7996  2.5153
  115OSM   H18G12072   2.006   5.457   6.651  1.2262 -2.2532 -0.9150
  115OSM   H18H12073   2.077   5.334   6.769  5.2523  1.0561  1.0624
  116OSM      N12074   1.554   3.017   6.144  0.6932 -0.1683  0.1568
  116OSM    C1512075   1.505   3.066   6.010  0.4692 -0.3500 -0.5720
  116OSM   H15A12076   1.587   3.106   5.951  0.1680  0.4020 -0.4842
  116OSM   H15B12077   1.437   3.148   6.024  1.2561  0.0605  1.0695
  116OSM   H15C12078   1.456   2.983   5.961  0.9332 -0.4676 -0.8395
  116OSM    C1412079   1.633   2.892   6.121 -0.5287 -0.2849  0.9532
  116OSM   H14A12080   1.679   2.864   6.214 -0.0155 -0.6056  0.6060
  116OSM   H14B12081   1.711   2.908   6.049 -0.0337 -1.6859  1.1620
  116OSM   H14C12082   1.577   2.812   6.074  3.0186 -1.0176 -2.2464
  116OSM    C1312083   1.649   3.118   6.203  0.3833  0.1951  0.0261
  116OSM   H13A12084   1.733   3.112   6.135 -0.0606 -0.3394 -0.4831
  116OSM   H13B12085   1.682   3.082   6.299 -1.3975 -0.4291  0.4171
  116OSM   H13C12086   1.623   3.223   6.209 -0.4421  0.0478 -0.8277
  116OSM    C1212087   1.433   2.987   6.230  0.1863 -0.2784  1.0652
  116OSM   H12A12088   1.355   2.947   6.168  1.9281 -3.0399  0.5738
  116OSM   H12B12089   1.387   3.076   6.271  0.5212  1.5828 -2.4161
  116OSM    C1112090   1.450   2.890   6.353 -0.4536 -0.0549  0.0114
  116OSM   H11A12091   1.366   2.901   6.424  2.5568 -1.5692  4.0019
  116OSM   H11B12092   1.548   2.915   6.399  0.0508 -2.0361  0.0770
  116OSM      P12093   1.324   2.671   6.281 -0.1634  0.4410  0.1118
  116OSM    O1312094   1.235   2.747   6.191  0.3706 -0.3125  0.0463
  116OSM    O1412095   1.368   2.538   6.231 -0.6286 -0.2141 -1.2861
  116OSM    O1112096   1.263   2.646   6.423 -0.2230  0.0243  0.3829
  116OSM    O1212097   1.452   2.754   6.305 -0.1318 -0.5089 -0.4393
  116OSM    C1S12098   1.334   2.560   6.514 -0.8025 -0.3803 -0.3163
  116OSM    H1S12099   1.444   2.551   6.501 -0.6981 -1.1592  1.1095
  116OSM    H1T12100   1.296   2.456   6.513 -0.2857 -0.5800  0.3755
  116OSM     NF12101   1.400   2.538   6.745  0.0436 -0.2301 -0.3900
  116OSM    HNF12102   1.364   2.465   6.803 -1.7278  1.3598  0.5471
  116OSM    C2S12103   1.312   2.611   6.663 -0.3345 -0.5337  0.3776
  116OSM    H2S12104   1.350   2.715   6.669  0.3183 -0.8918  2.6365
  116OSM    C3S12105   1.167   2.603   6.703 -0.0049  0.6674  0.0305
  116OSM    H3S12106   1.135   2.497   6.702  1.8957  0.0374  2.5360
  116OSM     O312107   1.085   2.672   6.614  0.1255  0.3160  0.0436
  116OSM    HO312108   1.144   2.702   6.545 -1.1158 -1.4672 -1.8559
  116OSM    C4S12109   1.151   2.655   6.841  0.8867  0.1347 -0.2299
  116OSM    H4S12110   1.136   2.763   6.851 -0.0407 -0.1047  1.0715
  116OSM    C5S12111   1.131   2.579   6.956  0.2636 -0.1816 -0.3181
  116OSM    H5S12112   1.130   2.470   6.940 -0.4890 -0.1927 -0.1954
  116OSM    C6S12113   1.109   2.621   7.101 -0.9755  0.2034 -0.4910
  116OSM    H6S12114   1.203   2.623   7.160 -1.4008 -2.7765  0.3751
  116OSM    H6T12115   1.042   2.545   7.146 -1.0585  1.1191  0.9454
  116OSM    C7S12116   1.046   2.762   7.116 -0.6187  0.4027 -0.1201
  116OSM    H7S12117   0.968   2.779   7.038 -1.8159  1.7386  1.3369
  116OSM    H7T12118   1.130   2.829   7.089  1.4960 -1.6645  1.1772
  116OSM    C8S12119   1.002   2.804   7.259  0.1859  0.1559 -0.0415
  116OSM    H8S12120   1.096   2.781   7.314 -0.4622  0.1787  1.0958
  116OSM    H8T12121   0.927   2.733   7.301 -1.5723  2.1366  0.2414
  116OSM    C9S12122   0.929   2.940   7.263 -0.0529  0.0714  0.6383
  116OSM    H9S12123   0.841   2.931   7.196  1.6041 -0.5991 -1.5265
  116OSM    H9T12124   1.001   3.012   7.218  0.9937 -0.0421  2.0908
  116OSM   C10S12125   0.894   2.971   7.406  0.3722 -0.1205  0.0026
  116OSM   H10S12126   0.804   2.911   7.427  0.8030 -1.3197 -1.5428
  116OSM   H10T12127   0.865   3.077   7.426 -0.2777 -0.4169  0.6420
  116OSM   C11S12128   1.015   2.940   7.507  0.4078 -0.2820 -0.0147
  116OSM   H11S12129   1.110   2.973   7.458  0.1394 -1.2899 -1.2417
  116OSM   H11T12130   1.020   2.832   7.530 -0.8511 -0.0259  1.5239
  116OSM   C12S12131   0.988   3.005   7.645 -0.1189 -0.0938  0.7429
  116OSM   H12S12132   0.881   2.980   7.663 -0.1293 -1.2550 -0.7786
  116OSM   H12T12133   0.995   3.115   7.638 -0.5019 -0.1787 -1.6231
  116OSM   C13S12134   1.077   2.959   7.763  0.2085 -0.3050 -0.1193
  116OSM   H13S12135   1.183   2.990   7.749  0.8589 -1.7268  1.4498
  116OSM   H13T12136   1.069   2.849   7.752 -2.6858 -0.1129 -0.3498
  116OSM   C14S12137   1.023   2.999   7.900  0.0600  0.0889 -0.5691
  116OSM   H14S12138   0.942   3.074   7.894  1.7342  2.0560  0.9173
  116OSM   H14T12139   1.116   3.027   7.954 -0.6183  0.0602  0.6117
  116OSM   C15S12140   0.962   2.879   7.974  1.0030 -1.2763  0.5890
  116OSM   H15S12141   1.035   2.796   7.984  2.1984 -0.5772 -1.7930
  116OSM   H15T12142   0.878   2.856   7.905 -1.6744  1.9992  2.5864
  116OSM   C16S12143   0.900   2.931   8.106 -0.4866  1.0349  0.2501
  116OSM   H16S12144   0.836   2.852   8.150  0.7538  0.7140  1.5204
  116OSM   H16T12145   0.825   3.011   8.088 -0.1996  1.1647 -0.3802
  116OSM   C17S12146   1.004   2.977   8.209  0.1885  0.0739 -0.1602
  116OSM   H17S12147   0.948   3.014   8.298  0.0304  1.5493 -0.8545
  116OSM   H17T12148   1.062   3.060   8.164 -0.0686 -0.0510 -0.7327
  116OSM   C18S12149   1.095   2.863   8.265 -0.7526 -0.1650  0.2278
  116OSM   H18S12150   1.173   2.914   8.326 -1.7266  2.0188 -0.3070
  116OSM   H18T12151   1.153   2.815   8.183  0.9253  0.0583  1.2515
  116OSM   H18U12152   1.035   2.800   8.334 -1.7616  1.4461  0.8485
  116OSM    C1F12153   1.535   2.548   6.741  0.5727 -0.1453 -0.3876
  116OSM     OF12154   1.591   2.646   6.688 -0.4361 -0.2564  0.1341
  116OSM    C2F12155   1.616   2.444   6.810 -0.9279  0.7176  0.1208
  116OSM    H2F12156   1.672   2.388   6.732 -0.0483  1.9942 -0.1988
  116OSM    H2G12157   1.547   2.366   6.848  0.6282 -0.8021 -0.1000
  116OSM    C3F12158   1.719   2.512   6.904  0.1202 -1.1391 -0.0364
  116OSM    H3F12159   1.674   2.589   6.971  2.4470 -0.0268  0.3075
  116OSM    H3G12160   1.796   2.565   6.844 -0.8383  0.0988 -0.1817
  116OSM    C4F12161   1.781   2.409   6.990 -1.4163  0.3664 -0.2996
  116OSM    H4F12162   1.850   2.350   6.926  0.4807 -0.6017  2.5526
  116OSM    H4G12163   1.705   2.340   7.034 -0.8471 -0.6925 -0.9675
  116OSM    C5F12164   1.864   2.450   7.112 -0.2162 -0.8419 -0.3623
  116OSM    H5F12165   1.958   2.496   7.076  0.9833 -0.8527  2.6370
  116OSM    H5G12166   1.902   2.359   7.164 -0.3091 -1.3090 -1.0957
  116OSM    C6F12167   1.799   2.549   7.211  0.4784 -0.2735  0.4363
  116OSM    H6F12168   1.706   2.502   7.247  0.5279  0.2481  1.2456
  116OSM    H6G12169   1.769   2.652   7.180  1.7978  0.0580  0.2434
  116OSM    C7F12170   1.893   2.555   7.332 -0.1030  0.7332 -0.4060
  116OSM    H7F12171   1.998   2.577   7.303 -0.0016  2.1999  0.9926
  116OSM    H7G12172   1.901   2.451   7.370  0.9527  0.4291 -1.4195
  116OSM    C8F12173   1.842   2.650   7.436  0.3535 -0.2229 -0.1955
  116OSM    H8F12174   1.743   2.619   7.475  0.9529  0.0405  1.5399
  116OSM    H8G12175   1.829   2.750   7.388  0.7579 -0.5137 -0.9198
  116OSM    C9F12176   1.936   2.676   7.556  0.5527 -1.0425 -0.2772
  116OSM    H9F12177   2.023   2.738   7.528 -1.4613  0.4390 -3.5514
  116OSM   C10F12178   1.906   2.638   7.682  0.5052 -0.0870 -0.0810
  116OSM   H10F12179   1.981   2.667   7.757  0.2377  1.3333 -0.3621
  116OSM   C11F12180   1.783   2.566   7.734 -0.1797  0.4368  0.2049
  116OSM   H11F12181   1.760   2.471   7.682  0.2619  0.4607 -0.0407
  116OSM   H11G12182   1.697   2.635   7.721  0.2802  0.8892 -0.4961
  116OSM   C12F12183   1.778   2.527   7.883  0.4233 -0.0767  0.0185
  116OSM   H12F12184   1.867   2.464   7.907 -0.8245 -1.8225  0.1897
  116OSM   H12G12185   1.684   2.468   7.892  0.2837  0.0523 -0.6255
  116OSM   C13F12186   1.797   2.645   7.983 -0.1271  0.0447  0.4223
  116OSM   H13F12187   1.697   2.695   7.985 -0.0179  0.2119  1.6281
  116OSM   H13G12188   1.872   2.715   7.940 -1.7266 -0.5530 -3.6372
  116OSM   C14F12189   1.837   2.594   8.115 -0.2850 -0.2750  0.2057
  116OSM   H14F12190   1.946   2.570   8.123 -0.1263  0.4388  0.2184
  116OSM   H14G12191   1.783   2.499   8.137  1.6516 -1.8974 -1.7761
  116OSM   C15F12192   1.795   2.697   8.224 -1.0815  0.3173 -0.5909
  116OSM   H15F12193   1.691   2.733   8.214 -1.3916 -0.4274 -0.0857
  116OSM   H15G12194   1.854   2.791   8.217 -1.1101  0.3411 -0.5155
  116OSM   C16F12195   1.802   2.632   8.361 -0.4826 -0.0126 -0.4323
  116OSM   H16F12196   1.901   2.583   8.372  0.0879  1.0763 -0.6630
  116OSM   H16G12197   1.724   2.553   8.376 -0.7165 -0.1970 -2.4179
  116OSM   C17F12198   1.797   2.736   8.477 -0.0207 -0.3590 -0.2631
  116OSM   H17F12199   1.706   2.797   8.459  0.0327  0.3980  1.9424
  116OSM   H17G12200   1.877   2.813   8.471 -0.0661 -0.2941 -0.0151
  116OSM   C18F12201   1.800   2.669   8.611 -0.0375 -0.0703 -0.0365
  116OSM   H18F12202   1.773   2.740   8.692  1.2818 -0.9179  1.1632
  116OSM   H18G12203   1.899   2.623   8.633  0.3872  0.3920 -0.9528
  116OSM   H18H12204   1.725   2.587   8.610  1.7026 -1.7114 -0.0014
  117OSM      N12205   0.119   4.275   6.173  0.5322 -0.3652  0.1636
  117OSM    C1512206   0.174   4.134   6.171  0.1773 -0.4228 -0.5926
  117OSM   H15A12207   0.187   4.103   6.274  1.0437  1.3813 -0.1433
  117OSM   H15B12208   0.256   4.127   6.101  0.4043 -0.9815 -0.2717
  117OSM   H15C12209   0.096   4.068   6.136 -0.1908 -0.3229  0.0417
  117OSM    C1412210   0.215   4.358   6.256 -0.5480 -0.1418  0.7709
  117OSM   H14A12211   0.315   4.323   6.234 -0.3316  1.5019 -1.0079
  117OSM   H14B12212   0.191   4.336   6.359 -1.8835  3.9230  1.4122
  117OSM   H14C12213   0.201   4.465   6.257 -0.0354 -0.0670  0.4495
  117OSM    C1312214   0.112   4.340   6.035  0.3043 -0.5285  0.1886
  117OSM   H13A12215   0.051   4.276   5.972 -2.6997  0.5739  1.8627
  117OSM   H13B12216   0.206   4.358   5.985  0.9512  0.8579  1.8416
  117OSM   H13C12217   0.063   4.436   6.036  1.7477  0.2340 -0.3759
  117OSM    C1212218  -0.020   4.278   6.231 -0.3972  0.1139 -0.4622
  117OSM   H12A12219  -0.014   4.244   6.333  0.3988  0.6847 -0.3171
  117OSM   H12B12220  -0.092   4.218   6.178 -0.1406 -1.7722  1.2875
  117OSM    C1112221  -0.092   4.421   6.229  1.0000  0.1046  0.1810
  117OSM   H11A12222  -0.090   4.466   6.128 -0.9759  0.0343  0.0866
  117OSM   H11B12223  -0.023   4.469   6.302  0.4200 -1.0165  1.5067
  117OSM      P12224  -0.310   4.554   6.305 -0.3779  0.3113  0.1261
  117OSM    O1312225  -0.251   4.653   6.207 -0.3159  0.2823 -0.3675
  117OSM    O1412226  -0.453   4.511   6.293 -0.7842  0.2795  0.1868
  117OSM    O1112227  -0.278   4.607   6.457  0.1644 -0.4293  0.0328
  117OSM    O1212228  -0.219   4.421   6.294  0.2871 -0.3356 -0.6281
  117OSM    C1S12229  -0.283   4.502   6.553 -0.4586 -0.0670  0.3485
  117OSM    H1S12230  -0.177   4.470   6.563  0.2092  0.7431 -3.2633
  117OSM    H1T12231  -0.340   4.410   6.529 -0.3729 -0.6665  2.3439
  117OSM     NF12232  -0.341   4.431   6.775  0.3305 -0.4334  0.2043
  117OSM    HNF12233  -0.423   4.377   6.791  0.1633  0.7538  3.8054
  117OSM    C2S12234  -0.348   4.545   6.686 -0.4532  0.4858 -0.7823
  117OSM    H2S12235  -0.282   4.623   6.728  0.7700  0.1610 -2.0524
  117OSM    C3S12236  -0.494   4.600   6.666 -1.6709 -0.2757 -0.6668
  117OSM    H3S12237  -0.547   4.508   6.635 -2.6712 -0.2638  0.9771
  117OSM     O312238  -0.507   4.696   6.559 -0.1095  0.3047  0.4467
  117OSM    HO312239  -0.439   4.663   6.501  0.9111  0.1519  1.6976
  117OSM    C4S12240  -0.551   4.648   6.803 -0.6965  0.4649 -0.1277
  117OSM    H4S12241  -0.581   4.565   6.868 -1.0058  0.6902  0.0125
  117OSM    C5S12242  -0.559   4.766   6.861  0.3364 -0.6832  0.1269
  117OSM    H5S12243  -0.529   4.851   6.798 -1.0804  0.1224  0.5148
  117OSM    C6S12244  -0.618   4.799   7.000 -1.2074  0.3449  0.5163
  117OSM    H6S12245  -0.679   4.892   7.000 -3.6781 -1.2266 -0.6029
  117OSM    H6T12246  -0.533   4.827   7.066  1.3866 -0.8597 -2.1893
  117OSM    C7S12247  -0.709   4.701   7.083  0.4616 -0.4859  0.9066
  117OSM    H7S12248  -0.672   4.597   7.075  1.2551 -0.1022 -0.6627
  117OSM    H7T12249  -0.811   4.711   7.040  0.9223 -0.2231 -0.1430
  117OSM    C8S12250  -0.709   4.734   7.231  0.7130 -0.1525  1.1290
  117OSM    H8S12251  -0.797   4.683   7.275  0.8091 -2.0326 -0.8151
  117OSM    H8T12252  -0.727   4.842   7.252  2.2311  0.1039  1.1866
  117OSM    C9S12253  -0.581   4.690   7.305 -0.4237  0.0843 -0.4417
  117OSM    H9S12254  -0.497   4.761   7.294 -0.7490  0.4888 -0.3269
  117OSM    H9T12255  -0.547   4.590   7.270 -0.5714  0.9909 -3.2579
  117OSM   C10S12256  -0.623   4.671   7.455 -1.0410  0.0069 -0.4979
  117OSM   H10S12257  -0.660   4.768   7.496 -0.3619  0.2718 -0.5094
  117OSM   H10T12258  -0.524   4.653   7.501 -0.1091  3.9216 -0.7704
  117OSM   C11S12259  -0.713   4.557   7.500  0.0553 -0.3762  0.2729
  117OSM   H11S12260  -0.660   4.461   7.517  1.8156  0.6075  0.4756
  117OSM   H11T12261  -0.798   4.559   7.429 -0.9695 -1.0877  1.4644
  117OSM   C12S12262  -0.785   4.596   7.636 -0.7644 -0.6443  0.5712
  117OSM   H12S12263  -0.851   4.682   7.610 -1.7118 -0.9795  1.8068
  117OSM   H12T12264  -0.713   4.641   7.708  0.5539  0.7301 -1.5512
  117OSM   C13S12265  -0.875   4.480   7.689 -0.5549 -0.0425 -0.6819
  117OSM   H13S12266  -0.971   4.467   7.634 -0.9475  1.1352 -0.2994
  117OSM   H13T12267  -0.911   4.501   7.792 -0.9711 -3.1017 -0.1498
  117OSM   C14S12268  -0.798   4.347   7.689  0.2092 -0.2109  0.3118
  117OSM   H14S12269  -0.694   4.368   7.722  0.2451  0.7285 -0.4018
  117OSM   H14T12270  -0.787   4.312   7.584 -2.9337  0.2633 -0.2139
  117OSM   C15S12271  -0.869   4.247   7.782 -0.0954  0.7968  0.0687
  117OSM   H15S12272  -0.973   4.234   7.744  0.6190  0.0351 -1.6834
  117OSM   H15T12273  -0.884   4.298   7.879  1.2734 -0.1465  0.7847
  117OSM   C16S12274  -0.796   4.118   7.802  0.1912  0.2730 -0.2403
  117OSM   H16S12275  -0.698   4.147   7.845  0.5193 -0.2503 -0.6233
  117OSM   H16T12276  -0.782   4.059   7.709 -4.4855  0.2441 -1.0471
  117OSM   C17S12277  -0.857   4.025   7.907  0.5226 -0.0945  0.1398
  117OSM   H17S12278  -0.963   3.997   7.888  0.3412  0.3716  0.4520
  117OSM   H17T12279  -0.847   4.079   8.003  0.6364  0.7868 -0.3679
  117OSM   C18S12280  -0.759   3.899   7.919 -0.6020 -1.0807  0.2229
  117OSM   H18S12281  -0.779   3.844   8.013 -2.0446 -0.9992 -0.0304
  117OSM   H18T12282  -0.651   3.924   7.915 -0.9829  0.6222  0.3790
  117OSM   H18U12283  -0.794   3.827   7.841  0.4588 -1.3363 -0.0249
  117OSM    C1F12284  -0.229   4.383   6.824  0.4172  0.5713  0.6710
  117OSM     OF12285  -0.127   4.447   6.798  0.8313 -0.1702  0.5625
  117OSM    C2F12286  -0.240   4.249   6.899 -0.5774 -0.0855 -0.3671
  117OSM    H2F12287  -0.196   4.162   6.845 -1.8502 -1.1041  0.2179
  117OSM    H2G12288  -0.342   4.217   6.927 -0.6558  0.0757 -0.4695
  117OSM    C3F12289  -0.168   4.264   7.034 -0.1347 -0.3018  0.3183
  117OSM    H3F12290  -0.218   4.340   7.097  0.8728  1.1282 -0.5724
  117OSM    H3G12291  -0.060   4.291   7.025  0.2106 -0.0843  4.1615
  117OSM    C4F12292  -0.178   4.142   7.124 -0.2027  0.0538  0.4664
  117OSM    H4F12293  -0.139   4.055   7.069 -1.4095 -1.1050  1.3854
  117OSM    H4G12294  -0.288   4.124   7.135 -0.0451 -1.1878  0.0516
  117OSM    C5F12295  -0.121   4.166   7.267  0.0576 -0.1196  0.1570
  117OSM    H5F12296  -0.133   4.070   7.323  0.7751 -0.6055 -0.5050
  117OSM    H5G12297  -0.174   4.246   7.322  1.1058 -0.3255  1.5031
  117OSM    C6F12298   0.027   4.191   7.265 -0.3169 -0.0528  0.4651
  117OSM    H6F12299   0.052   4.271   7.193 -0.0364  0.9015  1.5940
  117OSM    H6G12300   0.084   4.098   7.245 -0.4371  0.3440 -1.7577
  117OSM    C7F12301   0.072   4.230   7.410  0.3527 -0.4531  0.1349
  117OSM    H7F12302   0.039   4.150   7.479  0.6413 -0.0372  0.7650
  117OSM    H7G12303   0.022   4.326   7.438 -1.5799 -1.5706  0.5774
  117OSM    C8F12304   0.222   4.223   7.410  0.1118  0.1818  0.0670
  117OSM    H8F12305   0.265   4.274   7.321 -0.4654  2.7917  1.2536
  117OSM    H8G12306   0.241   4.115   7.396 -0.5785 -0.0152  0.6192
  117OSM    C9F12307   0.294   4.278   7.530  0.0512  0.7233  0.3030
  117OSM    H9F12308   0.346   4.374   7.515  0.2517  0.5990  0.1947
  117OSM   C10F12309   0.299   4.232   7.650  0.1185 -0.4961 -0.3491
  117OSM   H10F12310   0.362   4.291   7.718 -1.6725 -1.0065  1.8174
  117OSM   C11F12311   0.250   4.101   7.717 -0.3600  0.4443  0.4606
  117OSM   H11F12312   0.338   4.034   7.719 -0.7957 -0.1551 -0.5360
  117OSM   H11G12313   0.177   4.049   7.651  1.1055 -1.3375  0.2064
  117OSM   C12F12314   0.189   4.126   7.858  0.0876 -0.7151 -0.0532
  117OSM   H12F12315   0.265   4.176   7.922 -3.2969  0.0108  3.6147
  117OSM   H12G12316   0.171   4.031   7.912  1.7374 -0.5015  0.8983
  117OSM   C13F12317   0.049   4.207   7.854 -0.7123  0.0240 -0.3375
  117OSM   H13F12318  -0.009   4.173   7.766  1.1827  0.3001 -1.7117
  117OSM   H13G12319   0.075   4.312   7.827 -3.1794  1.0542  1.0958
  117OSM   C14F12320  -0.029   4.198   7.987  0.1124 -0.2523  0.0962
  117OSM   H14F12321  -0.067   4.094   7.995 -3.3043  1.1005  2.9205
  117OSM   H14G12322  -0.112   4.272   7.975 -1.0255 -1.5689 -0.2123
  117OSM   C15F12323   0.060   4.226   8.107  0.9491  0.3816  1.1423
  117OSM   H15F12324   0.097   4.328   8.082  0.5909  0.5637  1.3444
  117OSM   H15G12325   0.142   4.151   8.115  0.8494 -0.0609 -1.6839
  117OSM   C16F12326  -0.011   4.251   8.241 -0.0007  0.4035 -0.6743
  117OSM   H16F12327  -0.086   4.333   8.241 -0.4052  0.0354 -0.6864
  117OSM   H16G12328   0.071   4.279   8.311 -0.7162 -2.9213  1.6053
  117OSM   C17F12329  -0.090   4.127   8.293  0.7637  0.0654 -0.2356
  117OSM   H17F12330  -0.168   4.112   8.216 -0.7269 -0.8122  1.3839
  117OSM   H17G12331  -0.019   4.042   8.290  0.1320 -0.5108  0.6165
  117OSM   C18F12332  -0.146   4.146   8.434  0.1368  0.3504 -0.5067
  117OSM   H18F12333  -0.251   4.111   8.450  0.5446 -1.3437 -1.4187
  117OSM   H18G12334  -0.141   4.254   8.457  0.3977  0.0729  0.7610
  117OSM   H18H12335  -0.076   4.102   8.507  0.2761 -0.3021 -1.0304
  118OSM      N12336   3.378   6.315   6.314 -0.4654 -0.4698  0.2641
  118OSM    C1512337   3.295   6.250   6.214  0.2974  0.1267 -0.1806
  118OSM   H15A12338   3.231   6.175   6.258  2.8278 -0.7569  2.0820
  118OSM   H15B12339   3.359   6.211   6.136  2.1472 -1.1741  1.9355
  118OSM   H15C12340   3.233   6.321   6.162 -0.6900 -0.1386  0.6111
  118OSM    C1412341   3.466   6.210   6.378  1.0084  0.4645  0.5003
  118OSM   H14A12342   3.530   6.257   6.451  2.1775  0.9071 -0.7889
  118OSM   H14B12343   3.526   6.166   6.300 -2.1748  1.9368 -2.9516
  118OSM   H14C12344   3.401   6.132   6.415  2.5061 -1.9062 -1.6808
  118OSM    C1312345   3.463   6.413   6.238  0.0534 -0.0884 -0.3525
  118OSM   H13A12346   3.538   6.359   6.182  0.9650 -0.2043  0.9545
  118OSM   H13B12347   3.514   6.485   6.301  1.1345 -0.0355 -1.2730
  118OSM   H13C12348   3.402   6.477   6.177 -0.1488  0.2735  0.2175
  118OSM    C1212349   3.295   6.391   6.421  0.2804 -0.6888  0.5405
  118OSM   H12A12350   3.239   6.470   6.374 -1.6131 -0.8984  2.4005
  118OSM   H12B12351   3.363   6.436   6.492  1.2932  1.4502 -1.7212
  118OSM    C1112352   3.190   6.301   6.501 -0.7890  0.2999 -0.4365
  118OSM   H11A12353   3.178   6.346   6.601 -0.4003 -2.0394  0.6902
  118OSM   H11B12354   3.235   6.201   6.516 -2.4230 -0.2293  1.0666
  118OSM      P12355   2.958   6.391   6.407 -0.5131 -0.5302  0.0879
  118OSM    O1312356   3.018   6.524   6.394  0.2148  0.1816 -0.4500
  118OSM    O1412357   2.865   6.351   6.303 -0.6156  0.1642 -0.1350
  118OSM    O1112358   2.882   6.391   6.536 -0.2305  0.2574  0.1591
  118OSM    O1212359   3.072   6.281   6.423 -0.1034 -0.1296  0.3660
  118OSM    C1S12360   2.875   6.281   6.629 -0.0817 -0.3388  0.1011
  118OSM    H1S12361   2.937   6.195   6.597 -1.1966 -0.9943 -0.3010
  118OSM    H1T12362   2.767   6.260   6.643 -0.3522  0.4324 -0.7930
  118OSM     NF12363   2.948   6.202   6.853  0.2489  0.0684  0.3171
  118OSM    HNF12364   2.859   6.172   6.886 -0.8673  1.8211 -1.0440
  118OSM    C2S12365   2.940   6.320   6.767 -0.2091 -0.9427 -0.2515
  118OSM    H2S12366   3.039   6.366   6.744 -0.1602 -0.8317  0.1760
  118OSM    C3S12367   2.862   6.439   6.836 -0.3573 -0.6002 -0.1786
  118OSM    H3S12368   2.763   6.395   6.861 -0.9109  0.8278  0.2416
  118OSM     O312369   2.855   6.556   6.753  0.0118  0.2626  0.0565
  118OSM    HO312370   2.887   6.521   6.669  0.5857  0.4664  0.1916
  118OSM    C4S12371   2.924   6.481   6.968 -0.4739  0.0342 -0.4686
  118OSM    H4S12372   2.996   6.565   6.967 -0.2321 -0.1734 -0.4723
  118OSM    C5S12373   2.899   6.425   7.083 -0.5305  0.8974  0.5449
  118OSM    H5S12374   2.820   6.348   7.085 -0.4665  0.7923 -0.5182
  118OSM    C6S12375   2.965   6.461   7.213  0.8226 -0.2212  0.3540
  118OSM    H6S12376   2.967   6.567   7.246  1.9678 -0.2651  0.4389
  118OSM    H6T12377   3.071   6.428   7.212  0.5635 -1.0791 -2.0255
  118OSM    C7S12378   2.892   6.378   7.323 -0.5039  0.1622 -0.6333
  118OSM    H7S12379   2.927   6.273   7.327  0.0583  0.3800  0.3766
  118OSM    H7T12380   2.782   6.370   7.305 -0.2992 -3.3297 -0.6353
  118OSM    C8S12381   2.931   6.440   7.454  0.4332  0.4966  0.6635
  118OSM    H8S12382   2.907   6.549   7.450 -0.0124  0.3667 -0.1608
  118OSM    H8T12383   3.038   6.417   7.476  0.3902  0.4163  0.7917
  118OSM    C9S12384   2.842   6.378   7.568  0.0167  0.1160  0.6529
  118OSM    H9S12385   2.889   6.279   7.583 -1.4006 -0.3866  1.8439
  118OSM    H9T12386   2.735   6.365   7.542  0.7022 -0.2007 -2.1012
  118OSM   C10S12387   2.845   6.453   7.699  0.4365 -0.8448 -0.4789
  118OSM   H10S12388   2.763   6.411   7.762  0.1556  0.0356 -0.2438
  118OSM   H10T12389   2.812   6.555   7.674 -1.1344 -1.2469 -0.0763
  118OSM   C11S12390   2.983   6.446   7.769  0.1563 -0.8883 -0.2660
  118OSM   H11S12391   3.061   6.508   7.719  0.8180 -0.8117  0.8499
  118OSM   H11T12392   3.014   6.342   7.746  1.4738 -0.5261 -0.1551
  118OSM   C12S12393   2.984   6.481   7.919 -1.0405  0.1626 -0.3636
  118OSM   H12S12394   2.953   6.586   7.939  2.3665  0.9807  0.9664
  118OSM   H12T12395   3.090   6.469   7.951 -0.4596  1.1885 -1.8911
  118OSM   C13S12396   2.892   6.404   8.010  0.2590 -0.4630  0.1753
  118OSM   H13S12397   2.893   6.300   7.973  1.1459 -0.8453  1.2405
  118OSM   H13T12398   2.792   6.451   8.021 -0.0226 -1.3701  1.7268
  118OSM   C14S12399   2.953   6.377   8.149 -0.0454  0.2990  0.0154
  118OSM   H14S12400   2.978   6.472   8.200 -1.7776  1.2635 -0.8882
  118OSM   H14T12401   3.053   6.335   8.128 -0.1296 -0.8607  1.8345
  118OSM   C15S12402   2.858   6.296   8.230 -0.3553  0.3116  0.8971
  118OSM   H15S12403   2.830   6.208   8.168 -2.6924  1.3565  0.4418
  118OSM   H15T12404   2.761   6.344   8.255 -0.8263 -0.4771  0.6038
  118OSM   C16S12405   2.932   6.250   8.360 -0.2534 -0.4433  0.2113
  118OSM   H16S12406   2.950   6.339   8.425  2.0442 -0.3484 -0.4948
  118OSM   H16T12407   3.034   6.214   8.332 -0.0384 -0.8386  1.4640
  118OSM   C17S12408   2.863   6.138   8.431  0.1190 -0.3622 -0.0544
  118OSM   H17S12409   2.846   6.055   8.358  0.5165 -0.7921  0.3374
  118OSM   H17T12410   2.762   6.165   8.468  1.0037  0.2434  1.9968
  118OSM   C18S12411   2.941   6.091   8.548  0.1043 -0.1849  0.3788
  118OSM   H18S12412   2.963   6.176   8.616  0.2014  1.7678 -2.0114
  118OSM   H18T12413   3.038   6.047   8.518 -0.0167  0.7046 -1.4350
  118OSM   H18U12414   2.889   6.005   8.595  0.6286 -0.4659  0.4390
  118OSM    C1F12415   3.034   6.108   6.826 -0.3716 -0.3720  1.2955
  118OSM     OF12416   3.140   6.146   6.773  0.8632 -0.1455  0.1808
  118OSM    C2F12417   3.018   5.963   6.867 -0.2463 -0.7266 -0.2067
  118OSM    H2F12418   3.075   5.904   6.793  3.2965  0.0072  1.8144
  118OSM    H2G12419   2.910   5.940   6.864 -0.7883  1.8090 -1.2358
  118OSM    C3F12420   3.093   5.937   7.000  0.9073 -0.2252 -0.0332
  118OSM    H3F12421   3.198   5.970   6.997  0.3134  1.8613  1.3044
  118OSM    H3G12422   3.094   5.826   7.008 -0.6030 -0.3424 -1.2631
  118OSM    C4F12423   3.020   5.993   7.122  1.0041 -0.1101 -0.4250
  118OSM    H4F12424   2.914   5.959   7.116  1.1821 -0.5542 -1.1008
  118OSM    H4G12425   3.030   6.103   7.116  2.8145 -0.2012  0.4397
  118OSM    C5F12426   3.101   5.953   7.245  0.0729  0.8095 -0.9642
  118OSM    H5F12427   3.209   5.980   7.239  0.6769 -1.7329 -2.4340
  118OSM    H5G12428   3.106   5.842   7.242  0.1371  0.7780  0.0624
  118OSM    C6F12429   3.047   5.999   7.382  0.4843  0.5114 -0.2919
  118OSM    H6F12430   2.937   5.984   7.370  0.5065  0.1171 -0.0061
  118OSM    H6G12431   3.067   6.108   7.384  2.0128  0.2231  0.9330
  118OSM    C7F12432   3.115   5.935   7.504  0.1863 -0.2582 -0.5587
  118OSM    H7F12433   3.225   5.944   7.497  0.3927 -0.1920  2.2420
  118OSM    H7G12434   3.096   5.825   7.502  1.2369 -0.4805  0.7305
  118OSM    C8F12435   3.073   5.997   7.635 -0.1393  0.1290  0.0847
  118OSM    H8F12436   3.087   6.107   7.641  1.9250 -0.1548  0.8692
  118OSM    H8G12437   3.134   5.957   7.719 -1.3240 -1.2558  0.2995
  118OSM    C9F12438   2.932   5.971   7.667 -0.4348  0.7058 -0.1137
  118OSM    H9F12439   2.859   6.006   7.593 -0.7817  1.3530  0.5339
  118OSM   C10F12440   2.881   5.925   7.786  0.1061  0.2088  0.2856
  118OSM   H10F12441   2.771   5.923   7.797  0.1734  1.6605  1.3660
  118OSM   C11F12442   2.955   5.901   7.909 -0.1876  0.3490  0.2734
  118OSM   H11F12443   3.048   5.841   7.893 -1.3412 -1.4883  0.3072
  118OSM   H11G12444   2.895   5.838   7.978  1.2559 -2.4340 -0.9187
  118OSM   C12F12445   2.984   6.029   7.980  0.4239  0.8816 -0.2807
  118OSM   H12F12446   2.920   6.045   8.069  1.6492 -0.2472  0.8251
  118OSM   H12G12447   2.976   6.119   7.915  0.9076  0.7870 -0.4759
  118OSM   C13F12448   3.121   6.033   8.042  0.5315 -0.1793 -0.7705
  118OSM   H13F12449   3.134   6.132   8.089 -0.0130 -1.0347  1.2547
  118OSM   H13G12450   3.200   6.026   7.964 -0.5055  1.0995 -1.9555
  118OSM   C14F12451   3.140   5.943   8.159 -0.1677 -0.6002 -0.9369
  118OSM   H14F12452   3.113   5.837   8.139  0.5692 -0.4146 -3.0065
  118OSM   H14G12453   3.071   5.979   8.238 -1.5879 -0.9249 -2.0046
  118OSM   C15F12454   3.284   5.947   8.211  0.0766 -0.5381 -0.1303
  118OSM   H15F12455   3.308   6.054   8.229  2.3731 -1.0903  0.3620
  118OSM   H15G12456   3.362   5.918   8.137 -0.4691 -0.6811 -0.6457
  118OSM   C16F12457   3.317   5.885   8.346 -0.1503 -0.2278  0.0068
  118OSM   H16F12458   3.295   5.776   8.348  1.2810 -0.5730 -1.9464
  118OSM   H16G12459   3.242   5.930   8.415  1.0102 -0.0647  1.1763
  118OSM   C17F12460   3.450   5.935   8.404 -0.0791 -1.3351 -0.8709
  118OSM   H17F12461   3.458   5.893   8.507 -1.8827 -0.1167 -0.1975
  118OSM   H17G12462   3.439   6.045   8.407 -2.4827 -1.5323 -0.9299
  118OSM   C18F12463   3.583   5.906   8.337 -0.2256  0.2543  0.5851
  118OSM   H18F12464   3.587   5.960   8.240 -0.4567 -0.2851  0.2772
  118OSM   H18G12465   3.580   5.797   8.317 -2.4457  0.7032 -1.7607
  118OSM   H18H12466   3.666   5.931   8.407  0.9938 -0.5605 -0.5223
  119OSM      N12467   4.482   5.321   6.176 -0.3069  0.1705  0.2841
  119OSM    C1512468   4.441   5.242   6.300 -0.2816 -0.5257  0.2626
  119OSM   H15A12469   4.336   5.219   6.286  0.3470 -2.4098 -1.7471
  119OSM   H15B12470   4.442   5.304   6.388 -3.7487  1.4156 -0.9493
  119OSM   H15C12471   4.502   5.153   6.309 -1.3791 -1.3256  0.0332
  119OSM    C1412472   4.410   5.447   6.165 -0.1514 -0.2421  0.3983
  119OSM   H14A12473   4.430   5.503   6.256 -0.2416 -1.2741  1.0612
  119OSM   H14B12474   4.304   5.429   6.168 -0.5307  1.5626 -1.0786
  119OSM   H14C12475   4.434   5.502   6.075 -3.2304 -0.4389 -0.6079
  119OSM    C1312476   4.629   5.358   6.201  0.0491 -0.3231  0.5763
  119OSM   H13A12477   4.671   5.389   6.107 -1.0317 -2.2260 -0.5591
  119OSM   H13B12478   4.683   5.267   6.226  1.7150  0.4626 -0.1018
  119OSM   H13C12479   4.637   5.431   6.280 -0.4534 -0.3394  0.6440
  119OSM    C1212480   4.466   5.249   6.046  0.6415 -0.4526  0.5245
  119OSM   H12A12481   4.510   5.150   6.054  2.8554  0.4695  0.0731
  119OSM   H12B12482   4.517   5.303   5.968  1.8614 -3.4056 -0.7970
  119OSM    C1112483   4.315   5.233   5.991 -0.2812  0.0541 -0.1108
  119OSM   H11A12484   4.313   5.147   5.920 -0.5607 -0.1261  0.1112
  119OSM   H11B12485   4.277   5.323   5.939  0.2759 -0.3822 -1.2922
  119OSM      P12486   4.077   5.218   6.092  0.1880 -0.0653  0.1575
  119OSM    O1312487   4.036   5.323   5.997  0.0804  0.6532  0.5102
  119OSM    O1412488   4.011   5.085   6.080  0.3523 -0.6090 -0.3020
  119OSM    O1112489   4.040   5.276   6.233  0.1365  0.4237 -0.0451
  119OSM    O1212490   4.233   5.202   6.103  0.4968  0.5611 -0.5168
  119OSM    C1S12491   4.013   5.194   6.346  0.0603 -0.1592  0.4270
  119OSM    H1S12492   4.088   5.115   6.363  0.5622  0.8755  3.3634
  119OSM    H1T12493   3.913   5.146   6.337  1.2279 -2.7226  0.7453
  119OSM     NF12494   4.042   5.199   6.584  0.0843 -0.2860 -0.7561
  119OSM    HNF12495   3.955   5.167   6.621  0.6516  0.4290  1.2712
  119OSM    C2S12496   4.034   5.285   6.469 -0.2502  0.1305  0.2038
  119OSM    H2S12497   4.128   5.344   6.459  0.0641 -0.4224 -0.1304
  119OSM    C3S12498   3.918   5.385   6.478 -0.7904 -0.2731  1.2646
  119OSM    H3S12499   3.823   5.331   6.498  0.1165 -1.6391  1.9608
  119OSM     O312500   3.907   5.453   6.353  0.7511 -0.2049  0.1519
  119OSM    HO312501   3.953   5.389   6.299 -0.4691  0.2240 -1.4423
  119OSM    C4S12502   3.931   5.482   6.594  0.0195 -0.0952  0.3349
  119OSM    H4S12503   4.020   5.546   6.596 -0.4861  0.6273 -0.1917
  119OSM    C5S12504   3.837   5.501   6.695  0.0664 -0.1773 -0.8656
  119OSM    H5S12505   3.741   5.448   6.702 -0.8238  1.2932 -1.8188
  119OSM    C6S12506   3.848   5.583   6.814 -0.3537 -0.3473 -0.2726
  119OSM    H6S12507   3.751   5.614   6.858  0.2881 -0.3272  1.1617
  119OSM    H6T12508   3.902   5.677   6.787 -2.7198  1.1371  0.0402
  119OSM    C7S12509   3.929   5.514   6.930  0.7503  0.6703  1.2229
  119OSM    H7S12510   4.039   5.533   6.924  0.5413  0.7649 -4.0308
  119OSM    H7T12511   3.914   5.404   6.931  0.9154  0.6485  2.3542
  119OSM    C8S12512   3.870   5.561   7.066 -0.2910 -0.1222  0.3834
  119OSM    H8S12513   3.762   5.536   7.071 -0.3075 -0.6103 -1.7926
  119OSM    H8T12514   3.871   5.671   7.077  2.7813 -0.4829  4.4500
  119OSM    C9S12515   3.945   5.504   7.188  0.7418 -0.1806  1.4636
  119OSM    H9S12516   4.048   5.545   7.180  0.0744  1.7027  2.2703
  119OSM    H9T12517   3.953   5.394   7.172  1.5952 -0.0031  0.6089
  119OSM   C10S12518   3.876   5.537   7.321  0.4918  0.4350 -0.0796
  119OSM   H10S12519   3.777   5.487   7.320  1.1024 -0.8861  2.0276
  119OSM   H10T12520   3.873   5.648   7.330  1.0474  0.3581  1.0997
  119OSM   C11S12521   3.962   5.494   7.444 -0.5037 -0.0775  0.2724
  119OSM   H11S12522   4.060   5.542   7.429  1.1912 -3.2481  0.7425
  119OSM   H11T12523   3.981   5.384   7.440  0.5567  0.1082  0.3358
  119OSM   C12S12524   3.891   5.535   7.573  0.4350 -0.3954 -0.1270
  119OSM   H12S12525   3.794   5.481   7.579  1.0753 -1.5969 -0.3237
  119OSM   H12T12526   3.862   5.642   7.573 -0.7826 -0.7180  0.7384
  119OSM   C13S12527   3.966   5.502   7.699  0.0222  0.0605 -0.2413
  119OSM   H13S12528   4.061   5.560   7.697  0.2605 -0.0751  3.4968
  119OSM   H13T12529   3.991   5.395   7.712 -1.2931 -0.1723  0.5038
  119OSM   C14S12530   3.881   5.559   7.823 -0.0006  0.3690  0.7303
  119OSM   H14S12531   3.788   5.498   7.826 -1.1386  2.0365  0.2879
  119OSM   H14T12532   3.852   5.665   7.806  1.5078  0.8210  0.9392
  119OSM   C15S12533   3.952   5.545   7.961  0.3375 -0.5875  0.8602
  119OSM   H15S12534   4.052   5.593   7.959  0.7767 -1.5221  0.2208
  119OSM   H15T12535   3.970   5.436   7.968 -0.3513 -0.9005 -1.5170
  119OSM   C16S12536   3.874   5.604   8.080  0.0702  0.2586 -0.2960
  119OSM   H16S12537   3.767   5.575   8.071 -0.0678  1.2224 -1.8587
  119OSM   H16T12538   3.875   5.715   8.076  1.7192  0.2274 -1.1253
  119OSM   C17S12539   3.925   5.556   8.214 -0.3553 -0.3756  0.3443
  119OSM   H17S12540   4.027   5.596   8.236 -0.7814  0.6161  0.5427
  119OSM   H17T12541   3.926   5.446   8.204  0.1785 -0.2786 -0.8254
  119OSM   C18S12542   3.828   5.611   8.316 -0.0576  0.4675 -0.8860
  119OSM   H18S12543   3.852   5.576   8.419  1.5959  2.8668 -0.4082
  119OSM   H18T12544   3.720   5.595   8.294  0.3263 -1.6018 -1.3792
  119OSM   H18U12545   3.842   5.721   8.325  0.1255  0.4318 -0.7400
  119OSM    C1F12546   4.160   5.156   6.635 -0.0207 -0.1798  0.4958
  119OSM     OF12547   4.268   5.157   6.571 -0.2413 -0.1109  0.0408
  119OSM    C2F12548   4.148   5.081   6.764 -0.2412  0.5068  0.2841
  119OSM    H2F12549   4.140   4.972   6.743 -3.6788  0.4430  1.4986
  119OSM    H2G12550   4.050   5.102   6.813 -0.8983 -0.8297 -0.4036
  119OSM    C3F12551   4.271   5.101   6.858  0.0340  0.0365  0.5639
  119OSM    H3F12552   4.356   5.119   6.790 -0.7027  0.2819 -0.2979
  119OSM    H3G12553   4.286   5.009   6.919  0.3862 -0.3441 -0.1012
  119OSM    C4F12554   4.266   5.231   6.934  0.0198  0.4509 -0.1189
  119OSM    H4F12555   4.207   5.301   6.872 -0.3427 -0.7695 -1.1880
  119OSM    H4G12556   4.370   5.270   6.936  0.2074 -0.0863  2.1150
  119OSM    C5F12557   4.211   5.225   7.084 -0.5303  0.0424  0.6150
  119OSM    H5F12558   4.118   5.164   7.094 -1.5554  0.8928 -2.7741
  119OSM    H5G12559   4.190   5.328   7.118  3.8553  0.7917  1.3480
  119OSM    C6F12560   4.307   5.177   7.197 -0.1431  0.8200 -0.5153
  119OSM    H6F12561   4.400   5.238   7.204  2.2929 -2.8492  1.0560
  119OSM    H6G12562   4.347   5.077   7.169  0.5033  0.9817 -0.1946
  119OSM    C7F12563   4.231   5.179   7.331  0.1165 -0.5676  0.1127
  119OSM    H7F12564   4.254   5.086   7.387 -1.2465  0.2394  2.0590
  119OSM    H7G12565   4.121   5.173   7.320  0.0154  1.2486 -0.0245
  119OSM    C8F12566   4.260   5.306   7.420 -0.5631  0.7219  0.5693
  119OSM    H8F12567   4.187   5.296   7.503  1.7494  2.0692  2.8387
  119OSM    H8G12568   4.232   5.392   7.355  0.0663 -0.0735 -0.7599
  119OSM    C9F12569   4.394   5.314   7.484  0.3119  0.1901  0.3126
  119OSM    H9F12570   4.472   5.339   7.411  0.1688  0.8282  0.3773
  119OSM   C10F12571   4.422   5.300   7.610 -0.4189  1.4554 -0.5106
  119OSM   H10F12572   4.527   5.318   7.637 -0.5717 -2.0065  2.7719
  119OSM   C11F12573   4.334   5.271   7.731 -0.2593 -0.6578 -0.4225
  119OSM   H11F12574   4.348   5.162   7.747  0.2085 -0.8959 -2.3322
  119OSM   H11G12575   4.227   5.289   7.706 -0.0136 -1.8728 -2.4998
  119OSM   C12F12576   4.363   5.355   7.860 -0.6361 -0.5334  0.3451
  119OSM   H12F12577   4.353   5.463   7.837 -0.2215 -0.9900 -2.0644
  119OSM   H12G12578   4.468   5.341   7.893 -1.2295  0.3198  2.7430
  119OSM   C13F12579   4.264   5.309   7.973 -0.4240 -0.0012 -0.4878
  119OSM   H13F12580   4.267   5.198   7.973  0.2495  0.0179 -0.9323
  119OSM   H13G12581   4.170   5.347   7.928  0.8798  2.1434 -1.4733
  119OSM   C14F12582   4.285   5.370   8.113 -0.1276  0.4613  0.6747
  119OSM   H14F12583   4.191   5.353   8.171  0.0017 -1.5767  0.3307
  119OSM   H14G12584   4.299   5.478   8.092  1.9284 -0.1025 -0.9381
  119OSM   C15F12585   4.396   5.315   8.197  0.2226 -0.8414  0.0706
  119OSM   H15F12586   4.497   5.362   8.194 -0.3856  0.4364 -0.7634
  119OSM   H15G12587   4.399   5.206   8.174 -0.6728 -0.1296 -3.8040
  119OSM   C16F12588   4.366   5.319   8.351  0.1270  0.0984 -0.9802
  119OSM   H16F12589   4.280   5.254   8.380 -0.4980  1.2327 -0.2537
  119OSM   H16G12590   4.346   5.421   8.390 -2.1667 -0.1693 -1.3775
  119OSM   C17F12591   4.496   5.279   8.431 -0.1455  0.2782 -0.2485
  119OSM   H17F12592   4.465   5.319   8.530 -1.8512  3.8499 -2.1615
  119OSM   H17G12593   4.593   5.314   8.390  0.0654  0.8298  0.7168
  119OSM   C18F12594   4.506   5.126   8.450 -0.1474  0.1521  0.3510
  119OSM   H18F12595   4.408   5.090   8.487 -0.4161  3.0991  2.6107
  119OSM   H18G12596   4.577   5.101   8.531 -0.2536  0.2436  0.4714
  119OSM   H18H12597   4.548   5.077   8.359 -1.2497 -1.1768  0.5452
  120OSM      N12598   0.961   3.490   6.697 -0.4767  0.3595 -0.1763
  120OSM    C1512599   0.954   3.492   6.842  0.1055 -0.0867 -0.3372
  120OSM   H15A12600   0.855   3.516   6.879 -0.3520 -1.6126 -0.5361
  120OSM   H15B12601   1.022   3.570   6.874  0.9845  0.2719 -2.9648
  120OSM   H15C12602   0.992   3.399   6.879  1.9303  0.1189 -1.6123
  120OSM    C1412603   0.877   3.377   6.661 -0.1825 -0.1260 -0.2158
  120OSM   H14A12604   0.858   3.371   6.555 -0.0015 -0.4165 -0.2321
  120OSM   H14B12605   0.785   3.382   6.717  0.7338  0.6922  1.2526
  120OSM   H14C12606   0.920   3.281   6.686  0.1035  0.0477 -0.0224
  120OSM    C1312607   0.889   3.614   6.650  0.4788  0.2110 -0.1894
  120OSM   H13A12608   0.900   3.608   6.543 -1.4464  0.6080 -0.4222
  120OSM   H13B12609   0.940   3.699   6.692  1.8965 -0.7009 -0.0226
  120OSM   H13C12610   0.792   3.624   6.698  0.7525 -3.2188  1.2345
  120OSM    C1212611   1.100   3.460   6.653  0.0912  0.4027 -0.2547
  120OSM   H12A12612   1.133   3.372   6.706 -1.4471 -1.3100 -2.0661
  120OSM   H12B12613   1.161   3.541   6.688 -1.3027  0.9694  0.9119
  120OSM    C1112614   1.122   3.441   6.505  0.3784 -0.3029  0.1961
  120OSM   H11A12615   1.231   3.456   6.486  0.1074  0.4791 -0.7869
  120OSM   H11B12616   1.065   3.510   6.440 -1.6804 -1.4816  0.6859
  120OSM      P12617   1.168   3.183   6.460 -0.3108  0.0815  0.1509
  120OSM    O1312618   1.077   3.066   6.459  1.0887  0.1807  0.0557
  120OSM    O1412619   1.267   3.206   6.350  0.4653  0.0696  0.4766
  120OSM    O1112620   1.234   3.189   6.602  0.4128  0.5095 -0.0976
  120OSM    O1212621   1.077   3.311   6.462  0.4215  0.6513  0.1506
  120OSM    C1S12622   1.373   3.173   6.617  0.0062  0.1980  0.1745
  120OSM    H1S12623   1.416   3.274   6.606 -0.9450  0.8823  2.4607
  120OSM    H1T12624   1.414   3.096   6.548  0.1463  0.4157  0.0140
  120OSM     NF12625   1.556   3.140   6.785 -0.0093 -0.0368  0.0452
  120OSM    HNF12626   1.607   3.056   6.766 -0.8095 -0.1748 -1.6547
  120OSM    C2S12627   1.405   3.134   6.760 -0.0504  0.5748 -0.3930
  120OSM    H2S12628   1.355   3.207   6.827 -1.4176 -1.3361  0.7312
  120OSM    C3S12629   1.336   3.002   6.792 -0.0766  0.1396  0.3484
  120OSM    H3S12630   1.372   2.925   6.721  2.0814  0.9201  0.5753
  120OSM     O312631   1.196   2.987   6.763 -0.2351 -0.0334 -0.1414
  120OSM    HO312632   1.181   3.048   6.691  1.0751 -1.4924 -1.7271
  120OSM    C4S12633   1.367   2.963   6.939 -0.2112 -0.5179 -0.5573
  120OSM    H4S12634   1.329   3.026   7.020 -1.0024 -1.0661 -0.4889
  120OSM    C5S12635   1.443   2.851   6.964  0.5892 -0.4284 -0.5634
  120OSM    H5S12636   1.488   2.787   6.887 -0.7095 -0.3635 -1.3950
  120OSM    C6S12637   1.480   2.798   7.101 -0.4510 -0.5271 -0.0058
  120OSM    H6S12638   1.583   2.759   7.111 -0.6101 -0.3916  2.2580
  120OSM    H6T12639   1.416   2.709   7.121 -0.5839 -0.4900 -0.2666
  120OSM    C7S12640   1.459   2.911   7.202 -0.2953  0.6052  0.2337
  120OSM    H7S12641   1.352   2.941   7.201 -0.3697  0.3539  0.5391
  120OSM    H7T12642   1.525   2.993   7.167  3.1224 -0.8512  2.8915
  120OSM    C8S12643   1.507   2.873   7.343  0.5908  0.2074  0.2827
  120OSM    H8S12644   1.539   2.968   7.389 -0.8292  1.8592 -2.0256
  120OSM    H8T12645   1.593   2.804   7.325  1.3849  1.2959 -0.1198
  120OSM    C9S12646   1.408   2.793   7.438 -0.5491 -0.5885  0.1983
  120OSM    H9S12647   1.386   2.694   7.393 -0.1108  0.2679 -1.9615
  120OSM    H9T12648   1.319   2.855   7.465  0.6707  0.8379  1.0665
  120OSM   C10S12649   1.477   2.772   7.577 -0.4130 -0.4125  1.3916
  120OSM   H10S12650   1.587   2.780   7.567 -0.5147 -1.7181 -1.0244
  120OSM   H10T12651   1.456   2.671   7.617  0.4091 -0.9095  0.5574
  120OSM   C11S12652   1.430   2.878   7.683 -0.5017 -0.2087 -0.1884
  120OSM   H11S12653   1.321   2.879   7.661 -0.5138  0.6194 -0.1224
  120OSM   H11T12654   1.479   2.975   7.663 -1.0012  0.2298  0.6596
  120OSM   C12S12655   1.454   2.829   7.831 -0.5703 -0.3193 -1.0122
  120OSM   H12S12656   1.563   2.822   7.854  0.0869  2.5856 -2.8193
  120OSM   H12T12657   1.414   2.726   7.821 -0.1056 -0.5058 -0.9550
  120OSM   C13S12658   1.395   2.916   7.941  0.5763  0.3843 -0.2035
  120OSM   H13S12659   1.289   2.887   7.961  0.9504 -0.5951  0.3942
  120OSM   H13T12660   1.390   3.024   7.917  0.1082  0.4829  0.3421
  120OSM   C14S12661   1.474   2.888   8.080 -0.1918 -0.2739  1.1687
  120OSM   H14S12662   1.576   2.849   8.059  0.1856  1.1497  0.3191
  120OSM   H14T12663   1.423   2.811   8.142  1.7319 -2.8265 -0.3222
  120OSM   C15S12664   1.478   3.010   8.175  0.1868 -0.6859 -0.3867
  120OSM   H15S12665   1.372   3.033   8.199  0.6749 -0.0419  1.2284
  120OSM   H15T12666   1.530   3.097   8.129 -1.1322  0.2260 -0.1538
  120OSM   C16S12667   1.566   2.978   8.299 -1.2038  0.4318 -0.3667
  120OSM   H16S12668   1.673   2.976   8.268 -0.7938  0.4506  1.0038
  120OSM   H16T12669   1.534   2.879   8.337  1.7527 -0.3931  0.1497
  120OSM   C17S12670   1.557   3.076   8.421  0.3593  0.2024 -0.4011
  120OSM   H17S12671   1.605   3.028   8.509 -1.0187 -1.8001 -0.7069
  120OSM   H17T12672   1.448   3.088   8.438 -0.2358 -1.7209 -2.6560
  120OSM   C18S12673   1.619   3.219   8.412  0.4255 -0.1877 -0.2641
  120OSM   H18S12674   1.580   3.284   8.493 -0.5819 -0.9403 -0.1388
  120OSM   H18T12675   1.603   3.255   8.308 -1.0836  1.2508  0.4529
  120OSM   H18U12676   1.729   3.212   8.425  0.5832  0.6999 -1.0370
  120OSM    C1F12677   1.625   3.251   6.781  0.9111  0.2044 -0.1752
  120OSM     OF12678   1.577   3.360   6.763 -0.2533 -0.2245 -0.4686
  120OSM    C2F12679   1.773   3.233   6.794  0.6154  0.7743  0.0148
  120OSM    H2F12680   1.817   3.235   6.692 -1.5909 -1.7646 -1.0404
  120OSM    H2G12681   1.798   3.133   6.836 -0.3071  0.4845 -0.1157
  120OSM    C3F12682   1.835   3.342   6.881 -0.4593  0.8591 -0.1499
  120OSM    H3F12683   1.808   3.324   6.987 -0.0433 -0.6929 -0.2920
  120OSM    H3G12684   1.791   3.438   6.846 -0.7556 -0.2311 -2.9218
  120OSM    C4F12685   1.987   3.352   6.858 -0.2167 -0.2533 -1.0221
  120OSM    H4F12686   1.999   3.350   6.748 -0.1588  0.5934 -1.0287
  120OSM    H4G12687   2.036   3.263   6.905 -2.0192  0.2764  1.9948
  120OSM    C5F12688   2.065   3.473   6.919  0.1285  0.7974  0.2715
  120OSM    H5F12689   2.007   3.564   6.893 -1.5822 -0.9629 -2.2918
  120OSM    H5G12690   2.163   3.477   6.866  0.6815 -0.3350  1.1779
  120OSM    C6F12691   2.085   3.449   7.065 -0.3814  0.4009  0.6926
  120OSM    H6F12692   2.147   3.356   7.074  1.1502  1.3559  0.1945
  120OSM    H6G12693   1.986   3.426   7.111 -0.5124  0.9817  0.6962
  120OSM    C7F12694   2.176   3.553   7.131  0.6705 -0.0100  0.1386
  120OSM    H7F12695   2.126   3.652   7.127  0.3099 -0.1596  0.8756
  120OSM    H7G12696   2.274   3.565   7.079  0.9182  0.7289  0.7749
  120OSM    C8F12697   2.197   3.533   7.284  0.7466 -0.0294  0.5593
  120OSM    H8F12698   2.094   3.539   7.326  0.4868  1.4965 -0.2427
  120OSM    H8G12699   2.240   3.626   7.327  2.4645 -0.4807 -0.1135
  120OSM    C9F12700   2.278   3.410   7.328  0.7571 -0.3351  0.8197
  120OSM    H9F12701   2.367   3.390   7.266 -0.9094 -0.5952 -1.5673
  120OSM   C10F12702   2.257   3.335   7.435 -0.7254  0.5851  0.4981
  120OSM   H10F12703   2.331   3.255   7.452  2.1824  3.0558 -0.1103
  120OSM   C11F12704   2.146   3.355   7.535 -0.5422  0.1565  0.1323
  120OSM   H11F12705   2.073   3.272   7.527  0.3642 -0.7221  0.9046
  120OSM   H11G12706   2.086   3.446   7.513 -0.9039 -0.4462 -1.4118
  120OSM   C12F12707   2.196   3.349   7.679 -0.9863  0.4376 -0.0226
  120OSM   H12F12708   2.269   3.268   7.698 -1.7562 -0.4443 -0.7748
  120OSM   H12G12709   2.109   3.320   7.742 -1.4866 -0.0800 -0.9405
  120OSM   C13F12710   2.246   3.477   7.729 -0.9159  0.2402 -0.2052
  120OSM   H13F12711   2.158   3.545   7.738 -1.1782 -0.4389  3.1851
  120OSM   H13G12712   2.328   3.515   7.665 -0.6037  0.3488  0.2542
  120OSM   C14F12713   2.315   3.465   7.866 -0.3307  0.3229  0.3304
  120OSM   H14F12714   2.352   3.565   7.897 -0.6584  0.3186  0.7253
  120OSM   H14G12715   2.406   3.402   7.852  0.4018  0.8333  2.5434
  120OSM   C15F12716   2.225   3.417   7.981 -0.4782 -0.4715  0.0648
  120OSM   H15F12717   2.195   3.318   7.939 -1.3782 -0.0981 -0.1751
  120OSM   H15G12718   2.135   3.482   7.980 -0.7373 -0.6308  4.2005
  120OSM   C16F12719   2.282   3.407   8.120  0.3711  0.2671 -0.4902
  120OSM   H16F12720   2.208   3.358   8.186  1.0167 -2.9046 -2.0080
  120OSM   H16G12721   2.297   3.511   8.155  2.0480 -0.4570  1.0356
  120OSM   C17F12722   2.420   3.334   8.126  0.2254 -0.0547 -0.5944
  120OSM   H17F12723   2.492   3.388   8.061  0.5804  0.1862 -0.0081
  120OSM   H17G12724   2.411   3.232   8.083  0.8035 -0.6693  0.7107
  120OSM   C18F12725   2.480   3.328   8.269 -0.4035 -0.0965  0.8428
  120OSM   H18F12726   2.578   3.276   8.267 -0.6317 -0.6542  3.0320
  120OSM   H18G12727   2.415   3.282   8.346  0.9892 -2.1076  0.8328
  120OSM   H18H12728   2.505   3.431   8.303  0.1120  0.2828 -0.6470
  121OSM      N12729   3.150   3.992   5.956 -0.3576  0.0836  0.8194
  121OSM    C1512730   3.296   4.033   5.943  0.2239  0.1742 -0.0891
  121OSM   H15A12731   3.314   4.102   6.024  2.2812  0.3702 -0.6852
  121OSM   H15B12732   3.317   4.070   5.844  0.1919  0.6991  0.0975
  121OSM   H15C12733   3.359   3.947   5.958 -0.3151  0.0593  1.5808
  121OSM    C1412734   3.066   4.103   5.918 -0.2197  0.1839  0.4411
  121OSM   H14A12735   2.959   4.091   5.922 -0.6927  3.0876 -1.3482
  121OSM   H14B12736   3.092   4.134   5.817 -0.3259 -0.4286  0.2261
  121OSM   H14C12737   3.086   4.188   5.982 -1.1325  1.3795 -0.8010
  121OSM    C1312738   3.122   3.874   5.870 -0.1739  0.1998  0.0870
  121OSM   H13A12739   3.147   3.906   5.770  0.2417  1.6714  0.6507
  121OSM   H13B12740   3.016   3.853   5.871 -0.0387 -0.6381 -1.1550
  121OSM   H13C12741   3.173   3.784   5.902 -0.8585  0.2152  1.2485
  121OSM    C1212742   3.120   3.951   6.102 -0.0348  0.3461 -0.0648
  121OSM   H12A12743   3.163   4.025   6.168 -0.0264 -0.3479  0.7138
  121OSM   H12B12744   3.176   3.863   6.131 -2.1136 -0.7743  0.6696
  121OSM    C1112745   2.976   3.935   6.151 -0.7152 -0.0025  0.2591
  121OSM   H11A12746   2.978   3.925   6.261  4.3347  2.7628  0.5632
  121OSM   H11B12747   2.924   3.845   6.113  1.1800 -0.0247 -2.4551
  121OSM      P12748   2.872   4.178   6.187  0.0050  0.3138 -0.1665
  121OSM    O1312749   2.870   4.294   6.094 -0.1447 -0.3862 -0.0637
  121OSM    O1412750   2.749   4.160   6.265 -0.8333 -0.1772 -0.0707
  121OSM    O1112751   3.005   4.194   6.276 -0.8832 -0.0548  0.0369
  121OSM    O1212752   2.890   4.043   6.111 -0.2040  0.1393 -0.1891
  121OSM    C1S12753   3.052   4.315   6.333  0.1221  0.1944  0.1438
  121OSM    H1S12754   2.989   4.398   6.294 -3.3345 -1.4281  2.0401
  121OSM    H1T12755   3.153   4.331   6.290  0.5361 -1.8348  0.3509
  121OSM     NF12756   3.057   4.445   6.534 -0.0137  0.0680  0.4701
  121OSM    HNF12757   3.149   4.481   6.541 -0.0241 -0.0627  1.2815
  121OSM    C2S12758   3.061   4.312   6.483  0.1042  0.2550 -0.5911
  121OSM    H2S12759   2.978   4.246   6.517 -0.2790  0.6018 -0.8476
  121OSM    C3S12760   3.189   4.244   6.523 -0.2659  0.1817 -0.1158
  121OSM    H3S12761   3.269   4.312   6.486  0.7772 -0.9049  0.1212
  121OSM     O312762   3.206   4.117   6.455  0.0662 -0.2298  0.0739
  121OSM    HO312763   3.134   4.108   6.393 -0.8253  1.0268  0.9082
  121OSM    C4S12764   3.200   4.236   6.669 -0.2555 -0.0078 -0.0030
  121OSM    H4S12765   3.267   4.318   6.699 -0.1586 -0.4113  0.9120
  121OSM    C5S12766   3.129   4.164   6.755 -0.3517 -0.1679 -0.2557
  121OSM    H5S12767   3.053   4.095   6.715 -0.5635 -0.2650  0.3077
  121OSM    C6S12768   3.140   4.158   6.909  0.0825 -0.6906  0.8835
  121OSM    H6S12769   3.060   4.092   6.948 -2.4901  0.8285 -1.6775
  121OSM    H6T12770   3.121   4.258   6.954 -1.2476  0.1358 -1.4251
  121OSM    C7S12771   3.275   4.113   6.970  0.3483 -0.3028 -0.7260
  121OSM    H7S12772   3.356   4.183   6.941 -0.1977  2.0119  2.9562
  121OSM    H7T12773   3.312   4.015   6.933  0.9903 -0.0405 -0.7819
  121OSM    C8S12774   3.269   4.108   7.127 -1.0009 -0.3315  0.6130
  121OSM    H8S12775   3.368   4.066   7.157 -0.0172  0.9869 -0.6862
  121OSM    H8T12776   3.182   4.045   7.154 -1.5659  0.6226  1.0486
  121OSM    C9S12777   3.259   4.246   7.196 -0.5658 -1.2862  0.1050
  121OSM    H9S12778   3.169   4.301   7.160  0.5672 -0.5489 -1.6911
  121OSM    H9T12779   3.344   4.312   7.169 -0.8398 -1.5619 -1.4940
  121OSM   C10S12780   3.243   4.254   7.348  0.3449  0.2894 -0.0300
  121OSM   H10S12781   3.338   4.216   7.392  0.2979  0.2793  0.0622
  121OSM   H10T12782   3.167   4.182   7.386  1.5297 -1.3704 -0.7201
  121OSM   C11S12783   3.195   4.388   7.395 -0.1151 -0.1174  0.9952
  121OSM   H11S12784   3.091   4.416   7.366  0.8906  1.5336 -1.1427
  121OSM   H11T12785   3.268   4.463   7.358 -0.0344  0.1158  1.6146
  121OSM   C12S12786   3.200   4.407   7.542  0.0785  0.8364 -0.1612
  121OSM   H12S12787   3.303   4.390   7.582 -0.9475 -2.2207  1.3521
  121OSM   H12T12788   3.143   4.326   7.592 -0.0430  1.1574  0.2241
  121OSM   C13S12789   3.151   4.549   7.586  0.0657  0.3798 -0.3617
  121OSM   H13S12790   3.047   4.573   7.555 -0.3618 -0.6563  0.2322
  121OSM   H13T12791   3.220   4.619   7.534 -0.7766  1.0338 -0.6161
  121OSM   C14S12792   3.170   4.563   7.732  0.2602  0.1688 -1.1550
  121OSM   H14S12793   3.274   4.545   7.768 -0.2004  3.1947  1.9588
  121OSM   H14T12794   3.120   4.485   7.794  0.6999 -1.1475 -2.4251
  121OSM   C15S12795   3.129   4.698   7.796 -0.3332 -0.2578  0.0822
  121OSM   H15S12796   3.018   4.705   7.795 -0.3826 -0.9333  0.3924
  121OSM   H15T12797   3.160   4.768   7.715 -0.2364  0.3955  0.6837
  121OSM   C16S12798   3.202   4.721   7.933  0.1386  0.4384  0.6403
  121OSM   H16S12799   3.307   4.698   7.908  0.5159  1.5842  1.1602
  121OSM   H16T12800   3.175   4.632   7.994  1.9710  0.1647  1.0742
  121OSM   C17S12801   3.168   4.849   8.015 -0.3525  0.6108 -0.1788
  121OSM   H17S12802   3.057   4.855   8.024 -0.2969  2.6319 -0.6819
  121OSM   H17T12803   3.209   4.940   7.967 -0.0009  1.6870  2.1121
  121OSM   C18S12804   3.223   4.850   8.158 -0.1742  0.7488  0.1244
  121OSM   H18S12805   3.220   4.947   8.212  0.1202  0.5810  0.4403
  121OSM   H18T12806   3.331   4.827   8.167  0.0014  0.9443 -1.3793
  121OSM   H18U12807   3.178   4.768   8.219  2.7531  0.5137  2.0422
  121OSM    C1F12808   2.950   4.516   6.554 -0.8235  0.3006  0.6218
  121OSM     OF12809   2.837   4.484   6.533  0.0036 -0.2565  0.4965
  121OSM    C2F12810   2.966   4.653   6.600  0.1100  0.3286  0.4065
  121OSM    H2F12811   2.887   4.719   6.559  1.3357  1.5177 -0.0850
  121OSM    H2G12812   3.067   4.694   6.576  0.5002  0.6075  2.4401
  121OSM    C3F12813   2.930   4.652   6.749 -0.1025  0.0030 -1.0274
  121OSM    H3F12814   2.847   4.580   6.767 -0.5595  1.2391  2.1228
  121OSM    H3G12815   2.902   4.752   6.788 -0.6051 -0.2421 -0.7483
  121OSM    C4F12816   3.049   4.615   6.841  0.1612 -0.1096  0.4664
  121OSM    H4F12817   3.100   4.525   6.802  0.3479 -0.9645  2.6153
  121OSM    H4G12818   3.008   4.594   6.942  0.2347  1.5955  0.8771
  121OSM    C5F12819   3.156   4.733   6.845  0.4082  0.6225 -0.5928
  121OSM    H5F12820   3.119   4.826   6.892 -0.0005 -0.1341  0.6007
  121OSM    H5G12821   3.180   4.754   6.738  1.2615  0.6198 -0.4026
  121OSM    C6F12822   3.289   4.692   6.910  0.4181 -0.5380 -0.4020
  121OSM    H6F12823   3.360   4.775   6.895 -1.4808  0.8105 -2.1965
  121OSM    H6G12824   3.328   4.607   6.850 -0.9575 -0.5726 -1.2545
  121OSM    C7F12825   3.286   4.666   7.066 -0.1962 -0.0695  0.4333
  121OSM    H7F12826   3.390   4.637   7.093  1.2370  2.0563 -2.5480
  121OSM    H7G12827   3.220   4.578   7.080 -1.8920  1.0841 -0.1899
  121OSM    C8F12828   3.241   4.794   7.141 -0.4569 -0.9163  0.0105
  121OSM    H8F12829   3.142   4.831   7.106  0.3682  1.4812  0.1307
  121OSM    H8G12830   3.316   4.872   7.116 -0.1876 -0.4388  2.2047
  121OSM    C9F12831   3.225   4.768   7.290 -0.1468  0.2567 -0.5252
  121OSM    H9F12832   3.180   4.670   7.311 -1.6553  0.5967 -2.0637
  121OSM   C10F12833   3.247   4.858   7.389  0.1995  0.5849 -0.0819
  121OSM   H10F12834   3.225   4.831   7.493  0.1737  0.5797 -0.0892
  121OSM   C11F12835   3.312   4.994   7.385  0.6145 -1.0029 -0.3251
  121OSM   H11F12836   3.330   5.021   7.279  0.1263  0.9168  0.0594
  121OSM   H11G12837   3.411   5.006   7.436  0.5901 -0.0625 -0.4864
  121OSM   C12F12838   3.212   5.104   7.437 -0.3714 -0.1674  0.6968
  121OSM   H12F12839   3.260   5.204   7.442  2.5974 -1.4916 -0.0963
  121OSM   H12G12840   3.179   5.076   7.539 -0.0732 -1.1849  0.5211
  121OSM   C13F12841   3.079   5.119   7.355 -0.2355  0.5439 -0.4612
  121OSM   H13F12842   3.034   5.213   7.395  1.5662  0.9914  0.5632
  121OSM   H13G12843   3.026   5.023   7.372  0.6423  0.2505  0.6392
  121OSM   C14F12844   3.083   5.133   7.205 -0.0493  0.2362  0.0709
  121OSM   H14F12845   3.088   5.035   7.153  1.0366  0.8638 -1.0412
  121OSM   H14G12846   3.178   5.177   7.167 -0.9506  1.4947 -0.7643
  121OSM   C15F12847   2.968   5.201   7.134  0.5450 -0.4035 -0.2411
  121OSM   H15F12848   2.996   5.169   7.031 -1.0827 -1.1445 -0.4711
  121OSM   H15G12849   2.979   5.310   7.151 -0.6458 -0.2717 -0.2832
  121OSM   C16F12850   2.833   5.153   7.176 -0.1569 -0.7908 -0.0694
  121OSM   H16F12851   2.757   5.214   7.122  0.0677 -0.1652  0.3078
  121OSM   H16G12852   2.819   5.166   7.286  0.0949 -0.8745 -0.0278
  121OSM   C17F12853   2.787   5.003   7.146 -0.1458  0.7381  0.1016
  121OSM   H17F12854   2.685   4.988   7.186  0.7125  1.3647  2.6074
  121OSM   H17G12855   2.863   4.941   7.199  0.9392 -0.5252 -2.8200
  121OSM   C18F12856   2.795   4.966   6.997 -0.2537 -0.6308  0.2013
  121OSM   H18F12857   2.718   5.019   6.938  2.1357  0.8771 -1.6662
  121OSM   H18G12858   2.776   4.856   6.993 -0.8053 -0.5283  0.0336
  121OSM   H18H12859   2.890   5.001   6.951 -1.2552  0.2214 -1.2346
  122OSM      N12860   2.288   6.493   6.171 -0.0601 -0.5185 -0.1909
  122OSM    C1512861   2.234   6.610   6.244  0.7598 -0.3076 -0.7454
  122OSM   H15A12862   2.272   6.612   6.346 -1.1250 -0.6528 -0.0187
  122OSM   H15B12863   2.127   6.611   6.253  0.7784 -0.4662 -0.4870
  122OSM   H15C12864   2.270   6.703   6.204 -2.5675  1.7376  0.8234
  122OSM    C1412865   2.270   6.367   6.249 -0.3326 -0.5313 -0.3817
  122OSM   H14A12866   2.298   6.277   6.196  0.3602 -0.9654  0.7217
  122OSM   H14B12867   2.173   6.354   6.295 -0.0262  0.9586  0.7362
  122OSM   H14C12868   2.341   6.356   6.329  0.3539  0.3265 -0.8588
  122OSM    C1312869   2.206   6.473   6.049  0.2314  0.3681  0.3085
  122OSM   H13A12870   2.104   6.455   6.082 -0.6532  1.8401 -1.5544
  122OSM   H13B12871   2.247   6.394   5.988 -1.0854 -0.1375  0.0584
  122OSM   H13C12872   2.208   6.557   5.981  1.2661  0.2734  0.2152
  122OSM    C1212873   2.433   6.518   6.127 -0.1969 -0.2866  0.3879
  122OSM   H12A12874   2.468   6.439   6.063 -2.4205 -0.8655 -0.1347
  122OSM   H12B12875   2.502   6.505   6.210  1.5017 -0.2951 -0.9909
  122OSM    C1112876   2.471   6.643   6.039 -0.1259 -0.0801  1.0363
  122OSM   H11A12877   2.403   6.627   5.952 -0.3050  1.4391  0.8795
  122OSM   H11B12878   2.575   6.635   6.002 -0.2969 -0.8926  0.7237
  122OSM      P12879   2.561   6.828   6.199  0.6693  0.0523  0.6848
  122OSM    O1312880   2.676   6.839   6.108 -0.1374 -1.1079 -0.5198
  122OSM    O1412881   2.513   6.943   6.270  0.0253 -0.4445  0.4184
  122OSM    O1112882   2.595   6.718   6.305  0.4501 -0.4399  0.1147
  122OSM    O1212883   2.434   6.768   6.107  0.3661  0.7375 -0.3661
  122OSM    C1S12884   2.689   6.728   6.413  0.4853 -0.3516 -0.2385
  122OSM    H1S12885   2.783   6.783   6.391 -0.4670  1.1499 -0.5874
  122OSM    H1T12886   2.736   6.631   6.440 -0.3703 -0.8264 -0.4487
  122OSM     NF12887   2.739   6.789   6.637 -0.1634  0.0349 -0.0663
  122OSM    HNF12888   2.760   6.718   6.704 -2.2395  0.3848  1.0122
  122OSM    C2S12889   2.630   6.765   6.551  0.7585 -0.5382 -0.3764
  122OSM    H2S12890   2.568   6.858   6.544  0.4835 -0.6827  0.1244
  122OSM    C3S12891   2.527   6.665   6.609 -1.1032  0.0879  0.3966
  122OSM    H3S12892   2.588   6.578   6.645  1.0892  1.5033  0.2055
  122OSM     O312893   2.432   6.628   6.516 -0.1507  0.5376  0.2307
  122OSM    HO312894   2.454   6.682   6.440 -0.9686  1.2214  0.4780
  122OSM    C4S12895   2.462   6.725   6.732  0.0038  0.8421 -0.0615
  122OSM    H4S12896   2.520   6.725   6.825 -1.4763 -0.0721  0.8934
  122OSM    C5S12897   2.340   6.784   6.737 -0.1134  0.5238  0.1663
  122OSM    H5S12898   2.298   6.810   6.639 -0.3015  0.6092  0.2693
  122OSM    C6S12899   2.266   6.837   6.858 -0.0190 -0.3848 -0.3436
  122OSM    H6S12900   2.184   6.764   6.873  0.7079 -0.9996  0.7364
  122OSM    H6T12901   2.215   6.932   6.833  1.6680  0.8382  0.7955
  122OSM    C7S12902   2.336   6.859   6.998 -0.2437  0.3236 -0.0815
  122OSM    H7S12903   2.386   6.958   6.998  2.5390 -1.0086 -1.0883
  122OSM    H7T12904   2.408   6.776   7.018 -3.3389 -2.7741 -1.1281
  122OSM    C8S12905   2.239   6.868   7.113 -0.2955 -0.2793  0.5799
  122OSM    H8S12906   2.189   6.773   7.140 -0.1677 -0.8913 -1.2799
  122OSM    H8T12907   2.168   6.945   7.076  2.2909  2.1168  0.3904
  122OSM    C9S12908   2.303   6.925   7.241  0.2553  0.7508 -0.0290
  122OSM    H9S12909   2.373   7.009   7.219  0.5715  0.7939  1.1572
  122OSM    H9T12910   2.362   6.848   7.294  0.2362  0.2518 -0.7215
  122OSM   C10S12911   2.194   6.972   7.340 -0.0887 -0.7506  0.1203
  122OSM   H10S12912   2.119   6.895   7.368  0.7885 -0.9376  2.0690
  122OSM   H10T12913   2.137   7.060   7.302 -0.9346 -2.2454 -2.1280
  122OSM   C11S12914   2.251   7.006   7.481  0.2987 -0.7661 -0.7673
  122OSM   H11S12915   2.321   7.089   7.463  2.4125 -2.3746 -0.1545
  122OSM   H11T12916   2.312   6.923   7.523 -0.2627  0.3858  2.4738
  122OSM   C12S12917   2.138   7.040   7.577 -0.0128  0.2243 -0.1655
  122OSM   H12S12918   2.083   6.957   7.628 -0.0988 -0.5286 -1.4722
  122OSM   H12T12919   2.064   7.099   7.519  1.2182  2.7394  0.7574
  122OSM   C13S12920   2.181   7.120   7.696  0.6879 -0.0151  0.7265
  122OSM   H13S12921   2.242   7.206   7.662  3.7599 -2.4726 -0.2846
  122OSM   H13T12922   2.250   7.065   7.765  1.1525 -0.6914 -0.2565
  122OSM   C14S12923   2.071   7.178   7.786  0.1004 -0.3194  0.3113
  122OSM   H14S12924   2.013   7.086   7.810  2.9229 -1.8864  1.3310
  122OSM   H14T12925   2.019   7.249   7.719  2.2999  1.1709  0.1334
  122OSM   C15S12926   2.108   7.234   7.922 -0.6154  0.1260 -0.6144
  122OSM   H15S12927   2.022   7.273   7.979 -0.1229 -0.6196  0.6423
  122OSM   H15T12928   2.177   7.320   7.906  0.1639  0.1117  2.4697
  122OSM   C16S12929   2.163   7.120   8.013 -0.4777  0.6961  0.2957
  122OSM   H16S12930   2.254   7.066   7.976 -0.7912 -0.0366  0.5747
  122OSM   H16T12931   2.088   7.038   8.010  0.2855 -0.0050  0.0809
  122OSM   C17S12932   2.197   7.159   8.162 -0.7041 -0.4005  0.4765
  122OSM   H17S12933   2.109   7.191   8.221 -2.3814  0.3548 -2.3442
  122OSM   H17T12934   2.273   7.240   8.156 -0.3408 -0.6310  1.7512
  122OSM   C18S12935   2.263   7.044   8.245 -0.1816  0.6511  0.2373
  122OSM   H18S12936   2.266   7.079   8.350 -1.2001  1.5017 -0.0128
  122OSM   H18T12937   2.371   7.024   8.231 -0.4170 -0.3692 -0.1703
  122OSM   H18U12938   2.208   6.948   8.256 -1.0297  1.2078  0.9118
  122OSM    C1F12939   2.824   6.889   6.621 -0.2555 -0.7268  0.3677
  122OSM     OF12940   2.794   6.985   6.558 -0.0086  0.1855  0.0362
  122OSM    C2F12941   2.960   6.870   6.687 -0.2971  0.0182 -0.5631
  122OSM    H2F12942   3.043   6.937   6.655  2.4237 -1.8775  2.1971
  122OSM    H2G12943   2.996   6.766   6.671 -0.7372 -0.6103  2.3492
  122OSM    C3F12944   2.947   6.885   6.842 -0.0284  0.4674 -0.3050
  122OSM    H3F12945   2.891   6.796   6.878  1.0282 -0.8283 -1.8041
  122OSM    H3G12946   2.885   6.978   6.847 -1.2512 -0.4048  1.0967
  122OSM    C4F12947   3.089   6.890   6.895 -0.1582  0.4229  0.4352
  122OSM    H4F12948   3.147   6.975   6.854 -1.5859  1.5128  0.6815
  122OSM    H4G12949   3.130   6.791   6.863 -2.6956 -0.7849  0.8378
  122OSM    C5F12950   3.089   6.905   7.047  0.6080 -0.0557  0.4076
  122OSM    H5F12951   3.060   6.806   7.089  0.0910 -0.4770 -0.9272
  122OSM    H5G12952   3.020   6.984   7.085  2.3529  0.8959  1.6716
  122OSM    C6F12953   3.234   6.949   7.096  0.3368  0.4175  0.6997
  122OSM    H6F12954   3.264   7.044   7.046 -1.0824  0.5517  0.0584
  122OSM    H6G12955   3.294   6.861   7.067 -1.6168 -0.3997 -0.9790
  122OSM    C7F12956   3.245   6.972   7.240  0.1479  0.0372  0.1663
  122OSM    H7F12957   3.255   6.874   7.290 -0.8578  0.5625  1.4311
  122OSM    H7G12958   3.149   7.022   7.266  0.1726  1.6755 -2.6796
  122OSM    C8F12959   3.346   7.071   7.302  0.1879  0.0908 -0.6185
  122OSM    H8F12960   3.320   7.112   7.402 -5.1781 -0.6568 -1.5671
  122OSM    H8G12961   3.342   7.163   7.239 -1.3748 -0.1140 -0.8521
  122OSM    C9F12962   3.492   7.015   7.298 -0.2421  0.8299  0.2497
  122OSM    H9F12963   3.534   6.981   7.202 -0.9403  1.2482 -0.2145
  122OSM   C10F12964   3.572   6.990   7.405  0.4206  0.2506  0.3150
  122OSM   H10F12965   3.673   6.949   7.388  0.3533  0.9769 -2.0077
  122OSM   C11F12966   3.539   7.005   7.553  1.0789  0.1618 -0.8583
  122OSM   H11F12967   3.568   6.913   7.607 -0.9030  0.3513  0.6170
  122OSM   H11G12968   3.428   7.009   7.564  0.9762 -1.5317 -1.1751
  122OSM   C12F12969   3.614   7.116   7.619 -0.2368 -0.5109  0.1203
  122OSM   H12F12970   3.584   7.207   7.563 -0.7517 -0.9503 -0.3288
  122OSM   H12G12971   3.722   7.093   7.612 -0.5189 -2.2539  1.1109
  122OSM   C13F12972   3.575   7.137   7.771  0.7933 -0.2479  0.6760
  122OSM   H13F12973   3.569   7.033   7.812 -1.6403 -0.2063  0.5345
  122OSM   H13G12974   3.470   7.174   7.766  1.2354  0.6817 -2.6437
  122OSM   C14F12975   3.680   7.216   7.848 -0.5372  0.3373 -0.1230
  122OSM   H14F12976   3.670   7.326   7.836  2.2153  0.4922 -1.1912
  122OSM   H14G12977   3.778   7.174   7.816 -0.8381 -0.6294  0.2041
  122OSM   C15F12978   3.662   7.190   8.000  0.0473 -0.7463 -0.0557
  122OSM   H15F12979   3.666   7.079   8.010 -1.6299 -0.8401 -0.2976
  122OSM   H15G12980   3.560   7.210   8.040 -0.9397 -0.5847 -2.5303
  122OSM   C16F12981   3.769   7.250   8.090  0.7466 -0.3768 -0.7311
  122OSM   H16F12982   3.783   7.359   8.075 -1.2383  0.1974  1.2482
  122OSM   H16G12983   3.864   7.195   8.073  1.5819  0.1584  1.8667
  122OSM   C17F12984   3.748   7.234   8.241  0.0679  0.1010  0.4327
  122OSM   H17F12985   3.836   7.267   8.300  0.1585 -0.1512  0.4380
  122OSM   H17G12986   3.733   7.126   8.265 -1.6045  0.0405 -0.8213
  122OSM   C18F12987   3.632   7.310   8.287 -0.6814 -1.0291 -0.0480
  122OSM   H18F12988   3.541   7.247   8.275  0.0933 -2.8148  2.9092
  122OSM   H18G12989   3.615   7.407   8.235 -1.6258 -1.2618 -0.1933
  122OSM   H18H12990   3.649   7.345   8.391 -0.6804 -1.6989  0.1794
  123OSM      N12991   0.842   2.535   6.256  0.0028 -0.3060 -0.4412
  123OSM    C1512992   0.976   2.503   6.192 -0.0845 -0.5030 -0.2734
  123OSM   H15A12993   1.034   2.594   6.180 -1.3239  0.2688 -0.4815
  123OSM   H15B12994   0.961   2.470   6.091  0.3363 -1.7019  0.0466
  123OSM   H15C12995   1.032   2.427   6.246  0.8433  1.5895  1.8188
  123OSM    C1412996   0.864   2.545   6.397  0.6859 -0.1803  0.1587
  123OSM   H14A12997   0.911   2.453   6.429 -0.4778 -1.0714 -0.6886
  123OSM   H14B12998   0.776   2.569   6.455 -2.0589  0.2494 -3.9962
  123OSM   H14C12999   0.927   2.632   6.415 -1.8899  1.9004 -0.5392
  123OSM    C1313000   0.804   2.667   6.194  0.0236 -0.0511 -0.0569
  123OSM   H13A13001   0.880   2.742   6.207 -0.3023  0.3919 -0.7274
  123OSM   H13B13002   0.712   2.709   6.232  0.7855  1.9204 -0.3359
  123OSM   H13C13003   0.789   2.663   6.088  0.0963  0.0257 -0.0708
  123OSM    C1213004   0.745   2.426   6.219 -0.0495 -0.7435 -0.3664
  123OSM   H12A13005   0.781   2.331   6.256 -0.9502 -2.0646 -2.7466
  123OSM   H12B13006   0.755   2.421   6.112 -0.6126 -3.4571 -0.3496
  123OSM    C1113007   0.596   2.440   6.256  0.2669 -0.0941  0.3894
  123OSM   H11A13008   0.542   2.365   6.194 -0.5361  0.7171  0.0971
  123OSM   H11B13009   0.560   2.538   6.219  0.3534  1.0352  3.1731
  123OSM      P13010   0.516   2.282   6.452  0.1813 -0.2221  0.4532
  123OSM    O1313011   0.389   2.261   6.387 -0.1923  0.4175 -0.5328
  123OSM    O1413012   0.631   2.188   6.440  0.4118 -0.0287 -0.6549
  123OSM    O1113013   0.495   2.299   6.600 -1.0233  0.4342  0.1780
  123OSM    O1213014   0.563   2.425   6.397 -0.1891  0.0961  0.0311
  123OSM    C1S13015   0.578   2.370   6.690 -0.2714  0.4589  0.1512
  123OSM    H1S13016   0.653   2.432   6.637 -0.7146  2.1172  1.4290
  123OSM    H1T13017   0.634   2.304   6.759 -1.9171 -1.7646 -0.5872
  123OSM     NF13018   0.595   2.548   6.841  0.0443  0.2274  0.1184
  123OSM    HNF13019   0.622   2.533   6.936 -2.4496  0.7849  0.9590
  123OSM    C2S13020   0.500   2.458   6.780 -0.2058 -0.0451  0.1521
  123OSM    H2S13021   0.427   2.512   6.715  0.0005 -0.1316 -0.1515
  123OSM    C3S13022   0.413   2.374   6.880  0.5122  0.5206  0.3941
  123OSM    H3S13023   0.468   2.298   6.940 -0.4196 -2.4868 -2.4268
  123OSM     O313024   0.313   2.292   6.817 -0.7049  0.2558  0.0833
  123OSM    HO313025   0.331   2.306   6.724  3.8575  1.8513  1.1031
  123OSM    C4S13026   0.346   2.464   6.984  0.0406 -0.2537 -0.2025
  123OSM    H4S13027   0.396   2.461   7.083  0.1754 -0.2518 -0.2688
  123OSM    C5S13028   0.234   2.535   6.977  0.4496  0.1338 -0.4722
  123OSM    H5S13029   0.184   2.549   6.880  0.2396 -0.0813 -0.3970
  123OSM    C6S13030   0.159   2.606   7.085  0.2866  0.4900  0.5446
  123OSM    H6S13031   0.051   2.588   7.064  0.2087 -1.1563  2.2317
  123OSM    H6T13032   0.164   2.717   7.081  0.1946  0.4201 -2.0695
  123OSM    C7S13033   0.193   2.548   7.225 -0.1353 -0.5493 -0.1962
  123OSM    H7S13034   0.287   2.599   7.259  0.2437 -1.7792  0.6159
  123OSM    H7T13035   0.220   2.441   7.223  2.7484  0.1401 -0.3005
  123OSM    C8S13036   0.085   2.604   7.323 -0.7883 -1.0273 -0.0007
  123OSM    H8S13037   0.097   2.542   7.415 -0.3070  2.3774  2.3275
  123OSM    H8T13038  -0.016   2.588   7.281 -1.4140 -1.7140  1.7182
  123OSM    C9S13039   0.088   2.764   7.350 -0.0977  0.8339  0.4737
  123OSM    H9S13040   0.078   2.812   7.250 -0.9562 -2.5324 -1.1400
  123OSM    H9T13041   0.178   2.801   7.402  0.1157  0.6638  0.2315
  123OSM   C10S13042  -0.017   2.806   7.455 -0.1118 -0.2574 -0.1160
  123OSM   H10S13043  -0.010   2.742   7.545  2.0327  0.5914  0.3676
  123OSM   H10T13044  -0.114   2.804   7.400  0.0525 -1.6369 -0.3546
  123OSM   C11S13045  -0.002   2.953   7.502 -0.1872  0.4254  0.7209
  123OSM   H11S13046   0.006   3.027   7.419  0.9074  0.6699  1.0431
  123OSM   H11T13047   0.089   2.969   7.562 -0.6049 -1.6006  1.9436
  123OSM   C12S13048  -0.117   2.984   7.594  0.5098  0.3548 -0.5428
  123OSM   H12S13049  -0.218   2.957   7.554  0.1533  0.6015  0.1887
  123OSM   H12T13050  -0.130   3.092   7.615 -1.8096 -0.3768  1.9472
  123OSM   C13S13051  -0.114   2.909   7.730 -0.9404 -0.6597 -0.3479
  123OSM   H13S13052  -0.012   2.916   7.774 -1.1845 -0.0025  0.1206
  123OSM   H13T13053  -0.145   2.805   7.707 -3.3427 -0.2526  0.9085
  123OSM   C14S13054  -0.204   2.959   7.838  0.3572 -0.2011 -0.0434
  123OSM   H14S13055  -0.310   2.956   7.805 -0.5738  0.2691  2.7496
  123OSM   H14T13056  -0.176   3.064   7.862  1.3206 -0.6264  0.7214
  123OSM   C15S13057  -0.199   2.864   7.958  0.6983 -0.1579  0.6090
  123OSM   H15S13058  -0.097   2.871   8.002  0.9051 -1.2305  0.3072
  123OSM   H15T13059  -0.225   2.764   7.918  0.2707  1.7192 -4.1486
  123OSM   C16S13060  -0.294   2.907   8.065 -0.0589 -0.1581  0.1962
  123OSM   H16S13061  -0.386   2.959   8.032 -0.1372  0.4090  1.2989
  123OSM   H16T13062  -0.235   2.982   8.121  0.8832  1.2891 -2.6043
  123OSM   C17S13063  -0.336   2.781   8.148 -0.5480 -0.0597 -0.0858
  123OSM   H17S13064  -0.364   2.803   8.253  1.8022 -4.0546  1.4811
  123OSM   H17T13065  -0.247   2.714   8.153 -0.2295  0.4296  1.0348
  123OSM   C18S13066  -0.444   2.702   8.082 -0.6959 -0.1258  0.9722
  123OSM   H18S13067  -0.396   2.675   7.985  1.9594  0.2475  2.1152
  123OSM   H18T13068  -0.535   2.766   8.081  1.4247  3.0458 -0.5919
  123OSM   H18U13069  -0.466   2.609   8.138  1.1766 -1.6620 -0.7452
  123OSM    C1F13070   0.633   2.656   6.781  0.4638  0.2909 -0.4346
  123OSM     OF13071   0.583   2.678   6.669 -0.5154  0.1126  0.2007
  123OSM    C2F13072   0.722   2.755   6.841 -0.4691  0.2155  0.6543
  123OSM    H2F13073   0.785   2.792   6.758 -0.7461  0.2213  0.4455
  123OSM    H2G13074   0.789   2.710   6.917 -1.1442 -0.7258  0.7169
  123OSM    C3F13075   0.633   2.869   6.906  0.0600  0.4807 -0.3124
  123OSM    H3F13076   0.558   2.912   6.837 -1.4737  0.8216  1.5374
  123OSM    H3G13077   0.707   2.947   6.934  0.7520 -0.3466  0.2043
  123OSM    C4F13078   0.568   2.823   7.037  0.0762  0.1690  0.1643
  123OSM    H4F13079   0.634   2.757   7.097  2.2144  0.9987 -1.2392
  123OSM    H4G13080   0.467   2.779   7.021  1.2773 -1.7196 -2.4681
  123OSM    C5F13081   0.536   2.945   7.129  0.4791 -0.0607  0.5903
  123OSM    H5F13082   0.466   3.019   7.085  1.5802  0.4768 -0.2730
  123OSM    H5G13083   0.630   3.003   7.133  0.0577  0.6624  0.0934
  123OSM    C6F13084   0.495   2.896   7.271  0.2701  0.5701  0.3231
  123OSM    H6F13085   0.586   2.850   7.316 -1.0375 -0.9059  1.5204
  123OSM    H6G13086   0.423   2.811   7.264  2.4629 -1.2887 -0.6285
  123OSM    C7F13087   0.433   3.002   7.353  0.0085  0.5209  0.3798
  123OSM    H7F13088   0.337   3.038   7.311 -0.8786 -1.9173  0.2173
  123OSM    H7G13089   0.509   3.083   7.359  2.8071 -2.0857  1.2134
  123OSM    C8F13090   0.403   2.952   7.497 -0.1823  0.1063 -0.6078
  123OSM    H8F13091   0.340   2.861   7.500 -0.4475  0.3495  3.4254
  123OSM    H8G13092   0.334   3.026   7.542  0.1609 -0.7992  1.4445
  123OSM    C9F13093   0.531   2.929   7.568 -0.1494  0.3167 -0.4847
  123OSM    H9F13094   0.583   2.836   7.538 -2.3081 -0.7246 -1.1389
  123OSM   C10F13095   0.586   3.013   7.660  0.4299  0.2799 -0.1190
  123OSM   H10F13096   0.684   2.991   7.705  2.1934  0.0835 -3.8330
  123OSM   C11F13097   0.536   3.144   7.720  0.7839 -0.3402  0.2276
  123OSM   H11F13098   0.548   3.164   7.828 -0.7966  5.6929 -0.5314
  123OSM   H11G13099   0.425   3.146   7.714  0.8481  0.3075 -0.9528
  123OSM   C12F13100   0.590   3.268   7.654 -0.3025 -0.1611  0.4180
  123OSM   H12F13101   0.524   3.355   7.674  1.8494  1.3800  0.9857
  123OSM   H12G13102   0.595   3.252   7.544 -1.0670  1.8070  0.0700
  123OSM   C13F13103   0.733   3.306   7.692  0.0792 -0.2178 -0.9848
  123OSM   H13F13104   0.771   3.402   7.653  1.0728 -0.2036 -0.0186
  123OSM   H13G13105   0.799   3.221   7.662  2.0808  1.4568 -1.4140
  123OSM   C14F13106   0.749   3.322   7.846  0.1709  0.1461  0.1981
  123OSM   H14F13107   0.741   3.223   7.895 -1.0625  0.0532 -0.1731
  123OSM   H14G13108   0.671   3.390   7.886  1.0852  0.8536  0.8078
  123OSM   C15F13109   0.888   3.366   7.894  0.7066  0.2862 -0.0380
  123OSM   H15F13110   0.921   3.463   7.852  1.4605  0.3370  0.6541
  123OSM   H15G13111   0.961   3.308   7.834 -0.4207 -2.4628  1.1491
  123OSM   C16F13112   0.933   3.355   8.038 -0.4181  0.4770 -0.4667
  123OSM   H16F13113   1.041   3.376   8.051 -0.4428  0.9332 -0.9802
  123OSM   H16G13114   0.907   3.253   8.075 -0.5569  0.3185 -0.9918
  123OSM   C17F13115   0.851   3.443   8.136  0.1029  0.4065 -0.0260
  123OSM   H17F13116   0.742   3.427   8.127 -0.5672  3.1642  2.4144
  123OSM   H17G13117   0.867   3.551   8.116 -1.1758  0.4502 -0.8434
  123OSM   C18F13118   0.890   3.416   8.284  0.6311  0.7210 -0.2971
  123OSM   H18F13119   0.831   3.475   8.358  2.0644  1.4588  0.2857
  123OSM   H18G13120   0.996   3.438   8.306  0.8065 -0.1043 -0.3251
  123OSM   H18H13121   0.869   3.308   8.296 -0.8725  1.2217  1.9541
  124OSM      N13122   0.620   5.609   5.969  0.3927 -0.0709  0.3925
  124OSM    C1513123   0.479   5.589   5.918 -0.6886  0.4147  0.2597
  124OSM   H15A13124   0.443   5.494   5.952 -0.0666  0.0877  0.0121
  124OSM   H15B13125   0.466   5.599   5.811 -1.0542 -0.0871  0.2584
  124OSM   H15C13126   0.402   5.651   5.962 -1.0656 -1.8498  2.9306
  124OSM    C1413127   0.712   5.522   5.892 -0.4717  0.5704 -0.5886
  124OSM   H14A13128   0.701   5.415   5.903 -1.1128  0.4499 -2.3308
  124OSM   H14B13129   0.809   5.544   5.935  0.7528 -2.2948 -1.7270
  124OSM   H14C13130   0.723   5.542   5.786 -1.4400  0.8696 -0.6327
  124OSM    C1313131   0.647   5.754   5.931  0.2825 -0.8922  0.5994
  124OSM   H13A13132   0.629   5.765   5.825 -0.6560  0.2160  0.8696
  124OSM   H13B13133   0.748   5.786   5.951 -0.0444  0.5222  0.0560
  124OSM   H13C13134   0.578   5.821   5.980 -0.2020 -0.1884 -1.0222
  124OSM    C1213135   0.638   5.574   6.122  0.5020  0.0375 -0.2114
  124OSM   H12A13136   0.624   5.467   6.122  1.8469 -0.1430 -0.6587
  124OSM   H12B13137   0.554   5.603   6.183  1.0243  0.7411  0.1806
  124OSM    C1113138   0.770   5.607   6.193  0.2587 -0.2757  0.5103
  124OSM   H11A13139   0.766   5.568   6.297 -2.1923  1.3545  1.0648
  124OSM   H11B13140   0.781   5.717   6.200 -0.4454 -0.0256 -1.8078
  124OSM      P13141   0.938   5.404   6.169  0.3295 -0.5063  0.1018
  124OSM    O1313142   0.822   5.316   6.169  0.5500 -0.5157 -0.3015
  124OSM    O1413143   1.046   5.385   6.076 -0.2276  0.1299  0.5330
  124OSM    O1113144   0.984   5.425   6.318  0.5386 -0.0308 -0.6447
  124OSM    O1213145   0.890   5.547   6.139  0.0774 -0.2565 -0.0177
  124OSM    C1S13146   1.091   5.521   6.343 -0.0975 -0.2781  0.4297
  124OSM    H1S13147   1.037   5.617   6.355  0.3776 -0.0998  1.2345
  124OSM    H1T13148   1.172   5.524   6.268  0.3382  1.4413  0.9342
  124OSM     NF13149   1.236   5.605   6.511  0.0534 -0.0395 -0.9037
  124OSM    HNF13150   1.329   5.595   6.478 -0.6094  0.7024 -3.0920
  124OSM    C2S13151   1.162   5.484   6.479 -0.1177  0.0567  0.0358
  124OSM    H2S13152   1.079   5.465   6.551 -0.1651 -3.1998 -0.7748
  124OSM    C3S13153   1.250   5.364   6.479  0.0114  1.0187 -0.6936
  124OSM    H3S13154   1.340   5.375   6.414 -1.7391  0.8159 -3.2214
  124OSM     O313155   1.184   5.247   6.432  0.1860  0.3193 -0.0717
  124OSM    HO313156   1.091   5.271   6.436 -0.0314  0.5265 -4.0806
  124OSM    C4S13157   1.314   5.353   6.623 -0.0111  0.5665  0.0669
  124OSM    H4S13158   1.411   5.404   6.636  0.9847 -1.2298 -0.1167
  124OSM    C5S13159   1.260   5.277   6.721  0.0759  0.4034 -0.4224
  124OSM    H5S13160   1.177   5.209   6.699 -0.2949  1.0975 -1.1827
  124OSM    C6S13161   1.329   5.269   6.854  0.0788 -0.1952  0.1809
  124OSM    H6S13162   1.417   5.201   6.852 -0.0716 -0.3762 -0.3423
  124OSM    H6T13163   1.255   5.229   6.926 -0.3914  2.7014  1.3890
  124OSM    C7S13164   1.379   5.402   6.922  0.6385 -0.3221  0.0358
  124OSM    H7S13165   1.301   5.480   6.910  1.0927  0.0211 -0.7022
  124OSM    H7T13166   1.462   5.454   6.869 -1.9920  0.1543 -3.8391
  124OSM    C8S13167   1.415   5.383   7.073 -0.0232 -0.8962  0.8329
  124OSM    H8S13168   1.329   5.326   7.114 -1.6839  1.1896  0.3632
  124OSM    H8T13169   1.422   5.483   7.121 -0.7170  1.3133 -3.3911
  124OSM    C9S13170   1.538   5.298   7.107 -0.1919 -0.4882 -0.7469
  124OSM    H9S13171   1.624   5.351   7.062 -0.6315  0.3385 -0.6305
  124OSM    H9T13172   1.520   5.199   7.060 -1.0677 -0.1675 -1.0883
  124OSM   C10S13173   1.559   5.278   7.259 -0.6077 -0.1066 -1.1387
  124OSM   H10S13174   1.460   5.271   7.308 -0.4279  1.3344 -0.5542
  124OSM   H10T13175   1.613   5.368   7.295 -0.5084 -0.6516  0.0814
  124OSM   C11S13176   1.646   5.154   7.298  0.0232 -0.0135 -0.0424
  124OSM   H11S13177   1.746   5.172   7.255  0.3864 -1.7671  0.0424
  124OSM   H11T13178   1.607   5.067   7.241  0.2494  1.3043 -2.2598
  124OSM   C12S13179   1.644   5.119   7.449  0.2254  0.4673 -0.1408
  124OSM   H12S13180   1.550   5.067   7.479  0.6388 -0.9095 -1.1773
  124OSM   H12T13181   1.654   5.216   7.502  1.8735  1.1279 -1.6427
  124OSM   C13S13182   1.768   5.026   7.495  0.1153 -0.8493 -0.1345
  124OSM   H13S13183   1.861   5.065   7.449  1.1921 -1.5827  1.3846
  124OSM   H13T13184   1.750   4.922   7.460 -0.2332 -1.8587  2.8529
  124OSM   C14S13185   1.784   5.027   7.648  0.7872  0.2076  0.3183
  124OSM   H14S13186   1.686   4.997   7.691  0.0479  0.8242 -0.9021
  124OSM   H14T13187   1.805   5.134   7.669 -1.4795  0.5576  0.9588
  124OSM   C15S13188   1.898   4.935   7.687  0.1393 -0.5272  0.1019
  124OSM   H15S13189   1.991   4.967   7.637  0.9428 -0.4894  1.5823
  124OSM   H15T13190   1.887   4.830   7.653 -1.5944 -0.8490  1.5526
  124OSM   C16S13191   1.928   4.921   7.843 -0.3588  0.4065  0.6075
  124OSM   H16S13192   1.995   4.834   7.863  1.1363  1.1615 -1.0035
  124OSM   H16T13193   1.831   4.904   7.895  1.0320 -0.1080  3.1277
  124OSM   C17S13194   1.993   5.050   7.913  0.0959  0.4206  0.1488
  124OSM   H17S13195   1.912   5.126   7.920  1.6542  2.0841  0.3220
  124OSM   H17T13196   2.084   5.075   7.855  0.3894  0.4417  0.6174
  124OSM   C18S13197   2.037   5.016   8.060  0.3591 -0.5994 -0.3864
  124OSM   H18S13198   2.131   4.957   8.055  1.5285  1.3001 -1.0142
  124OSM   H18T13199   1.955   4.954   8.103 -0.4226 -1.5267 -3.0898
  124OSM   H18U13200   2.058   5.108   8.118 -2.8689 -0.1119  0.0861
  124OSM    C1F13201   1.168   5.708   6.574  0.1092  0.7119 -0.0060
  124OSM     OF13202   1.053   5.709   6.606  0.3595 -0.3263  0.4413
  124OSM    C2F13203   1.259   5.830   6.607 -0.0575  0.0995  0.1737
  124OSM    H2F13204   1.195   5.920   6.621  1.3853  1.0290  0.8478
  124OSM    H2G13205   1.327   5.843   6.520 -2.3372 -0.3026 -1.7388
  124OSM    C3F13206   1.338   5.810   6.734  0.1957  0.2554 -0.2762
  124OSM    H3F13207   1.397   5.717   6.725 -0.8705 -0.5508  0.9599
  124OSM    H3G13208   1.267   5.794   6.818  0.7979 -0.1248  0.1639
  124OSM    C4F13209   1.434   5.922   6.762 -0.0040 -0.0606  0.0435
  124OSM    H4F13210   1.407   6.023   6.723 -2.5235 -0.3808  0.8969
  124OSM    H4G13211   1.533   5.899   6.716  0.0685 -0.2725  0.3061
  124OSM    C5F13212   1.466   5.943   6.917 -0.3481  0.0022  0.2614
  124OSM    H5F13213   1.377   5.981   6.971 -0.4334 -0.7920  0.6967
  124OSM    H5G13214   1.547   6.019   6.919  1.7951 -2.2115  1.1199
  124OSM    C6F13215   1.519   5.817   6.976  0.0841 -0.4828  0.4052
  124OSM    H6F13216   1.610   5.799   6.915  0.8315  1.2488  0.9831
  124OSM    H6G13217   1.457   5.724   6.976 -0.4335 -0.1479  1.0951
  124OSM    C7F13218   1.564   5.833   7.126  0.8229  0.3965 -0.7480
  124OSM    H7F13219   1.616   5.931   7.133  2.7928 -0.7688  1.4742
  124OSM    H7G13220   1.643   5.759   7.148 -1.4082 -1.7844  0.1997
  124OSM    C8F13221   1.456   5.836   7.241 -0.2482  0.1334  0.6939
  124OSM    H8F13222   1.396   5.928   7.223 -0.2844  0.5175  2.6361
  124OSM    H8G13223   1.512   5.854   7.335 -0.5310 -1.3396  1.1575
  124OSM    C9F13224   1.373   5.717   7.257  0.2589  0.3680 -0.9339
  124OSM    H9F13225   1.322   5.685   7.165 -0.3444 -1.9239  0.1735
  124OSM   C10F13226   1.348   5.650   7.375 -0.2893 -0.7603  0.3371
  124OSM   H10F13227   1.279   5.564   7.374  0.2720 -1.2090 -0.0017
  124OSM   C11F13228   1.415   5.684   7.503 -0.8660 -0.7856  0.7554
  124OSM   H11F13229   1.329   5.685   7.574 -0.6605  0.9034  0.9969
  124OSM   H11G13230   1.452   5.789   7.507  1.1458 -1.4666  0.2934
  124OSM   C12F13231   1.536   5.593   7.543 -0.3853  0.0683 -0.6575
  124OSM   H12F13232   1.613   5.619   7.467 -0.1268  2.2395  0.2888
  124OSM   H12G13233   1.528   5.484   7.521  0.2724 -0.2630  0.6961
  124OSM   C13F13234   1.592   5.620   7.690  0.1877 -0.8473  0.3767
  124OSM   H13F13235   1.504   5.617   7.758  0.0974 -0.1693  0.2948
  124OSM   H13G13236   1.629   5.725   7.687 -2.4422  0.0847 -0.7943
  124OSM   C14F13237   1.714   5.523   7.722  0.4184  0.7027  0.1066
  124OSM   H14F13238   1.787   5.531   7.638  0.4634 -0.7784 -0.0118
  124OSM   H14G13239   1.683   5.416   7.724 -0.4448  0.8982 -1.6769
  124OSM   C15F13240   1.784   5.539   7.855 -0.2391 -0.5355 -0.3719
  124OSM   H15F13241   1.725   5.492   7.937 -1.1030  1.1396 -0.0122
  124OSM   H15G13242   1.786   5.648   7.875  1.0248 -0.6095 -0.0748
  124OSM   C16F13243   1.926   5.482   7.863  0.5942 -0.5430  0.8795
  124OSM   H16F13244   2.000   5.504   7.783 -1.3241  1.0110 -0.4967
  124OSM   H16G13245   1.911   5.372   7.862 -1.7001 -0.2294 -1.2084
  124OSM   C17F13246   1.993   5.524   8.000  0.1746  0.0504  0.1524
  124OSM   H17F13247   2.079   5.456   8.017 -0.4718 -0.8759 -0.2433
  124OSM   H17G13248   1.920   5.528   8.084  1.1598 -1.8589  1.1513
  124OSM   C18F13249   2.057   5.664   7.982 -0.1205 -0.2684  0.6627
  124OSM   H18F13250   2.109   5.685   8.078 -0.9603  3.4511  0.3610
  124OSM   H18G13251   1.977   5.738   7.963 -0.0662 -1.0214 -2.8984
  124OSM   H18H13252   2.131   5.667   7.899 -0.4394  0.7443  0.4073
  125OSM      N13253   4.180   4.077   5.914 -0.6895  0.6304  0.2175
  125OSM    C1513254   4.031   4.112   5.909  0.1270 -0.4689  0.2927
  125OSM   H15A13255   3.977   4.073   5.993 -0.4175 -1.7438 -0.6302
  125OSM   H15B13256   3.995   4.078   5.812 -2.8558  0.1084  1.1604
  125OSM   H15C13257   4.008   4.216   5.924 -0.5152 -0.7961  1.6004
  125OSM    C1413258   4.252   4.152   5.803  0.1806  0.8130 -0.2507
  125OSM   H14A13259   4.226   4.257   5.809  0.2421  0.6992  2.5242
  125OSM   H14B13260   4.212   4.119   5.708  0.2006 -1.3902  0.4895
  125OSM   H14C13261   4.358   4.137   5.796 -0.1171 -0.9570 -1.0950
  125OSM    C1313262   4.233   4.134   6.045  0.1482 -0.3998  0.6436
  125OSM   H13A13263   4.206   4.235   6.071 -2.9440 -1.4461  1.7623
  125OSM   H13B13264   4.341   4.129   6.050  0.2287  1.7654  1.5837
  125OSM   H13C13265   4.191   4.074   6.125 -2.3785  0.7868  0.2624
  125OSM    C1213266   4.200   3.921   5.913  0.6306 -0.8019 -0.8702
  125OSM   H12A13267   4.304   3.908   5.936  0.2535 -1.2216  0.6396
  125OSM   H12B13268   4.190   3.897   5.808  0.6301 -1.6367 -0.6802
  125OSM    C1113269   4.115   3.833   6.008 -0.0898  0.1440 -0.4073
  125OSM   H11A13270   4.140   3.728   5.981  2.1951 -0.3465  3.2557
  125OSM   H11B13271   4.010   3.861   5.986  0.2699  1.7945 -0.1490
  125OSM      P13272   4.276   3.788   6.208  0.4475  0.2228  0.1644
  125OSM    O1313273   4.254   3.640   6.231 -0.1614 -0.4584  0.0020
  125OSM    O1413274   4.398   3.830   6.135 -0.4447  0.2199  0.4276
  125OSM    O1113275   4.275   3.856   6.346 -0.7841 -0.2064 -0.1129
  125OSM    O1213276   4.141   3.856   6.154 -0.0562 -0.0447 -0.1298
  125OSM    C1S13277   4.162   3.823   6.425 -0.2239 -0.5934  0.4902
  125OSM    H1S13278   4.176   3.718   6.459 -2.5253  0.1013  3.7701
  125OSM    H1T13279   4.064   3.839   6.377  1.0464  1.6081 -1.5018
  125OSM     NF13280   4.090   3.862   6.663  0.4277 -0.3477  0.0979
  125OSM    HNF13281   4.022   3.923   6.701 -1.4750 -2.6367  0.5044
  125OSM    C2S13282   4.181   3.905   6.560  0.1571  0.2969 -0.1556
  125OSM    H2S13283   4.281   3.869   6.590 -0.3513 -1.0216 -0.0182
  125OSM    C3S13284   4.170   4.054   6.536 -0.1077  0.0236 -0.4802
  125OSM    H3S13285   4.066   4.088   6.517  0.0699  1.4666  1.0275
  125OSM     O313286   4.245   4.105   6.425  0.4062 -0.1098  0.6753
  125OSM    HO313287   4.289   4.033   6.380  1.4348  0.0300  1.4271
  125OSM    C4S13288   4.219   4.127   6.656 -0.1384  0.5783 -0.3022
  125OSM    H4S13289   4.142   4.178   6.715  0.2142  2.2420 -1.2279
  125OSM    C5S13290   4.347   4.144   6.693  0.1726  0.8621  0.0731
  125OSM    H5S13291   4.430   4.107   6.632 -0.7485  0.6429 -1.0621
  125OSM    C6S13292   4.383   4.224   6.819  0.2902 -0.2119  0.4153
  125OSM    H6S13293   4.426   4.322   6.794 -0.7008 -0.3150 -1.7745
  125OSM    H6T13294   4.471   4.172   6.862  0.9751 -1.5828 -2.5269
  125OSM    C7S13295   4.282   4.226   6.933  0.0112  0.1943 -0.1528
  125OSM    H7S13296   4.272   4.126   6.981  0.5323  0.1834 -0.0599
  125OSM    H7T13297   4.186   4.273   6.902 -0.7069 -0.8220  0.4947
  125OSM    C8S13298   4.332   4.319   7.044 -0.0745  0.2389 -0.4698
  125OSM    H8S13299   4.333   4.424   7.010  1.2380  0.0125 -1.1441
  125OSM    H8T13300   4.436   4.295   7.074 -0.1773 -0.9527 -1.0104
  125OSM    C9S13301   4.255   4.302   7.176  0.0567  0.0860  0.2527
  125OSM    H9S13302   4.247   4.193   7.194  2.3283 -0.4440 -1.7249
  125OSM    H9T13303   4.153   4.345   7.166 -1.5130 -3.4293  0.5063
  125OSM   C10S13304   4.316   4.354   7.304 -0.0592  0.6524  0.8230
  125OSM   H10S13305   4.352   4.459   7.296 -0.6568  0.6929 -1.8052
  125OSM   H10T13306   4.407   4.299   7.335  1.0507  0.8525 -1.9368
  125OSM   C11S13307   4.227   4.338   7.427 -0.4451 -0.2450  1.0730
  125OSM   H11S13308   4.189   4.234   7.439 -1.7196  0.1431  0.5467
  125OSM   H11T13309   4.138   4.397   7.395 -1.4669 -1.8919  0.8127
  125OSM   C12S13310   4.299   4.381   7.554  0.7062 -0.5001 -0.3666
  125OSM   H12S13311   4.331   4.487   7.552  1.5812 -0.7358  0.8618
  125OSM   H12T13312   4.376   4.305   7.581  1.2545  0.3463  0.4568
  125OSM   C13S13313   4.196   4.385   7.667 -0.1948 -0.1964  0.2667
  125OSM   H13S13314   4.147   4.285   7.669 -1.4483  0.4119  0.4602
  125OSM   H13T13315   4.121   4.465   7.650  0.9259  0.9107  0.5039
  125OSM   C14S13316   4.259   4.403   7.805 -0.3792 -0.2974  0.2943
  125OSM   H14S13317   4.319   4.496   7.800 -0.2734 -0.4331 -1.3194
  125OSM   H14T13318   4.334   4.322   7.818  1.5577  1.5605  1.0117
  125OSM   C15S13319   4.151   4.391   7.914 -0.4454  0.5118 -0.8164
  125OSM   H15S13320   4.103   4.291   7.908 -0.7044  0.5160  0.8364
  125OSM   H15T13321   4.076   4.470   7.894 -0.5925  0.6620  0.2847
  125OSM   C16S13322   4.202   4.411   8.061  0.0211  0.5649 -0.6046
  125OSM   H16S13323   4.262   4.505   8.071 -0.8583  0.9299  1.3651
  125OSM   H16T13324   4.270   4.327   8.085 -0.4912  0.2827 -0.1523
  125OSM   C17S13325   4.091   4.406   8.176  0.4963  0.2850  0.7621
  125OSM   H17S13326   4.022   4.492   8.157  1.0455  0.2644 -1.3870
  125OSM   H17T13327   4.138   4.429   8.274  1.1385  0.5039  0.4007
  125OSM   C18S13328   4.000   4.283   8.183  0.2821 -0.1322 -0.1608
  125OSM   H18S13329   3.950   4.281   8.084 -1.1416  2.0502  0.4763
  125OSM   H18T13330   3.917   4.300   8.255 -1.1150 -1.0411 -1.5475
  125OSM   H18U13331   4.043   4.187   8.218 -1.2935 -0.5766  0.5866
  125OSM    C1F13332   4.111   3.746   6.717 -0.8527  0.1700 -0.5704
  125OSM     OF13333   4.200   3.669   6.689  0.1929 -0.0648  0.4226
  125OSM    C2F13334   4.021   3.707   6.832  0.0789  0.3100  0.1818
  125OSM    H2F13335   3.970   3.613   6.799  2.0828 -0.8908  0.3763
  125OSM    H2G13336   3.946   3.785   6.855 -0.3180 -0.4839  1.6441
  125OSM    C3F13337   4.102   3.683   6.955 -0.2632  0.5789 -0.0675
  125OSM    H3F13338   4.171   3.599   6.933 -1.1384 -0.6224  1.6809
  125OSM    H3G13339   4.038   3.635   7.032  2.7671 -0.9502  1.5777
  125OSM    C4F13340   4.173   3.810   7.005  0.3609  0.3244 -0.5244
  125OSM    H4F13341   4.227   3.861   6.922  1.5425  3.3151  2.0009
  125OSM    H4G13342   4.258   3.780   7.070 -0.9914  0.0397  1.1575
  125OSM    C5F13343   4.084   3.905   7.088  0.4845  0.3544  0.3364
  125OSM    H5F13344   4.005   3.946   7.021  1.5831 -1.2522 -1.9560
  125OSM    H5G13345   4.140   3.999   7.109  1.8369 -0.1962 -0.7839
  125OSM    C6F13346   4.029   3.842   7.219 -0.4936  0.1894  0.2184
  125OSM    H6F13347   4.111   3.824   7.292  0.1174  1.0258 -0.2709
  125OSM    H6G13348   3.985   3.741   7.200 -0.0370 -0.1708  1.0515
  125OSM    C7F13349   3.917   3.928   7.285  0.0148  0.2594  0.5087
  125OSM    H7F13350   3.827   3.863   7.286 -0.1768  0.4457 -1.5982
  125OSM    H7G13351   3.884   4.022   7.234 -3.2250  0.4378  2.7686
  125OSM    C8F13352   3.936   3.978   7.432  0.5145  0.2228  0.4240
  125OSM    H8F13353   3.845   4.035   7.460 -0.3752  0.4778 -2.7681
  125OSM    H8G13354   4.015   4.056   7.426  2.6011 -1.5363  3.7545
  125OSM    C9F13355   3.983   3.877   7.543 -0.7998 -0.2226 -0.0440
  125OSM    H9F13356   4.087   3.846   7.525 -1.4175 -1.6541 -1.3302
  125OSM   C10F13357   3.931   3.843   7.660 -0.5791  0.3900 -0.2452
  125OSM   H10F13358   3.990   3.772   7.721 -1.6146 -0.2111  0.0743
  125OSM   C11F13359   3.801   3.890   7.719 -0.0176 -0.9416 -0.5432
  125OSM   H11F13360   3.731   3.806   7.738  0.9283 -1.8280 -0.9622
  125OSM   H11G13361   3.747   3.956   7.647 -0.7068 -0.4288  0.4350
  125OSM   C12F13362   3.818   3.975   7.845 -0.3861  0.2349 -0.1719
  125OSM   H12F13363   3.728   4.036   7.866  0.2324  0.7615  0.9753
  125OSM   H12G13364   3.900   4.047   7.825 -1.2700  1.3634  0.2622
  125OSM   C13F13365   3.851   3.879   7.963 -0.3954 -0.0341 -0.8391
  125OSM   H13F13366   3.950   3.831   7.948 -1.0239 -2.2617  1.6540
  125OSM   H13G13367   3.778   3.796   7.961  0.2504 -0.6175 -0.7136
  125OSM   C14F13368   3.853   3.939   8.103 -0.7411 -0.4589  0.2930
  125OSM   H14F13369   3.940   4.008   8.107  0.5100 -1.8217 -2.2090
  125OSM   H14G13370   3.875   3.876   8.191  0.3612 -0.5794 -0.0589
  125OSM   C15F13371   3.719   3.999   8.136 -0.8229  0.0284  0.1550
  125OSM   H15F13372   3.646   3.932   8.086 -0.1218 -1.0386  0.5491
  125OSM   H15G13373   3.703   4.093   8.079  2.9345 -0.0780 -1.2280
  125OSM   C16F13374   3.696   4.037   8.287  0.0341  1.2551 -0.4640
  125OSM   H16F13375   3.774   4.104   8.327  0.3288  0.6237  0.0307
  125OSM   H16G13376   3.722   3.955   8.356  0.9923  0.8399 -1.3142
  125OSM   C17F13377   3.556   4.093   8.312 -0.2917  0.6556 -0.1656
  125OSM   H17F13378   3.477   4.032   8.263 -0.3839  1.7592 -1.4247
  125OSM   H17G13379   3.542   4.191   8.260 -0.6385  1.4880  1.4671
  125OSM   C18F13380   3.532   4.093   8.461 -0.0302  0.0059 -0.1777
  125OSM   H18F13381   3.515   3.989   8.495  2.1350 -0.0817  0.6850
  125OSM   H18G13382   3.450   4.160   8.496 -0.4453 -0.4170 -0.3418
  125OSM   H18H13383   3.630   4.121   8.505  0.5523 -4.0780  1.2812
  126OSM      N13384   1.780   1.904   6.384  0.4626  0.2758  0.1426
  126OSM    C1513385   1.684   1.937   6.274 -0.1024  0.0883  0.1299
  126OSM   H15A13386   1.699   2.041   6.250  1.8332 -0.6044 -1.9341
  126OSM   H15B13387   1.579   1.922   6.295  0.1119 -0.5220  0.7990
  126OSM   H15C13388   1.714   1.877   6.189 -1.1281 -1.7704  1.0435
  126OSM    C1413389   1.779   1.759   6.416  0.0812  0.1356 -0.3321
  126OSM   H14A13390   1.803   1.702   6.327  2.1082  1.3229 -0.5903
  126OSM   H14B13391   1.682   1.726   6.449  0.2503  1.0391  1.0669
  126OSM   H14C13392   1.858   1.740   6.487  0.8688  0.8692 -0.9973
  126OSM    C1313393   1.916   1.952   6.345 -0.3102 -0.1926  0.2321
  126OSM   H13A13394   1.914   2.056   6.313  0.7673 -0.9726 -2.5530
  126OSM   H13B13395   1.953   1.900   6.257 -3.5379 -1.7772 -0.2632
  126OSM   H13C13396   1.979   1.945   6.433  0.2824  3.0879  0.1583
  126OSM    C1213397   1.736   1.991   6.505 -0.0190  0.9955  0.1351
  126OSM   H12A13398   1.741   2.092   6.466 -1.2067  1.7596  1.8751
  126OSM   H12B13399   1.809   1.978   6.584 -1.2271 -1.0520  0.9491
  126OSM    C1113400   1.602   1.969   6.581  0.1538 -0.5048 -0.0383
  126OSM   H11A13401   1.604   2.017   6.681  0.1619 -1.7268  0.5670
  126OSM   H11B13402   1.589   1.860   6.600 -1.6438 -0.2465  0.2918
  126OSM      P13403   1.451   2.171   6.523  0.1883  0.4135  0.5820
  126OSM    O1313404   1.570   2.256   6.523  0.6139  0.1809  0.0099
  126OSM    O1413405   1.346   2.210   6.425  0.2738  0.0909  0.2209
  126OSM    O1113406   1.392   2.167   6.670 -0.0571  0.0082 -0.0010
  126OSM    O1213407   1.492   2.022   6.501  0.0474 -0.1065 -0.7147
  126OSM    C1S13408   1.327   2.055   6.733 -0.6932 -0.3106 -0.2371
  126OSM    H1S13409   1.397   1.970   6.719  2.2753  1.1412  4.5481
  126OSM    H1T13410   1.226   2.033   6.693 -0.8838  0.8738 -0.4436
  126OSM     NF13411   1.306   1.937   6.952 -0.4971 -0.0818 -0.0812
  126OSM    HNF13412   1.230   1.922   7.014 -0.8259  1.5352 -0.0545
  126OSM    C2S13413   1.334   2.068   6.890 -0.1633  0.1442  0.1310
  126OSM    H2S13414   1.436   2.099   6.922  0.2998 -1.9634  0.7672
  126OSM    C3S13415   1.238   2.177   6.933  0.6883 -0.6145 -0.6512
  126OSM    H3S13416   1.137   2.134   6.915  0.9519 -1.9817  1.0635
  126OSM     O313417   1.261   2.297   6.857 -0.5067 -0.4208 -0.1363
  126OSM    HO313418   1.331   2.267   6.799 -2.8429 -2.3097 -2.0887
  126OSM    C4S13419   1.247   2.205   7.084  0.2321 -1.3836  0.2749
  126OSM    H4S13420   1.174   2.147   7.143 -1.5368 -0.0020 -0.4957
  126OSM    C5S13421   1.305   2.309   7.143 -0.1468 -0.3108  0.3814
  126OSM    H5S13422   1.365   2.384   7.089 -1.5733  1.8364  1.6797
  126OSM    C6S13423   1.301   2.350   7.289 -0.0434  0.3470  0.0775
  126OSM    H6S13424   1.243   2.271   7.340  2.2627 -1.7590 -0.4628
  126OSM    H6T13425   1.245   2.445   7.302 -3.4159 -1.2726 -1.7053
  126OSM    C7S13426   1.440   2.353   7.353 -0.1902  0.0306 -0.2774
  126OSM    H7S13427   1.493   2.429   7.292 -2.2089  0.1907 -1.9017
  126OSM    H7T13428   1.490   2.255   7.336 -1.1796 -0.6167  0.4225
  126OSM    C8S13429   1.435   2.398   7.497 -0.2675 -0.4409 -0.2473
  126OSM    H8S13430   1.378   2.493   7.502 -2.2813 -1.4798 -2.1341
  126OSM    H8T13431   1.534   2.421   7.541 -0.1523 -1.0065 -0.2074
  126OSM    C9S13432   1.370   2.291   7.585 -0.2078  0.6957 -0.3859
  126OSM    H9S13433   1.434   2.203   7.562  0.2526  1.4467 -2.1366
  126OSM    H9T13434   1.262   2.289   7.558  0.0777  2.5935 -1.8176
  126OSM   C10S13435   1.392   2.344   7.733  0.1247  0.4124 -0.2547
  126OSM   H10S13436   1.351   2.447   7.734 -0.7861  0.0650  2.0107
  126OSM   H10T13437   1.502   2.340   7.744 -0.1325 -1.6251  2.1007
  126OSM   C11S13438   1.332   2.264   7.842 -0.0780 -0.1992  0.0894
  126OSM   H11S13439   1.350   2.155   7.831  2.7289  0.3081 -0.6157
  126OSM   H11T13440   1.223   2.283   7.833  0.2537  1.7022 -0.1033
  126OSM   C12S13441   1.390   2.299   7.982 -0.1082 -0.0566 -0.0157
  126OSM   H12S13442   1.495   2.262   7.975 -0.4964 -0.8174 -2.4550
  126OSM   H12T13443   1.332   2.242   8.057  0.3160  1.6341  1.6295
  126OSM   C13S13444   1.372   2.450   8.017 -0.5366  0.3368 -0.1596
  126OSM   H13S13445   1.263   2.466   8.026 -0.4200  0.6814  0.6506
  126OSM   H13T13446   1.421   2.508   7.936 -2.4873 -0.3749 -1.8975
  126OSM   C14S13447   1.434   2.495   8.153 -0.3747  0.2475  0.0610
  126OSM   H14S13448   1.496   2.585   8.134 -1.9389  0.7763 -2.9839
  126OSM   H14T13449   1.500   2.413   8.188  0.0640  0.6599  0.1968
  126OSM   C15S13450   1.341   2.523   8.275 -0.6077  0.0063  0.3535
  126OSM   H15S13451   1.262   2.446   8.289 -0.0496 -0.6884 -0.2514
  126OSM   H15T13452   1.286   2.618   8.269 -0.5153  0.2402  2.7471
  126OSM   C16S13453   1.435   2.523   8.401  0.8652 -0.5477 -0.0152
  126OSM   H16S13454   1.498   2.615   8.396 -1.0761  0.7692 -0.5070
  126OSM   H16T13455   1.492   2.428   8.396  1.4788 -0.1007 -2.4875
  126OSM   C17S13456   1.343   2.543   8.525  0.0041 -0.3039 -0.3189
  126OSM   H17S13457   1.276   2.630   8.506 -1.6149 -1.1818  1.2090
  126OSM   H17T13458   1.398   2.559   8.620  3.3687  0.7127 -2.3597
  126OSM   C18S13459   1.244   2.428   8.547 -0.5165 -0.4158 -0.4315
  126OSM   H18S13460   1.296   2.330   8.560  1.3243  0.6353  0.3320
  126OSM   H18T13461   1.164   2.425   8.469  0.3165  4.1270 -1.5666
  126OSM   H18U13462   1.195   2.433   8.646  2.9140 -1.8426  1.4361
  126OSM    C1F13463   1.383   1.837   6.935 -0.4995  0.7460 -0.3599
  126OSM     OF13464   1.495   1.859   6.887  0.2613 -0.1444  0.6362
  126OSM    C2F13465   1.334   1.701   6.982 -0.5254  1.2582  0.2695
  126OSM    H2F13466   1.249   1.676   6.915 -0.0439 -0.7117  0.3848
  126OSM    H2G13467   1.299   1.708   7.087  0.7436 -2.8081  1.0493
  126OSM    C3F13468   1.445   1.587   6.969 -0.3793  0.0412 -0.6290
  126OSM    H3F13469   1.536   1.638   7.009 -0.8427  1.3191 -1.1728
  126OSM    H3G13470   1.477   1.562   6.866 -0.4654  1.6855 -1.0831
  126OSM    C4F13471   1.425   1.468   7.063  0.4733  0.4442  0.3582
  126OSM    H4F13472   1.515   1.404   7.079  0.5657 -0.1111 -2.2549
  126OSM    H4G13473   1.349   1.413   7.004 -0.6973 -1.6083  3.6091
  126OSM    C5F13474   1.353   1.488   7.206  0.6066  0.9468 -0.4874
  126OSM    H5F13475   1.245   1.508   7.189  0.0823 -1.5467 -0.2570
  126OSM    H5G13476   1.397   1.577   7.256  1.1940  0.6394 -0.4566
  126OSM    C6F13477   1.379   1.366   7.291  0.2626  0.0450  0.7206
  126OSM    H6F13478   1.486   1.337   7.285  0.2719  0.4288 -1.1127
  126OSM    H6G13479   1.323   1.276   7.256  0.2893 -0.4876  1.9817
  126OSM    C7F13480   1.358   1.384   7.447  0.5953  0.0756  0.2235
  126OSM    H7F13481   1.406   1.483   7.465 -1.3672  1.1903 -0.5270
  126OSM    H7G13482   1.424   1.311   7.498 -1.1829 -0.8216  1.2895
  126OSM    C8F13483   1.208   1.386   7.479 -0.6670 -0.8046  0.2025
  126OSM    H8F13484   1.150   1.454   7.413 -1.1652 -0.2433  1.2168
  126OSM    H8G13485   1.203   1.430   7.581 -2.8033 -2.3462  0.8041
  126OSM    C9F13486   1.146   1.249   7.459 -0.5128 -0.8019  0.4686
  126OSM    H9F13487   1.122   1.226   7.354  1.9312  2.3966 -0.8584
  126OSM   C10F13488   1.103   1.171   7.558  0.1812  0.4988  0.3607
  126OSM   H10F13489   1.062   1.073   7.528  0.4320 -0.1246  2.0003
  126OSM   C11F13490   1.114   1.200   7.708 -0.3050 -0.4572  0.1395
  126OSM   H11F13491   1.032   1.152   7.766 -0.1950 -0.4989  0.2625
  126OSM   H11G13492   1.120   1.310   7.725 -0.1840 -0.3669 -0.4983
  126OSM   C12F13493   1.244   1.123   7.756 -0.1084  0.9077 -0.1309
  126OSM   H12F13494   1.324   1.174   7.698 -0.5320 -0.0175 -1.5429
  126OSM   H12G13495   1.233   1.015   7.734 -0.4913  1.3000 -1.9013
  126OSM   C13F13496   1.256   1.140   7.908 -0.6197 -0.5045  0.3458
  126OSM   H13F13497   1.344   1.079   7.941 -1.3053 -1.6355  0.1134
  126OSM   H13G13498   1.164   1.111   7.963 -2.0525  2.0542 -0.6165
  126OSM   C14F13499   1.285   1.291   7.952 -0.2937  0.1484  0.2506
  126OSM   H14F13500   1.186   1.341   7.939 -0.3202  0.3737  1.3047
  126OSM   H14G13501   1.369   1.325   7.888 -0.8333 -0.8099 -0.9825
  126OSM   C15F13502   1.325   1.304   8.105 -0.5149  0.6123  0.2180
  126OSM   H15F13503   1.422   1.251   8.117 -0.9440 -0.0996  0.5477
  126OSM   H15G13504   1.245   1.240   8.148 -0.4021 -1.7647 -2.9895
  126OSM   C16F13505   1.328   1.451   8.165  0.5627 -0.5080 -0.0528
  126OSM   H16F13506   1.221   1.473   8.185  0.6127 -1.8188  1.7721
  126OSM   H16G13507   1.363   1.508   8.077 -0.2465  0.5576  0.3096
  126OSM   C17F13508   1.417   1.458   8.290  0.2065  0.2964  0.0803
  126OSM   H17F13509   1.370   1.392   8.366  1.1897 -1.3660 -0.7208
  126OSM   H17G13510   1.418   1.562   8.328 -1.3690  0.5526 -0.5501
  126OSM   C18F13511   1.562   1.424   8.268  0.1131  0.0507 -0.3070
  126OSM   H18F13512   1.586   1.325   8.223  0.8338 -0.9261  2.1427
  126OSM   H18G13513   1.615   1.435   8.365 -1.1030 -0.3138  0.4142
  126OSM   H18H13514   1.607   1.496   8.197 -1.2206  0.5056 -0.7003
  127OSM      N13515   6.428   2.839   5.980  0.3464 -0.1215  0.4147
  127OSM    C1513516   6.289   2.808   5.939  0.5386 -0.3268  0.1443
  127OSM   H15A13517   6.214   2.885   5.944  0.3739 -0.6079  3.1873
  127OSM   H15B13518   6.245   2.740   6.011  1.6874 -0.0044  1.1601
  127OSM   H15C13519   6.279   2.761   5.843 -0.3168  0.9977 -0.4263
  127OSM    C1413520   6.508   2.723   6.019 -0.4395 -0.6138  0.0654
  127OSM   H14A13521   6.545   2.664   5.936 -0.0023  2.1777 -1.7651
  127OSM   H14B13522   6.456   2.653   6.084  1.4851 -0.2720  2.0125
  127OSM   H14C13523   6.591   2.754   6.079 -2.1268  1.4200  1.4293
  127OSM    C1313524   6.504   2.913   5.869  0.1380 -0.5484 -0.0974
  127OSM   H13A13525   6.463   3.010   5.849  1.8675  0.4986  1.2539
  127OSM   H13B13526   6.509   2.856   5.777  1.5489 -0.4596 -0.0827
  127OSM   H13C13527   6.606   2.929   5.901  0.3323 -0.0943 -0.9349
  127OSM    C1213528   6.414   2.930   6.107  0.1038 -0.0265 -0.1369
  127OSM   H12A13529   6.352   3.011   6.071 -0.1730 -0.7218 -1.2309
  127OSM   H12B13530   6.514   2.963   6.130 -0.3025  0.5120  0.8953
  127OSM    C1113531   6.345   2.877   6.238  0.0083  0.3731 -0.0398
  127OSM   H11A13532   6.388   2.942   6.317 -0.1598  0.7093 -0.2194
  127OSM   H11B13533   6.381   2.773   6.250  0.5695  0.6835  1.0614
  127OSM      P13534   6.131   3.023   6.231 -0.2330 -0.4472  0.5895
  127OSM    O1313535   6.189   3.102   6.114 -0.0494  0.5491 -0.7949
  127OSM    O1413536   5.984   3.020   6.235  0.2219 -0.5451 -0.2575
  127OSM    O1113537   6.181   3.079   6.367  0.1876  0.6814  0.0946
  127OSM    O1213538   6.200   2.880   6.233  0.2099  0.6396  0.0680
  127OSM    C1S13539   6.135   3.009   6.485  0.0092  0.0216 -0.6349
  127OSM    H1S13540   6.164   2.902   6.481 -1.8414 -0.5008 -0.6229
  127OSM    H1T13541   6.024   3.013   6.488 -0.0433 -1.3458 -0.1589
  127OSM     NF13542   6.170   2.962   6.721 -0.1899 -0.4851  0.1651
  127OSM    HNF13543   6.083   2.951   6.768  0.1149  1.3479  1.1816
  127OSM    C2S13544   6.189   3.066   6.614 -0.0239  0.5638 -0.4560
  127OSM    H2S13545   6.298   3.086   6.610 -0.1163  0.9487 -1.1265
  127OSM    C3S13546   6.124   3.205   6.640 -0.1665  0.7581 -0.6712
  127OSM    H3S13547   6.015   3.198   6.659 -0.1103  1.7236  0.0709
  127OSM     O313548   6.125   3.292   6.526  0.6816 -0.0838 -0.2039
  127OSM    HO313549   6.131   3.229   6.453  0.3799  1.3925 -1.5323
  127OSM    C4S13550   6.182   3.276   6.766 -0.8334 -0.4900  1.2042
  127OSM    H4S13551   6.283   3.320   6.753 -0.9919  0.1917  2.1962
  127OSM    C5S13552   6.118   3.307   6.878  1.0557 -0.3864  0.0646
  127OSM    H5S13553   6.009   3.288   6.880  1.2284 -1.5718 -1.5445
  127OSM    C6S13554   6.187   3.379   6.990  0.4618 -0.5490 -0.0400
  127OSM    H6S13555   6.298   3.376   6.983  0.3915 -1.5644 -0.7311
  127OSM    H6T13556   6.161   3.344   7.092  0.6477 -0.2403  0.1158
  127OSM    C7S13557   6.147   3.534   6.979 -0.4738  0.0059 -0.2221
  127OSM    H7S13558   6.037   3.543   6.996 -0.5072 -1.3263  0.3504
  127OSM    H7T13559   6.178   3.564   6.876  0.5206  1.4626  0.4899
  127OSM    C8S13560   6.221   3.612   7.086  0.4556  0.3748 -0.1000
  127OSM    H8S13561   6.245   3.716   7.053  0.4745 -0.1690 -1.8822
  127OSM    H8T13562   6.316   3.561   7.112  0.7359  1.5117  1.1722
  127OSM    C9S13563   6.141   3.612   7.225 -0.9877 -0.1944  0.2403
  127OSM    H9S13564   6.132   3.507   7.259  0.8572 -1.3454 -2.5889
  127OSM    H9T13565   6.043   3.663   7.226 -0.3526  1.0494  0.7540
  127OSM   C10S13566   6.226   3.677   7.339 -0.0607 -0.0384  0.0903
  127OSM   H10S13567   6.256   3.780   7.310 -0.2818 -0.0285 -0.1020
  127OSM   H10T13568   6.318   3.614   7.349  1.3007  1.8106 -0.4862
  127OSM   C11S13569   6.153   3.697   7.476 -0.9270 -0.0065 -0.1245
  127OSM   H11S13570   6.058   3.745   7.444 -0.6219  0.6511 -0.0510
  127OSM   H11T13571   6.206   3.761   7.549  0.8618 -0.7481 -0.7339
  127OSM   C12S13572   6.122   3.566   7.544  0.1190 -0.0487 -0.4211
  127OSM   H12S13573   6.217   3.514   7.568  0.3315 -0.2418 -1.6788
  127OSM   H12T13574   6.068   3.508   7.466 -0.1350  0.4618 -0.6287
  127OSM   C13S13575   6.042   3.574   7.669  0.0314 -0.6484 -0.2637
  127OSM   H13S13576   5.944   3.628   7.663  0.2743 -0.0671  0.8918
  127OSM   H13T13577   6.099   3.646   7.732 -1.3785  0.7245 -0.5081
  127OSM   C14S13578   6.017   3.446   7.738  0.4986  0.0277  0.3851
  127OSM   H14S13579   6.112   3.389   7.747 -0.4725 -1.4893  1.3129
  127OSM   H14T13580   5.946   3.386   7.677  0.6522  2.9694 -2.8358
  127OSM   C15S13581   5.969   3.452   7.884  0.4974  0.3920 -1.0971
  127OSM   H15S13582   5.933   3.555   7.905  0.0825 -0.0869  0.6009
  127OSM   H15T13583   6.050   3.430   7.958  1.9404  0.4210 -2.6422
  127OSM   C16S13584   5.839   3.363   7.906  0.7105  0.2217  0.6067
  127OSM   H16S13585   5.774   3.369   7.816  1.5698 -1.1396 -0.1064
  127OSM   H16T13586   5.776   3.393   7.993 -1.1133 -0.9862 -0.2544
  127OSM   C17S13587   5.867   3.216   7.917 -0.4970 -0.1224  0.6250
  127OSM   H17S13588   5.933   3.204   8.006  1.0782 -0.4740 -0.5685
  127OSM   H17T13589   5.928   3.194   7.827 -3.0327  0.5558 -1.3017
  127OSM   C18S13590   5.743   3.116   7.918 -0.0171  0.2516  0.3757
  127OSM   H18S13591   5.684   3.119   8.012 -2.3002 -0.4488 -1.0184
  127OSM   H18T13592   5.775   3.013   7.895 -1.9130 -0.4800  0.9018
  127OSM   H18U13593   5.672   3.142   7.837 -2.3686 -0.8493  2.0482
  127OSM    C1F13594   6.251   2.857   6.729  0.2137 -0.5790 -0.3081
  127OSM     OF13595   6.340   2.840   6.642  0.2206  0.4592 -0.1405
  127OSM    C2F13596   6.232   2.763   6.846 -0.9706  0.5932 -0.2834
  127OSM    H2F13597   6.193   2.667   6.807 -0.1331 -0.6323  1.8148
  127OSM    H2G13598   6.168   2.797   6.930 -0.4650  3.9403 -1.1677
  127OSM    C3F13599   6.365   2.742   6.928  0.0683 -0.5089  0.1795
  127OSM    H3F13600   6.393   2.839   6.973  0.9332 -0.4936 -0.3786
  127OSM    H3G13601   6.439   2.695   6.859  1.0255 -2.1149  2.2391
  127OSM    C4F13602   6.344   2.641   7.043  0.3463 -0.2154  0.2169
  127OSM    H4F13603   6.342   2.535   7.008  0.3073  1.3321 -4.7607
  127OSM    H4G13604   6.243   2.660   7.087 -0.1995  0.1903 -1.1860
  127OSM    C5F13605   6.449   2.640   7.155  0.3862 -0.3801  1.1024
  127OSM    H5F13606   6.452   2.742   7.199 -1.2857  0.2993 -0.2891
  127OSM    H5G13607   6.549   2.619   7.114  0.6079 -0.7624  1.8272
  127OSM    C6F13608   6.428   2.541   7.273  0.8819 -0.9198 -0.6906
  127OSM    H6F13609   6.441   2.437   7.238 -0.4339 -1.0116 -0.9197
  127OSM    H6G13610   6.325   2.557   7.312  1.3263  1.5047 -0.4104
  127OSM    C7F13611   6.512   2.571   7.399  0.5206 -0.4637  0.0966
  127OSM    H7F13612   6.480   2.666   7.446  1.8429  0.7109 -1.3538
  127OSM    H7G13613   6.618   2.591   7.373  0.5606 -0.2432  0.4278
  127OSM    C8F13614   6.510   2.462   7.504  0.0003 -0.1349  0.0937
  127OSM    H8F13615   6.588   2.394   7.464  0.5996  0.2578  0.5952
  127OSM    H8G13616   6.420   2.397   7.507  0.2893 -0.5212  0.3887
  127OSM    C9F13617   6.519   2.517   7.643 -1.2424 -0.3029 -0.4123
  127OSM    H9F13618   6.435   2.582   7.672 -2.1894 -1.9539  0.6215
  127OSM   C10F13619   6.625   2.494   7.726  0.5655  0.1520 -0.6171
  127OSM   H10F13620   6.618   2.538   7.827 -1.0009 -0.7858 -0.2940
  127OSM   C11F13621   6.749   2.424   7.679  0.5784 -0.1693  0.4135
  127OSM   H11F13622   6.786   2.467   7.584  1.0426 -0.3840  0.4934
  127OSM   H11G13623   6.743   2.313   7.682  0.2631 -0.1385  1.0002
  127OSM   C12F13624   6.866   2.462   7.777 -0.0246  0.7360  0.0468
  127OSM   H12F13625   6.960   2.417   7.739 -0.9061 -1.4252  0.3525
  127OSM   H12G13626   6.845   2.416   7.876  1.1008 -1.0274 -0.5081
  127OSM   C13F13627   6.909   2.609   7.801 -0.2275  0.2598 -0.2019
  127OSM   H13F13628   6.836   2.666   7.862  0.6679  3.1881 -1.7465
  127OSM   H13G13629   6.901   2.664   7.705  0.9710  0.7595 -0.0298
  127OSM   C14F13630   7.052   2.629   7.865  1.1687  0.6390  0.2811
  127OSM   H14F13631   7.127   2.614   7.785  0.4070  1.9201 -0.6901
  127OSM   H14G13632   7.072   2.572   7.958 -1.1293 -0.1366  0.3156
  127OSM   C15F13633   7.066   2.781   7.902  0.4046  0.2008 -0.2906
  127OSM   H15F13634   6.993   2.814   7.979  2.7380  2.3631  1.0925
  127OSM   H15G13635   7.048   2.843   7.812 -2.2532  0.0623  0.1033
  127OSM   C16F13636   7.203   2.812   7.954 -0.8738 -0.4158  0.0353
  127OSM   H16F13637   7.277   2.807   7.872 -1.1838 -0.3060 -0.2512
  127OSM   H16G13638   7.242   2.739   8.027 -1.1571 -1.1859 -0.5849
  127OSM   C17F13639   7.226   2.963   7.986  0.5477  0.4086 -0.2854
  127OSM   H17F13640   7.163   2.979   8.076 -1.3941  1.8947 -1.8630
  127OSM   H17G13641   7.191   3.031   7.906  0.5599 -0.9876 -1.4960
  127OSM   C18F13642   7.370   2.993   8.032 -0.3916  0.2460 -0.2781
  127OSM   H18F13643   7.393   2.934   8.123  3.1840  2.0356  0.0821
  127OSM   H18G13644   7.379   3.101   8.053  0.3826  0.3873 -1.2665
  127OSM   H18H13645   7.455   2.960   7.968  0.9693  1.6519  0.7752
  128OSM      N13646   6.792   5.990   6.115  0.7926 -0.3157  0.6535
  128OSM    C1513647   6.758   6.004   5.970 -0.3281 -0.1402 -0.4332
  128OSM   H15A13648   6.667   5.955   5.942 -0.2116 -0.0732 -0.9371
  128OSM   H15B13649   6.842   5.969   5.911 -1.0004 -1.6880 -0.4827
  128OSM   H15C13650   6.735   6.103   5.933 -2.0816 -0.0765  0.8124
  128OSM    C1413651   6.806   5.847   6.145  0.4849 -0.4041  0.0605
  128OSM   H14A13652   6.710   5.797   6.137 -0.8835  1.9935  0.9515
  128OSM   H14B13653   6.844   5.827   6.244  0.7154 -0.4361 -0.0344
  128OSM   H14C13654   6.872   5.795   6.078  0.8159 -2.8927  2.2094
  128OSM    C1313655   6.924   6.053   6.139  0.5003  0.2595 -1.1804
  128OSM   H13A13656   6.924   6.161   6.136  3.7610  0.4698  2.6999
  128OSM   H13B13657   7.001   6.015   6.074 -0.2004 -0.8647 -1.3623
  128OSM   H13C13658   6.942   6.048   6.245  0.2979  1.0199 -1.1039
  128OSM    C1213659   6.695   6.064   6.203 -0.5621 -0.1086  0.3742
  128OSM   H12A13660   6.737   6.072   6.302 -0.5759  3.2855  0.1748
  128OSM   H12B13661   6.609   5.999   6.199 -1.0110  0.4035  1.5014
  128OSM    C1113662   6.646   6.204   6.155  0.2393  0.1453 -0.7808
  128OSM   H11A13663   6.567   6.224   6.230  1.8635 -2.5718  1.7313
  128OSM   H11B13664   6.603   6.199   6.053 -2.1571  0.4750  0.1839
  128OSM      P13665   6.785   6.406   6.252 -0.1878  0.0499  0.2025
  128OSM    O1313666   6.932   6.424   6.255 -0.0309  0.1039  0.0676
  128OSM    O1413667   6.698   6.520   6.208  0.2371 -0.3209  0.2652
  128OSM    O1113668   6.735   6.337   6.390 -0.1693  0.5746 -0.2255
  128OSM    O1213669   6.760   6.292   6.150  0.2369  0.3422 -0.5276
  128OSM    C1S13670   6.824   6.321   6.503  0.8003 -0.1006 -0.5489
  128OSM    H1S13671   6.913   6.387   6.504 -0.8056  2.1341  3.0946
  128OSM    H1T13672   6.868   6.219   6.506 -0.0482 -0.5296 -2.2208
  128OSM     NF13673   6.835   6.385   6.743 -0.2514  0.4723 -0.5119
  128OSM    HNF13674   6.857   6.299   6.790  1.2184  0.3335 -1.4221
  128OSM    C2S13675   6.749   6.354   6.631 -0.1829  0.6690 -0.1273
  128OSM    H2S13676   6.683   6.438   6.602  0.9930  0.8444 -2.4210
  128OSM    C3S13677   6.653   6.234   6.653  0.2526  0.0669  0.1571
  128OSM    H3S13678   6.713   6.145   6.680  0.5989  0.7855  1.8274
  128OSM     O313679   6.577   6.189   6.537 -0.1168 -0.4405  0.7684
  128OSM    HO313680   6.613   6.251   6.473  0.6180 -0.7493  0.8771
  128OSM    C4S13681   6.564   6.245   6.769 -0.2807 -0.0080  0.2778
  128OSM    H4S13682   6.604   6.190   6.856 -1.2111  1.4984  1.6751
  128OSM    C5S13683   6.441   6.308   6.775  0.0016 -0.3119  0.4132
  128OSM    H5S13684   6.409   6.370   6.690  3.0318 -2.4093 -2.3503
  128OSM    C6S13685   6.343   6.309   6.898  0.0306 -0.3499  0.0902
  128OSM    H6S13686   6.266   6.232   6.877 -0.5467 -0.0759  1.1696
  128OSM    H6T13687   6.293   6.409   6.894  3.5152  1.3977 -1.9596
  128OSM    C7S13688   6.391   6.288   7.039 -0.3394 -0.1495  0.7733
  128OSM    H7S13689   6.486   6.344   7.054  0.2567 -0.4159 -1.8076
  128OSM    H7T13690   6.425   6.183   7.050  3.0240  0.8660  0.7109
  128OSM    C8S13691   6.275   6.300   7.137  0.0809 -0.5818  0.1693
  128OSM    H8S13692   6.186   6.244   7.103 -0.5495  0.8354 -0.5756
  128OSM    H8T13693   6.237   6.404   7.149 -0.0775 -0.5951 -0.2125
  128OSM    C9S13694   6.293   6.240   7.270 -0.1644  0.7338  0.0179
  128OSM    H9S13695   6.388   6.283   7.310 -0.8823 -1.0742  3.8873
  128OSM    H9T13696   6.321   6.136   7.245 -0.5425  0.8292 -0.8278
  128OSM   C10S13697   6.179   6.258   7.369 -0.5310 -0.5606 -0.5407
  128OSM   H10S13698   6.086   6.217   7.326  0.1624 -1.2303 -1.4326
  128OSM   H10T13699   6.177   6.365   7.399  0.1612 -1.1966  1.9084
  128OSM   C11S13700   6.205   6.180   7.498 -0.1121 -0.0692  0.0711
  128OSM   H11S13701   6.312   6.196   7.526 -0.8849  3.0398  1.4389
  128OSM   H11T13702   6.198   6.071   7.476 -0.1566 -0.0398 -0.0571
  128OSM   C12S13703   6.116   6.231   7.621  0.4452 -1.1099 -0.1959
  128OSM   H12S13704   6.022   6.175   7.606 -0.6543  0.5566  0.4234
  128OSM   H12T13705   6.085   6.336   7.606  2.0373 -0.2716  2.1002
  128OSM   C13S13706   6.189   6.196   7.747 -0.4290  1.1479 -0.4005
  128OSM   H13S13707   6.279   6.261   7.749  1.7380 -1.7755  0.5985
  128OSM   H13T13708   6.231   6.093   7.744  0.6648  1.5689  0.4455
  128OSM   C14S13709   6.113   6.232   7.874 -0.5148  0.2422  0.5192
  128OSM   H14S13710   6.024   6.166   7.882  0.9710 -1.8284  0.5609
  128OSM   H14T13711   6.085   6.339   7.863  0.5647  0.4226 -0.6635
  128OSM   C15S13712   6.184   6.214   8.006  0.2181 -0.3528 -0.9535
  128OSM   H15S13713   6.272   6.281   8.019  0.6503 -0.8358 -1.3659
  128OSM   H15T13714   6.221   6.109   8.002 -0.7829 -0.7074 -1.0918
  128OSM   C16S13715   6.091   6.218   8.130  0.0885  0.6599  0.2137
  128OSM   H16S13716   6.053   6.117   8.159  0.7669 -0.7332 -3.5256
  128OSM   H16T13717   6.005   6.277   8.092  0.5671  1.1696 -0.0751
  128OSM   C17S13718   6.142   6.266   8.259 -0.4367  0.4732  0.4913
  128OSM   H17S13719   6.246   6.228   8.266 -0.5585  0.0437 -0.0082
  128OSM   H17T13720   6.089   6.218   8.344 -2.8706  0.1065 -1.1975
  128OSM   C18S13721   6.141   6.422   8.281 -0.0537 -0.4472  0.8520
  128OSM   H18S13722   6.204   6.471   8.204  2.3439 -0.0649  2.9501
  128OSM   H18T13723   6.188   6.454   8.377  2.5457  0.7207 -0.7605
  128OSM   H18U13724   6.040   6.467   8.278 -0.8390 -2.0260  2.3962
  128OSM    C1F13725   6.910   6.494   6.758  0.2391  1.0410 -0.3536
  128OSM     OF13726   6.876   6.594   6.697  0.4217  0.5428  0.1597
  128OSM    C2F13727   7.014   6.487   6.871  0.1830 -0.0605 -0.4817
  128OSM    H2F13728   7.110   6.535   6.844  1.9520 -3.6595 -0.9145
  128OSM    H2G13729   7.045   6.383   6.897  1.2056 -0.0468 -1.6209
  128OSM    C3F13730   6.958   6.562   7.003  1.2925 -0.2827  0.4661
  128OSM    H3F13731   6.867   6.505   7.033  1.0149  0.1144  0.3834
  128OSM    H3G13732   6.928   6.667   6.985 -0.6213 -1.1421 -1.6623
  128OSM    C4F13733   7.056   6.555   7.121 -0.0680  0.1357 -0.8008
  128OSM    H4F13734   7.135   6.633   7.111 -0.2833  0.5761  0.8099
  128OSM    H4G13735   7.110   6.459   7.138 -1.4453 -0.7144 -1.1219
  128OSM    C5F13736   6.990   6.583   7.253  0.2984  0.0665 -0.1006
  128OSM    H5F13737   6.902   6.516   7.257  1.2965 -1.3307 -0.9576
  128OSM    H5G13738   6.955   6.688   7.260  1.6479  0.5286 -0.0291
  128OSM    C6F13739   7.087   6.553   7.365  0.3229  0.3184 -0.5509
  128OSM    H6F13740   7.173   6.620   7.342  1.5266  0.2667  3.4197
  128OSM    H6G13741   7.108   6.444   7.372 -0.3885  0.2521  0.8730
  128OSM    C7F13742   7.023   6.600   7.500  0.1624  0.4783  0.8205
  128OSM    H7F13743   6.967   6.696   7.494 -1.9552 -0.7144  1.1670
  128OSM    H7G13744   7.108   6.616   7.570  1.9902  0.6328 -1.3966
  128OSM    C8F13745   6.929   6.504   7.567  0.3452  0.6161 -0.5918
  128OSM    H8F13746   6.980   6.406   7.575 -0.8213 -0.0988 -1.8554
  128OSM    H8G13747   6.840   6.479   7.505 -0.1993  1.8403 -0.3401
  128OSM    C9F13748   6.885   6.564   7.696 -0.0323  0.6737 -0.0222
  128OSM    H9F13749   6.823   6.654   7.686  0.8776  1.0883 -2.3373
  128OSM   C10F13750   6.920   6.519   7.820 -0.6523  0.8935  0.7911
  128OSM   H10F13751   6.872   6.568   7.905 -0.8786  1.6777  0.2185
  128OSM   C11F13752   7.010   6.399   7.851 -0.0951  0.5589  0.1363
  128OSM   H11F13753   7.063   6.358   7.762 -1.5590 -0.4529 -0.2885
  128OSM   H11G13754   6.937   6.320   7.879 -2.2962  1.2078 -3.4439
  128OSM   C12F13755   7.110   6.418   7.967 -0.1584  0.6510  0.0107
  128OSM   H12F13756   7.186   6.497   7.948  0.8388 -0.4734 -0.7727
  128OSM   H12G13757   7.154   6.318   7.986 -0.5950  0.7209  1.4135
  128OSM   C13F13758   7.037   6.451   8.100 -0.0175 -0.5556  0.2682
  128OSM   H13F13759   6.937   6.405   8.112  0.3805 -1.7281 -0.8433
  128OSM   H13G13760   7.022   6.561   8.095  0.7031 -0.5646 -2.8155
  128OSM   C14F13761   7.116   6.399   8.227  0.7627 -0.0464 -0.1198
  128OSM   H14F13762   7.085   6.454   8.318 -1.0951  0.0108 -0.7620
  128OSM   H14G13763   7.225   6.416   8.215  0.4938  1.4921 -0.5172
  128OSM   C15F13764   7.101   6.252   8.261 -0.3766  0.1753 -0.3109
  128OSM   H15F13765   7.162   6.195   8.188  0.7445  1.7256 -0.6109
  128OSM   H15G13766   6.994   6.226   8.269 -0.6259  1.5600  0.9947
  128OSM   C16F13767   7.168   6.227   8.407  0.5710  0.0664 -0.4277
  128OSM   H16F13768   7.084   6.232   8.480 -0.1253 -0.3887 -1.1912
  128OSM   H16G13769   7.244   6.307   8.420  0.7947 -0.2420  0.2346
  128OSM   C17F13770   7.254   6.101   8.415  0.0799  0.4658  0.1065
  128OSM   H17F13771   7.311   6.095   8.320  0.6875 -0.8649  0.5371
  128OSM   H17G13772   7.187   6.012   8.419 -0.5380  0.9017 -0.4120
  128OSM   C18F13773   7.346   6.106   8.546  0.0494  0.0055 -0.2355
  128OSM   H18F13774   7.408   6.199   8.548 -0.0366  0.0583  2.0758
  128OSM   H18G13775   7.397   6.008   8.552  1.4407  0.7973  1.4992
  128OSM   H18H13776   7.272   6.103   8.629 -1.7374  1.1365 -1.7385
  129OSM      N13777   4.666   1.611   6.486 -0.1331  0.3001 -0.0275
  129OSM    C1513778   4.596   1.476   6.470  0.2242  0.4351 -0.4505
  129OSM   H15A13779   4.640   1.405   6.539  2.6269  0.2654 -2.0991
  129OSM   H15B13780   4.601   1.426   6.375  0.4597 -2.8163  1.1988
  129OSM   H15C13781   4.491   1.486   6.492  0.1267  0.5772 -0.9713
  129OSM    C1413782   4.596   1.728   6.423 -0.1958 -0.0618 -0.7969
  129OSM   H14A13783   4.503   1.744   6.476  0.1240  2.3178 -0.8939
  129OSM   H14B13784   4.562   1.718   6.321  0.6835 -0.3303 -1.0686
  129OSM   H14C13785   4.658   1.816   6.428 -0.9941  0.6121 -2.3844
  129OSM    C1313786   4.672   1.628   6.637 -0.0643 -0.5200  0.6540
  129OSM   H13A13787   4.696   1.731   6.661  0.2243 -0.6272  0.8249
  129OSM   H13B13788   4.741   1.559   6.683  0.7602 -0.8569 -1.0367
  129OSM   H13C13789   4.579   1.637   6.691  0.3078 -1.1117  1.3870
  129OSM    C1213790   4.814   1.614   6.440  0.3749 -0.4507  0.7116
  129OSM   H12A13791   4.868   1.558   6.515  0.1094 -0.1692  1.1127
  129OSM   H12B13792   4.857   1.712   6.453  1.9199 -0.8064 -1.3984
  129OSM    C1113793   4.838   1.567   6.291  0.0472 -0.0000  0.0236
  129OSM   H11A13794   4.936   1.604   6.254 -0.8146  0.9405 -1.3659
  129OSM   H11B13795   4.754   1.610   6.231 -0.2630 -0.4786  0.1124
  129OSM      P13796   4.958   1.336   6.296 -0.1158 -0.4356  0.7145
  129OSM    O1313797   4.991   1.279   6.164  0.1766  0.1959  0.0272
  129OSM    O1413798   5.066   1.404   6.362 -0.0219  0.2621 -0.0524
  129OSM    O1113799   4.902   1.231   6.396  0.2506 -0.3449 -0.6184
  129OSM    O1213800   4.828   1.427   6.278 -0.5166 -0.0366  0.3922
  129OSM    C1S13801   4.771   1.173   6.381 -0.1897 -0.0125  0.2222
  129OSM    H1S13802   4.763   1.114   6.287  1.5260 -3.3844  2.0856
  129OSM    H1T13803   4.693   1.251   6.374  0.1992  0.3790  0.2153
  129OSM     NF13804   4.627   0.992   6.475  0.1516  0.6213 -0.7024
  129OSM    HNF13805   4.545   0.998   6.532 -0.4392  0.5516 -1.5282
  129OSM    C2S13806   4.733   1.084   6.508 -1.1521  0.7522 -0.2821
  129OSM    H2S13807   4.826   1.029   6.532 -0.1842  2.0239 -1.0047
  129OSM    C3S13808   4.713   1.171   6.623  0.2300 -0.0763  0.5869
  129OSM    H3S13809   4.635   1.247   6.606 -0.6986 -1.2675 -0.5864
  129OSM     O313810   4.828   1.250   6.649  0.2937 -0.4906  0.1365
  129OSM    HO313811   4.884   1.247   6.572 -1.3095  2.4512 -1.2498
  129OSM    C4S13812   4.678   1.092   6.744  0.3724  0.4296  0.1268
  129OSM    H4S13813   4.764   1.032   6.779  1.7540  2.3231  0.0578
  129OSM    C5S13814   4.568   1.101   6.815 -0.4941  0.3613  0.6675
  129OSM    H5S13815   4.496   1.179   6.786  0.9501  1.8065  0.8701
  129OSM    C6S13816   4.534   1.029   6.942 -0.0592  0.0638  0.4631
  129OSM    H6S13817   4.598   0.940   6.957  0.0749 -0.1112 -1.0598
  129OSM    H6T13818   4.430   0.992   6.927 -0.6870  1.8049  0.3339
  129OSM    C7S13819   4.548   1.119   7.062  1.0420  0.5237  0.4117
  129OSM    H7S13820   4.471   1.090   7.136  0.0698  1.8301 -0.0630
  129OSM    H7T13821   4.510   1.219   7.031 -1.1052  0.1126  1.5750
  129OSM    C8S13822   4.695   1.123   7.119  0.1812  0.4722 -0.0055
  129OSM    H8S13823   4.751   1.145   7.025  0.2522  0.1244 -0.0428
  129OSM    H8T13824   4.722   1.025   7.163  0.5445  0.7990  0.5101
  129OSM    C9S13825   4.709   1.236   7.224 -0.0447  0.2407 -0.1002
  129OSM    H9S13826   4.678   1.331   7.176 -0.5266  0.8417  1.3925
  129OSM    H9T13827   4.815   1.242   7.256 -0.6832  0.2581  2.0391
  129OSM   C10S13828   4.639   1.220   7.360 -0.6715  0.4880  0.3947
  129OSM   H10S13829   4.709   1.170   7.430  1.7905 -0.9746 -2.9827
  129OSM   H10T13830   4.547   1.161   7.339 -0.3184 -0.4095  1.3386
  129OSM   C11S13831   4.586   1.345   7.416  0.6281 -0.8889  0.1201
  129OSM   H11S13832   4.496   1.374   7.358  0.7605  0.3742  0.5261
  129OSM   H11T13833   4.658   1.430   7.411  0.4405 -0.8344 -2.0589
  129OSM   C12S13834   4.539   1.316   7.559  0.1618  0.4435 -0.2524
  129OSM   H12S13835   4.632   1.301   7.619  0.2342  1.0675 -0.2000
  129OSM   H12T13836   4.481   1.222   7.568 -1.2920  1.5295  2.1401
  129OSM   C13S13837   4.458   1.427   7.627 -0.1437  0.1096 -0.5982
  129OSM   H13S13838   4.365   1.447   7.569 -1.7786 -1.7532  1.2835
  129OSM   H13T13839   4.506   1.527   7.635 -0.1165 -0.0014  0.6928
  129OSM   C14S13840   4.430   1.392   7.768 -0.0728  0.0126 -0.8672
  129OSM   H14S13841   4.523   1.393   7.829 -0.9381  1.1279  0.4521
  129OSM   H14T13842   4.398   1.286   7.776  0.3883 -0.0176  0.8323
  129OSM   C15S13843   4.332   1.487   7.829  0.4940  0.4740  0.1707
  129OSM   H15S13844   4.306   1.434   7.923 -0.6793 -0.7950 -0.8621
  129OSM   H15T13845   4.246   1.497   7.760 -1.6233 -1.0348  2.5182
  129OSM   C16S13846   4.390   1.625   7.875 -0.2202  0.4246  0.0302
  129OSM   H16S13847   4.411   1.680   7.780  0.4972 -0.5744 -0.3931
  129OSM   H16T13848   4.481   1.605   7.934  0.8391  0.2453 -1.6113
  129OSM   C17S13849   4.304   1.707   7.968 -0.2299 -0.7341 -0.4473
  129OSM   H17S13850   4.378   1.768   8.024 -0.0863  0.1434 -1.5810
  129OSM   H17T13851   4.252   1.645   8.044 -0.7904  1.2050  0.7874
  129OSM   C18S13852   4.203   1.791   7.899  0.4721 -0.1200  0.0780
  129OSM   H18S13853   4.234   1.889   7.858 -3.5914  0.7274 -1.1123
  129OSM   H18T13854   4.119   1.803   7.970  1.0517  0.0696  0.7424
  129OSM   H18U13855   4.156   1.738   7.814  1.2747  1.7056 -1.5529
  129OSM    C1F13856   4.648   0.891   6.398 -0.0609 -0.0704 -0.4313
  129OSM     OF13857   4.724   0.887   6.301  0.4829  0.2214 -0.1679
  129OSM    C2F13858   4.565   0.769   6.424  0.6657  0.3899  0.3931
  129OSM    H2F13859   4.603   0.691   6.353  0.0648 -1.0118  1.5829
  129OSM    H2G13860   4.458   0.788   6.404  0.6393  3.1523  2.7907
  129OSM    C3F13861   4.575   0.721   6.573 -0.4213 -0.8059 -0.5606
  129OSM    H3F13862   4.494   0.646   6.581 -1.2836  0.2372  0.6347
  129OSM    H3G13863   4.549   0.802   6.644  0.2634 -1.9507  1.0440
  129OSM    C4F13864   4.709   0.653   6.610 -0.5376  0.6331 -0.5069
  129OSM    H4F13865   4.795   0.719   6.633  1.2066 -0.7632 -2.7187
  129OSM    H4G13866   4.743   0.606   6.515 -2.2232  1.3586 -1.4806
  129OSM    C5F13867   4.683   0.574   6.739 -0.6522  0.3128  0.3795
  129OSM    H5F13868   4.783   0.561   6.786  0.2308  0.4789 -1.3834
  129OSM    H5G13869   4.631   0.478   6.716 -1.4967  0.9570 -0.4284
  129OSM    C6F13870   4.612   0.647   6.851  0.2808 -0.1740  0.6883
  129OSM    H6F13871   4.504   0.647   6.827  0.5466 -3.4331 -0.8400
  129OSM    H6G13872   4.656   0.749   6.858  0.6553 -0.2397 -0.7136
  129OSM    C7F13873   4.630   0.573   6.983 -0.1841  0.0040 -0.1784
  129OSM    H7F13874   4.738   0.573   7.012 -0.5486  0.8276  1.2372
  129OSM    H7G13875   4.598   0.468   6.966  0.2752  0.2161 -2.5778
  129OSM    C8F13876   4.549   0.633   7.101 -0.3441 -0.5804 -0.3355
  129OSM    H8F13877   4.444   0.663   7.078 -0.2503 -0.3519 -0.4646
  129OSM    H8G13878   4.604   0.725   7.129 -2.7634  0.2838  1.8372
  129OSM    C9F13879   4.562   0.541   7.224 -0.8397  0.4760  0.1013
  129OSM    H9F13880   4.526   0.436   7.223 -0.3540  0.3126 -1.2261
  129OSM   C10F13881   4.608   0.579   7.342  1.1151  0.2260  0.1018
  129OSM   H10F13882   4.622   0.498   7.415 -1.9831 -1.2634 -0.8796
  129OSM   C11F13883   4.656   0.710   7.405 -0.0030 -0.4110 -0.2432
  129OSM   H11F13884   4.616   0.799   7.353 -0.8423 -0.8306 -0.3141
  129OSM   H11G13885   4.763   0.732   7.382 -0.4457 -0.6914 -2.7893
  129OSM   C12F13886   4.640   0.728   7.561 -0.2578  0.0701 -0.5396
  129OSM   H12F13887   4.717   0.668   7.614 -1.1901 -2.3046 -1.8238
  129OSM   H12G13888   4.542   0.692   7.598 -0.6170 -0.3258 -1.8771
  129OSM   C13F13889   4.655   0.874   7.606  0.2432  0.0169  0.1205
  129OSM   H13F13890   4.597   0.937   7.535 -0.3504 -0.4260  0.2073
  129OSM   H13G13891   4.763   0.893   7.589 -0.4311  1.4725 -2.9855
  129OSM   C14F13892   4.614   0.884   7.755 -1.0148  0.7470 -0.3457
  129OSM   H14F13893   4.676   0.808   7.808 -4.0520 -0.6567  1.3495
  129OSM   H14G13894   4.507   0.857   7.759 -0.8948  0.0725 -1.4841
  129OSM   C15F13895   4.643   1.026   7.809 -0.2213  0.1397 -0.3762
  129OSM   H15F13896   4.568   1.092   7.760 -1.1101  0.4173  1.3237
  129OSM   H15G13897   4.740   1.072   7.784  1.5394 -2.3164  1.6537
  129OSM   C16F13898   4.627   1.025   7.958  0.3990 -0.6719 -0.4228
  129OSM   H16F13899   4.705   0.962   8.006  1.5573  2.0582  1.4421
  129OSM   H16G13900   4.531   0.987   7.999 -0.0626  1.0506  0.1335
  129OSM   C17F13901   4.636   1.169   8.024 -0.6875  0.7024  0.6247
  129OSM   H17F13902   4.554   1.236   7.992  0.2858  1.8554  0.5142
  129OSM   H17G13903   4.731   1.203   7.978  0.4392 -2.7528  0.1962
  129OSM   C18F13904   4.644   1.167   8.179  0.2322  0.4237 -0.3645
  129OSM   H18F13905   4.553   1.113   8.214 -0.2583  1.2013 -0.4343
  129OSM   H18G13906   4.633   1.272   8.212 -0.7662  1.1163 -2.8345
  129OSM   H18H13907   4.732   1.118   8.225 -0.7072  1.4966  2.7119
  130OSM      N13908   5.321   4.932   6.340 -0.3631  0.5306  0.5374
  130OSM    C1513909   5.288   4.963   6.199 -0.6692 -0.5089 -0.2816
  130OSM   H15A13910   5.368   4.959   6.126 -1.3681 -1.6306 -1.0010
  130OSM   H15B13911   5.260   5.068   6.201  0.5429 -0.1876  0.1287
  130OSM   H15C13912   5.206   4.905   6.159 -1.4574  1.6862 -1.9426
  130OSM    C1413913   5.347   4.783   6.369  0.4415 -0.3747  0.1968
  130OSM   H14A13914   5.428   4.731   6.320  1.0156 -1.0097  1.7889
  130OSM   H14B13915   5.257   4.725   6.355 -0.1853  0.7680 -0.6421
  130OSM   H14C13916   5.365   4.779   6.475 -1.1192  1.3011  0.5526
  130OSM    C1313917   5.453   4.997   6.377 -0.9064 -0.0092 -0.3992
  130OSM   H13A13918   5.533   4.952   6.321 -1.8568 -0.8458 -1.1087
  130OSM   H13B13919   5.485   4.995   6.480  0.0009 -0.8265 -0.6893
  130OSM   H13C13920   5.449   5.100   6.346 -1.1812 -0.1742 -0.9345
  130OSM    C1213921   5.206   4.973   6.430  0.7096 -0.1340 -0.0849
  130OSM   H12A13922   5.243   4.972   6.532 -0.6857  0.0209  0.4497
  130OSM   H12B13923   5.124   4.907   6.407  1.3421 -0.9505 -0.0126
  130OSM    C1113924   5.154   5.115   6.404 -0.1506 -0.2561  0.1261
  130OSM   H11A13925   5.239   5.181   6.377  0.9518 -1.7532 -0.1484
  130OSM   H11B13926   5.103   5.143   6.499  2.6124  1.2644  1.1954
  130OSM      P13927   4.984   5.225   6.250 -0.1531  0.1961  0.1244
  130OSM    O1313928   5.063   5.318   6.167  0.4665 -0.0923  0.0054
  130OSM    O1413929   4.864   5.167   6.189  0.4244 -0.0678 -0.1166
  130OSM    O1113930   4.936   5.295   6.385 -0.8840  0.2949  0.0373
  130OSM    O1213931   5.064   5.103   6.301  0.0822 -0.2287  0.6724
  130OSM    C1S13932   4.857   5.228   6.481 -0.0411 -0.0354 -0.4154
  130OSM    H1S13933   4.890   5.123   6.499 -1.2311 -0.0878  1.6800
  130OSM    H1T13934   4.756   5.236   6.437  0.5689  1.0162 -1.6523
  130OSM     NF13935   4.774   5.214   6.715  0.1245  0.0546 -0.0990
  130OSM    HNF13936   4.682   5.244   6.739 -0.0920 -1.4527  1.0597
  130OSM    C2S13937   4.857   5.296   6.627  0.0722  0.8661  0.8069
  130OSM    H2S13938   4.961   5.294   6.667  0.6202 -1.9073 -0.6510
  130OSM    C3S13939   4.813   5.442   6.628 -0.1759  0.3510 -0.0151
  130OSM    H3S13940   4.702   5.447   6.623 -0.3521  0.1563  2.8284
  130OSM     O313941   4.866   5.522   6.520  0.0771 -0.3098  0.1222
  130OSM    HO313942   4.897   5.456   6.458  0.4689  1.0359 -1.1338
  130OSM    C4S13943   4.851   5.495   6.763  0.5108  0.3635  0.3486
  130OSM    H4S13944   4.780   5.461   6.840 -1.9474  0.1877 -1.9564
  130OSM    C5S13945   4.965   5.563   6.804 -0.0062  0.9474  0.7288
  130OSM    H5S13946   5.045   5.584   6.732 -1.5045  0.0220 -1.2637
  130OSM    C6S13947   4.988   5.605   6.946  0.4419 -0.2667  0.2999
  130OSM    H6S13948   4.972   5.715   6.950 -1.8965 -0.4803 -1.6962
  130OSM    H6T13949   5.089   5.572   6.977  0.5057 -0.8596 -0.5069
  130OSM    C7S13950   4.888   5.553   7.054  0.0489 -0.6806  0.2432
  130OSM    H7S13951   4.897   5.442   7.056  0.0258 -0.6523  2.8719
  130OSM    H7T13952   4.787   5.596   7.039  0.7921  1.0515  0.0487
  130OSM    C8S13953   4.930   5.599   7.195  0.0162  0.3651  0.3078
  130OSM    H8S13954   4.913   5.708   7.195  0.3537  0.4204  0.9465
  130OSM    H8T13955   5.034   5.569   7.220 -0.6687 -1.3768  1.1650
  130OSM    C9S13956   4.834   5.540   7.306  0.0677 -0.0706  0.0781
  130OSM    H9S13957   4.842   5.430   7.290  1.6671 -0.4120  2.8685
  130OSM    H9T13958   4.729   5.565   7.280  0.4378  0.4255 -0.9642
  130OSM   C10S13959   4.862   5.591   7.447 -0.2323  0.3204  0.5245
  130OSM   H10S13960   4.845   5.701   7.455  0.0288  0.3293  0.9644
  130OSM   H10T13961   4.960   5.558   7.485  0.3762  0.4441 -0.8903
  130OSM   C11S13962   4.768   5.531   7.550 -0.2912  0.4436  0.0912
  130OSM   H11S13963   4.754   5.423   7.531  1.3653  0.3923 -0.9533
  130OSM   H11T13964   4.670   5.583   7.556  1.2122  3.1882  2.8712
  130OSM   C12S13965   4.818   5.552   7.697  0.0562  0.6883 -0.3438
  130OSM   H12S13966   4.863   5.653   7.708  2.1993 -0.0794 -1.7267
  130OSM   H12T13967   4.900   5.482   7.726  0.3827  1.6352  1.0694
  130OSM   C13S13968   4.697   5.540   7.795  0.4644 -0.1570 -0.2019
  130OSM   H13S13969   4.663   5.434   7.800  0.5560 -0.1414  0.7338
  130OSM   H13T13970   4.616   5.605   7.758  0.0724 -0.3776  0.2661
  130OSM   C14S13971   4.743   5.585   7.935 -0.7370  0.0368 -0.3448
  130OSM   H14S13972   4.771   5.692   7.922 -0.0093  0.0180  0.9822
  130OSM   H14T13973   4.831   5.527   7.970 -0.5535 -0.6217 -1.8691
  130OSM   C15S13974   4.636   5.573   8.041  0.1028  0.1748  0.6449
  130OSM   H15S13975   4.623   5.469   8.077 -1.0576 -0.4186 -1.4304
  130OSM   H15T13976   4.536   5.597   7.999 -1.1383 -4.7303  0.4655
  130OSM   C16S13977   4.665   5.674   8.157 -0.2603 -0.0698  0.5210
  130OSM   H16S13978   4.669   5.777   8.115 -1.8819 -1.1292 -2.3645
  130OSM   H16T13979   4.767   5.647   8.191  0.1042 -0.4298 -0.8075
  130OSM   C17S13980   4.568   5.671   8.280 -0.1853  0.1021 -0.1165
  130OSM   H17S13981   4.602   5.577   8.329 -0.6848  0.9843  1.9992
  130OSM   H17T13982   4.461   5.667   8.249 -0.0734 -1.4884 -0.3586
  130OSM   C18S13983   4.599   5.785   8.371 -0.2467  0.3978 -0.7439
  130OSM   H18S13984   4.698   5.769   8.421  0.6886 -0.9629 -2.9401
  130OSM   H18T13985   4.520   5.796   8.448  0.7611 -1.2997  0.5966
  130OSM   H18U13986   4.605   5.883   8.321 -0.8172  1.2461  0.8168
  130OSM    C1F13987   4.811   5.093   6.751  0.6787  0.6588  0.4500
  130OSM     OF13988   4.921   5.054   6.721  0.3098  0.9284  0.0363
  130OSM    C2F13989   4.708   5.014   6.824  1.0173 -0.0444  0.5567
  130OSM    H2F13990   4.710   4.905   6.799 -2.1123 -0.2482  0.9511
  130OSM    H2G13991   4.607   5.050   6.795  0.8061 -1.8500 -1.0424
  130OSM    C3F13992   4.737   5.023   6.980  0.5531  1.0449 -0.2628
  130OSM    H3F13993   4.842   4.989   6.995 -0.1769 -2.6652 -2.7606
  130OSM    H3G13994   4.681   4.935   7.019  2.9310 -0.9353 -1.2140
  130OSM    C4F13995   4.702   5.152   7.057  0.3297  0.4589 -0.1246
  130OSM    H4F13996   4.596   5.178   7.034 -0.0854 -2.0132 -1.2041
  130OSM    H4G13997   4.765   5.235   7.020  1.5757 -0.2540  0.3815
  130OSM    C5F13998   4.725   5.118   7.209 -0.4355  0.1165  0.3367
  130OSM    H5F13999   4.696   5.014   7.233 -0.0920 -0.5692 -2.0278
  130OSM    H5G14000   4.674   5.188   7.278  0.0159  1.9708 -1.1464
  130OSM    C6F14001   4.873   5.120   7.242 -0.1027  0.1618  0.0884
  130OSM    H6F14002   4.916   5.215   7.203 -0.0026 -1.2468 -3.4260
  130OSM    H6G14003   4.922   5.036   7.188 -0.9491  0.4486 -1.1700
  130OSM    C7F14004   4.898   5.114   7.395 -0.0966 -1.4058  0.1399
  130OSM    H7F14005   4.898   5.003   7.408  1.8054 -1.6105 -1.2791
  130OSM    H7G14006   4.807   5.148   7.448 -0.4547  0.1894 -1.4627
  130OSM    C8F14007   5.023   5.191   7.441 -0.3243 -0.0984  0.5848
  130OSM    H8F14008   5.026   5.299   7.415  0.4241 -0.1556  0.4100
  130OSM    H8G14009   5.110   5.157   7.380  1.9248  1.0888  3.0276
  130OSM    C9F14010   5.032   5.179   7.591  0.2344  0.2543 -0.6034
  130OSM    H9F14011   4.972   5.103   7.643 -0.3917  2.1039  1.5160
  130OSM   C10F14012   5.117   5.253   7.662 -0.5864  0.3168 -0.1174
  130OSM   H10F14013   5.118   5.226   7.769 -0.6804 -2.9504 -0.9158
  130OSM   C11F14014   5.212   5.364   7.614 -0.5954  0.0644 -0.2769
  130OSM   H11F14015   5.172   5.465   7.633  0.6772  0.4020  0.6989
  130OSM   H11G14016   5.237   5.351   7.506 -0.4690  1.7754 -0.4576
  130OSM   C12F14017   5.348   5.332   7.691  0.3404  0.3600  0.5116
  130OSM   H12F14018   5.432   5.394   7.653  1.3783 -1.3955 -0.1146
  130OSM   H12G14019   5.385   5.229   7.670 -1.0995 -0.0122 -0.2742
  130OSM   C13F14020   5.335   5.345   7.848 -0.3986  0.1405 -0.4078
  130OSM   H13F14021   5.274   5.261   7.887 -1.7058  1.1376 -0.2386
  130OSM   H13G14022   5.280   5.439   7.872  0.7275  0.5689  0.5057
  130OSM   C14F14023   5.465   5.349   7.922 -0.4042  0.6712  0.3556
  130OSM   H14F14024   5.531   5.420   7.868 -0.3824  1.9537  2.0311
  130OSM   H14G14025   5.505   5.246   7.917 -3.2501 -0.3669 -2.2665
  130OSM   C15F14026   5.448   5.394   8.067 -0.0053 -0.5205 -0.0703
  130OSM   H15F14027   5.412   5.308   8.128  0.1302 -0.9294 -0.5675
  130OSM   H15G14028   5.375   5.477   8.075  0.2709 -0.2357 -0.4767
  130OSM   C16F14029   5.580   5.448   8.124 -0.0853 -0.9749  0.3290
  130OSM   H16F14030   5.618   5.539   8.073  0.4853 -1.2230  0.3063
  130OSM   H16G14031   5.665   5.378   8.108  0.9853  0.6056 -1.0975
  130OSM   C17F14032   5.566   5.482   8.272 -0.0932 -0.0333 -0.0081
  130OSM   H17F14033   5.488   5.418   8.317 -1.6570  1.7089 -0.1720
  130OSM   H17G14034   5.536   5.588   8.285  0.4806  0.3747 -1.8633
  130OSM   C18F14035   5.694   5.467   8.352 -0.5221 -0.0143 -0.1043
  130OSM   H18F14036   5.762   5.542   8.308 -2.4274  0.4671 -2.3372
  130OSM   H18G14037   5.734   5.364   8.337  1.1918  0.3447  1.9071
  130OSM   H18H14038   5.680   5.468   8.462 -3.0987  2.8212 -0.4055
  131OSM      N14039   4.694   2.555   6.047 -0.7982 -0.1922  0.3474
  131OSM    C1514040   4.798   2.450   6.023  0.4432 -0.0472 -0.9371
  131OSM   H15A14041   4.772   2.387   5.940 -0.7808  0.0173 -0.6161
  131OSM   H15B14042   4.797   2.394   6.115 -0.2025 -1.1108 -1.5869
  131OSM   H15C14043   4.896   2.493   6.015  0.0103  1.2322  0.3494
  131OSM    C1414044   4.693   2.652   5.927 -0.0050  0.5759 -0.6169
  131OSM   H14A14045   4.618   2.729   5.934  0.3571  1.0226 -1.5920
  131OSM   H14B14046   4.689   2.594   5.836  3.4616 -2.0512  0.7888
  131OSM   H14C14047   4.782   2.712   5.929  0.8454 -0.6771  1.7940
  131OSM    C1314048   4.555   2.501   6.042 -0.0054 -0.4792 -0.0855
  131OSM   H13A14049   4.480   2.579   6.037 -2.8755 -3.0612  1.1648
  131OSM   H13B14050   4.543   2.441   6.131 -0.4500 -2.0622 -1.1916
  131OSM   H13C14051   4.553   2.435   5.956 -0.1709  0.3536 -0.7276
  131OSM    C1214052   4.715   2.630   6.179 -0.4602  0.1549 -0.4200
  131OSM   H12A14053   4.690   2.556   6.254  0.3710  0.5084  0.2125
  131OSM   H12B14054   4.645   2.712   6.183 -2.8298 -1.7695 -0.8833
  131OSM    C1114055   4.860   2.683   6.208  0.4067 -0.1842 -0.0711
  131OSM   H11A14056   4.928   2.598   6.187  0.8034  0.3465 -0.9280
  131OSM   H11B14057   4.875   2.704   6.316 -0.9688 -2.3007  0.5646
  131OSM      P14058   4.868   2.931   6.124 -0.5998  0.0396 -0.1410
  131OSM    O1314059   4.919   3.004   6.008  0.8931 -0.4732 -0.1581
  131OSM    O1414060   4.723   2.945   6.159  0.1384 -0.4210  0.3775
  131OSM    O1114061   4.956   2.957   6.254  0.2665 -0.3495  0.6816
  131OSM    O1214062   4.904   2.779   6.101  0.0455  0.4406 -0.0359
  131OSM    C1S14063   5.095   2.937   6.261  0.1939 -0.8021  0.3270
  131OSM    H1S14064   5.154   3.000   6.190 -0.7362  1.5863  1.5885
  131OSM    H1T14065   5.125   2.834   6.232 -1.2225 -1.0847 -0.1390
  131OSM     NF14066   5.282   2.967   6.423  0.0801  0.2616 -0.4554
  131OSM    HNF14067   5.324   2.878   6.437  0.5577  0.4839 -0.4751
  131OSM    C2S14068   5.138   2.954   6.411  0.0761 -0.2636 -0.0275
  131OSM    H2S14069   5.090   3.045   6.453  2.3311  1.4877 -1.1643
  131OSM    C3S14070   5.082   2.831   6.500 -0.7706 -0.5173  0.8450
  131OSM    H3S14071   5.112   2.737   6.449 -0.7093 -0.4848  0.8215
  131OSM     O314072   4.938   2.841   6.505  0.1080 -0.3797 -0.2192
  131OSM    HO314073   4.922   2.900   6.432 -0.1162  1.7895  1.5127
  131OSM    C4S14074   5.144   2.825   6.636  0.1511 -0.6280 -0.3444
  131OSM    H4S14075   5.227   2.753   6.641 -0.0369 -0.8252 -0.0357
  131OSM    C5S14076   5.106   2.898   6.749  0.1929 -0.4888  0.4315
  131OSM    H5S14077   5.029   2.974   6.736 -1.1294 -1.9074 -0.1416
  131OSM    C6S14078   5.183   2.885   6.883 -0.2683  0.2709  0.4597
  131OSM    H6S14079   5.229   2.976   6.926  2.7408 -2.6410  3.7181
  131OSM    H6T14080   5.275   2.824   6.877  0.0555  0.6595  1.4109
  131OSM    C7S14081   5.102   2.823   7.001  0.2394  0.0854  0.4936
  131OSM    H7S14082   5.074   2.722   6.963 -0.2579  0.3849  0.0714
  131OSM    H7T14083   5.006   2.879   7.000  1.1203  1.5699 -1.8132
  131OSM    C8S14084   5.171   2.837   7.134 -0.0736 -0.0582  0.0381
  131OSM    H8S14085   5.206   2.940   7.156  2.2112 -1.1820  1.9083
  131OSM    H8T14086   5.267   2.780   7.136 -0.8383 -1.4083 -1.3671
  131OSM    C9S14087   5.077   2.795   7.253 -0.2830 -0.8062  0.4828
  131OSM    H9S14088   5.063   2.685   7.249  0.6807 -0.9459  0.7659
  131OSM    H9T14089   4.981   2.849   7.239  0.5253  0.4767 -0.2747
  131OSM   C10S14090   5.143   2.837   7.387  0.6031 -0.2658 -0.6882
  131OSM   H10S14091   5.209   2.927   7.384  0.3285 -0.0888 -1.4934
  131OSM   H10T14092   5.214   2.760   7.425  0.7176 -0.5901 -1.5585
  131OSM   C11S14093   5.039   2.858   7.497 -0.2657  0.1971  0.3310
  131OSM   H11S14094   4.970   2.772   7.492  1.4971 -1.2984  1.2036
  131OSM   H11T14095   5.005   2.961   7.469  4.3329  1.5862 -0.5876
  131OSM   C12S14096   5.092   2.850   7.636  0.6053  0.4749 -0.0392
  131OSM   H12S14097   5.158   2.938   7.652  0.2142  1.4092 -3.2124
  131OSM   H12T14098   5.146   2.753   7.639 -0.1135  0.0895  0.4274
  131OSM   C13S14099   4.989   2.845   7.744 -0.2023 -0.6384  0.6583
  131OSM   H13S14100   4.933   2.753   7.716  1.3119 -1.3478 -0.1015
  131OSM   H13T14101   4.933   2.940   7.735  0.5388 -0.3164 -0.9149
  131OSM   C14S14102   5.032   2.833   7.890 -0.2331 -0.3554  0.4578
  131OSM   H14S14103   5.105   2.914   7.913 -0.0784 -0.7684  1.4410
  131OSM   H14T14104   5.103   2.748   7.890 -1.4527 -1.3799  0.8120
  131OSM   C15S14105   4.925   2.824   7.995 -0.4781  0.7044  0.0878
  131OSM   H15S14106   4.852   2.743   7.972  0.2352  0.5024 -1.4983
  131OSM   H15T14107   4.874   2.923   7.996 -1.0447  0.4216  2.3234
  131OSM   C16S14108   5.001   2.796   8.134  0.0749 -0.4362  0.2929
  131OSM   H16S14109   5.096   2.854   8.133 -0.6777  0.8261 -1.0954
  131OSM   H16T14110   5.034   2.690   8.133 -0.4901 -0.6322  1.6732
  131OSM   C17S14111   4.903   2.835   8.236  0.3203  1.2754 -0.3420
  131OSM   H17S14112   4.820   2.761   8.227  0.1555  1.3372  0.6776
  131OSM   H17T14113   4.852   2.934   8.231 -1.8551  0.1422 -1.5011
  131OSM   C18S14114   4.968   2.823   8.382  0.8535  0.0493  0.7156
  131OSM   H18S14115   5.057   2.888   8.390  1.4909 -0.7424  0.1873
  131OSM   H18T14116   4.999   2.719   8.408 -0.0311 -0.0888  1.2196
  131OSM   H18U14117   4.890   2.854   8.454  0.5242  0.4226  0.1990
  131OSM    C1F14118   5.361   3.069   6.390 -0.0831 -0.2456 -0.6974
  131OSM     OF14119   5.308   3.163   6.328 -0.5143  0.0190 -0.5306
  131OSM    C2F14120   5.511   3.078   6.421  0.1330  0.3596 -0.0456
  131OSM    H2F14121   5.532   3.188   6.419 -1.3856  0.6423 -3.0939
  131OSM    H2G14122   5.579   3.019   6.357  0.6536 -1.6052  2.2575
  131OSM    C3F14123   5.529   3.035   6.567 -1.0715  1.3243 -0.2782
  131OSM    H3F14124   5.531   2.923   6.565  3.1781  1.2681  0.9889
  131OSM    H3G14125   5.450   3.064   6.638  0.9529 -1.1172  3.1252
  131OSM    C4F14126   5.663   3.091   6.638  0.0958  0.3464 -0.4686
  131OSM    H4F14127   5.682   3.200   6.624 -0.9214  0.6766  0.5982
  131OSM    H4G14128   5.744   3.034   6.587 -0.0937  0.3238 -0.7447
  131OSM    C5F14129   5.672   3.053   6.785  0.2929  0.2927  0.3084
  131OSM    H5F14130   5.676   2.943   6.800 -2.7310 -0.2567 -2.4845
  131OSM    H5G14131   5.576   3.090   6.827  1.7146  1.4473  2.6580
  131OSM    C6F14132   5.779   3.128   6.861 -0.4042 -0.5616 -0.2203
  131OSM    H6F14133   5.777   3.236   6.836  0.3205 -0.4717  0.0836
  131OSM    H6G14134   5.882   3.093   6.838 -0.5277 -1.4458  0.5212
  131OSM    C7F14135   5.768   3.096   7.010  0.2551  0.3943  0.5170
  131OSM    H7F14136   5.780   2.985   7.015 -0.1656  0.3310  0.1560
  131OSM    H7G14137   5.664   3.108   7.044  0.9642  0.7919  2.5900
  131OSM    C8F14138   5.861   3.160   7.110 -0.2591 -0.2106 -0.2948
  131OSM    H8F14139   5.850   3.270   7.109  1.1786 -0.0460 -2.1112
  131OSM    H8G14140   5.967   3.135   7.086  0.3716  1.8592  0.2605
  131OSM    C9F14141   5.838   3.108   7.247 -0.0311  0.1260  0.1736
  131OSM    H9F14142   5.750   3.041   7.248  0.2216 -0.2322 -1.0307
  131OSM   C10F14143   5.922   3.119   7.354  0.2839 -0.1388  0.3555
  131OSM   H10F14144   5.898   3.090   7.457 -1.8950  1.8572  0.4547
  131OSM   C11F14145   6.053   3.191   7.361  0.2833 -0.6069 -0.2178
  131OSM   H11F14146   6.040   3.294   7.401  1.1176  0.1261 -1.7698
  131OSM   H11G14147   6.096   3.215   7.261 -1.6367 -3.0235 -1.6959
  131OSM   C12F14148   6.146   3.116   7.446 -0.6164 -0.2564  0.2485
  131OSM   H12F14149   6.244   3.166   7.431 -1.9509  2.5335  0.4851
  131OSM   H12G14150   6.160   3.009   7.421 -2.0808 -0.1367 -1.1803
  131OSM   C13F14151   6.125   3.115   7.595 -0.0533 -0.1796  0.3705
  131OSM   H13F14152   6.034   3.056   7.616  0.2539 -0.8178 -0.0631
  131OSM   H13G14153   6.116   3.218   7.636  0.9143 -0.9119  2.4829
  131OSM   C14F14154   6.243   3.055   7.668  0.1036  0.6638  0.3476
  131OSM   H14F14155   6.335   3.117   7.659 -0.9806  2.1210 -0.7981
  131OSM   H14G14156   6.264   2.958   7.619  1.4742  1.6613 -1.1074
  131OSM   C15F14157   6.214   3.005   7.815 -0.8726  0.4972 -0.7502
  131OSM   H15F14158   6.290   2.933   7.852  1.9508  3.7892  0.1722
  131OSM   H15G14159   6.118   2.950   7.815 -0.8932  0.4971  0.9172
  131OSM   C16F14160   6.212   3.118   7.918 -0.4470  0.1796 -0.0268
  131OSM   H16F14161   6.142   3.195   7.880 -0.2153 -0.4731 -1.8096
  131OSM   H16G14162   6.318   3.151   7.926 -0.1308 -1.0647  1.2482
  131OSM   C17F14163   6.166   3.065   8.056 -0.6770  0.1116  0.5905
  131OSM   H17F14164   6.240   2.984   8.075 -1.0996 -0.2922  0.5150
  131OSM   H17G14165   6.069   3.013   8.043 -0.1732 -0.3521 -1.3964
  131OSM   C18F14166   6.161   3.168   8.166 -0.0745  0.2391  0.2276
  131OSM   H18F14167   6.120   3.261   8.123  2.5970  0.9966 -0.7586
  131OSM   H18G14168   6.265   3.191   8.197 -0.1256  0.5955  0.1389
  131OSM   H18H14169   6.103   3.137   8.256  0.5679 -1.5959  0.0445
  132OSM      N14170   0.999   1.216   6.149  1.2701 -0.2460 -0.3803
  132OSM    C1514171   1.044   1.360   6.146 -0.7448  0.4188  0.5865
  132OSM   H15A14172   1.051   1.395   6.044 -0.7526 -1.2188  0.0081
  132OSM   H15B14173   1.138   1.388   6.191  0.0492  0.3508 -0.9851
  132OSM   H15C14174   0.973   1.418   6.203 -0.3353  0.1688  1.3529
  132OSM    C1414175   0.871   1.210   6.063 -0.9220  0.0552 -0.4967
  132OSM   H14A14176   0.896   1.241   5.962  0.7129  1.3809  0.2864
  132OSM   H14B14177   0.805   1.286   6.102 -1.2604 -0.2449 -0.4922
  132OSM   H14C14178   0.820   1.115   6.062 -1.2645  0.2336 -1.6898
  132OSM    C1314179   1.107   1.123   6.093 -0.0532  0.4808 -0.7482
  132OSM   H13A14180   1.074   1.023   6.068  0.0295  0.4464 -0.7219
  132OSM   H13B14181   1.185   1.100   6.165  0.4457 -1.0841 -1.7730
  132OSM   H13C14182   1.160   1.152   6.004  2.2154 -0.3902  0.2839
  132OSM    C1214183   0.963   1.183   6.298  0.2884 -0.0094  0.0016
  132OSM   H12A14184   0.871   1.229   6.331 -0.4363 -1.5703  0.2234
  132OSM   H12B14185   1.040   1.218   6.365  0.9212  0.9742 -1.2204
  132OSM    C1114186   0.926   1.038   6.346  0.2584  0.0797 -0.1447
  132OSM   H11A14187   0.896   1.062   6.450  0.8132  1.2429 -0.2557
  132OSM   H11B14188   1.012   0.968   6.335  1.3695  1.1743  1.5391
  132OSM      P14189   0.729   0.870   6.295 -0.5327  0.2075  0.1541
  132OSM    O1314190   0.591   0.892   6.252 -0.4355  0.0274  0.4270
  132OSM    O1414191   0.801   0.759   6.234 -0.2738  0.2310 -0.0186
  132OSM    O1114192   0.730   0.859   6.455  0.0650 -0.3132  0.1546
  132OSM    O1214193   0.809   1.001   6.265  0.2803 -0.0472  0.0508
  132OSM    C1S14194   0.664   0.751   6.522 -0.6313  0.4020  0.0569
  132OSM    H1S14195   0.671   0.657   6.463 -2.1584  0.0749  0.3866
  132OSM    H1T14196   0.558   0.771   6.548 -0.7192  0.3682 -0.2717
  132OSM     NF14197   0.663   0.609   6.715  0.3302  0.5838 -0.4891
  132OSM    HNF14198   0.579   0.620   6.768  0.1401 -0.8088 -0.5006
  132OSM    C2S14199   0.712   0.738   6.665  0.7283  0.9378  0.2012
  132OSM    H2S14200   0.822   0.731   6.668  0.5592 -2.4566 -0.1380
  132OSM    C3S14201   0.675   0.857   6.753  0.3363  0.4444  0.5659
  132OSM    H3S14202   0.565   0.877   6.745  0.6095  0.7564 -3.7023
  132OSM     O314203   0.725   0.979   6.696 -0.2924  0.4326  0.2905
  132OSM    HO314204   0.752   0.951   6.608 -2.2373  0.3840 -0.3350
  132OSM    C4S14205   0.715   0.848   6.894 -0.8989  0.3541  0.2671
  132OSM    H4S14206   0.824   0.851   6.902 -0.8351  1.2721 -0.7504
  132OSM    C5S14207   0.645   0.821   7.001  0.9213  1.0577 -0.5867
  132OSM    H5S14208   0.539   0.796   6.993  1.1293 -0.3451  0.7332
  132OSM    C6S14209   0.699   0.829   7.141  0.2412 -0.5948  0.0594
  132OSM    H6S14210   0.773   0.749   7.160 -0.9989 -2.1612 -1.5904
  132OSM    H6T14211   0.622   0.802   7.217  1.1052 -1.6940  0.5547
  132OSM    C7S14212   0.770   0.961   7.176 -0.3516 -0.6698 -0.0664
  132OSM    H7S14213   0.699   1.042   7.149 -0.6281 -0.7201  0.5103
  132OSM    H7T14214   0.866   0.970   7.120 -1.0769 -0.6550 -1.3374
  132OSM    C8S14215   0.806   0.986   7.326  0.2571 -0.0808  0.2150
  132OSM    H8S14216   0.871   1.074   7.347  0.2026  0.8717 -3.2591
  132OSM    H8T14217   0.858   0.895   7.360 -1.3577 -0.6742  1.1473
  132OSM    C9S14218   0.676   1.005   7.404  0.1795  0.3343  0.0059
  132OSM    H9S14219   0.600   0.937   7.359 -1.1278 -0.8512  3.8378
  132OSM    H9T14220   0.639   1.107   7.380  1.5589  0.6106 -1.0477
  132OSM   C10S14221   0.702   0.978   7.548  0.6747 -0.3521 -0.5590
  132OSM   H10S14222   0.793   1.028   7.587 -1.1699  2.8380 -0.1449
  132OSM   H10T14223   0.715   0.868   7.557  0.0409 -0.4611 -0.9759
  132OSM   C11S14224   0.581   1.006   7.641 -0.2950 -0.1982 -0.4274
  132OSM   H11S14225   0.492   0.943   7.616  0.3847 -0.9480 -0.9986
  132OSM   H11T14226   0.557   1.113   7.624  1.3353  0.2096 -0.1825
  132OSM   C12S14227   0.610   0.983   7.790  0.3985  0.8836 -0.3523
  132OSM   H12S14228   0.654   1.074   7.837 -0.5389  0.9766  0.3505
  132OSM   H12T14229   0.689   0.905   7.801  0.9606  1.3141 -1.2779
  132OSM   C13S14230   0.490   0.957   7.875 -0.1219 -0.1943 -0.1146
  132OSM   H13S14231   0.436   0.880   7.816  2.8168 -3.2559  0.9854
  132OSM   H13T14232   0.424   1.043   7.898  1.0487  0.7711 -0.3522
  132OSM   C14S14233   0.523   0.890   8.005 -0.4731 -0.1885 -0.1179
  132OSM   H14S14234   0.611   0.823   7.995  0.7497  0.8218  3.3371
  132OSM   H14T14235   0.439   0.825   8.037 -1.8964  1.0582 -1.2243
  132OSM   C15S14236   0.553   0.987   8.124  0.0683  0.2170 -0.9245
  132OSM   H15S14237   0.459   1.036   8.159 -0.8406 -1.7127 -0.5933
  132OSM   H15T14238   0.621   1.065   8.082 -0.3571  0.3763 -1.3169
  132OSM   C16S14239   0.640   0.920   8.236 -0.2192 -0.1085 -0.2263
  132OSM   H16S14240   0.748   0.920   8.210 -0.3895 -0.7557 -0.9203
  132OSM   H16T14241   0.608   0.814   8.245  0.7223 -0.2702  1.7130
  132OSM   C17S14242   0.616   0.980   8.378  0.6152 -0.3342  0.1505
  132OSM   H17S14243   0.510   0.969   8.409  0.2951  2.1290  0.0006
  132OSM   H17T14244   0.648   1.085   8.394  0.0510 -0.4752  2.3960
  132OSM   C18S14245   0.687   0.898   8.488 -0.0573  0.0552  0.4877
  132OSM   H18S14246   0.666   0.789   8.494  0.4590 -0.0491  0.3936
  132OSM   H18T14247   0.660   0.937   8.588  1.9772  2.1949  0.2519
  132OSM   H18U14248   0.797   0.907   8.481 -0.3828  1.9917 -3.2614
  132OSM    C1F14249   0.713   0.487   6.687 -0.1918  0.1429 -0.2286
  132OSM     OF14250   0.791   0.481   6.593  0.3115  0.5283 -1.0064
  132OSM    C2F14251   0.677   0.371   6.776 -0.0281 -0.0087 -0.2931
  132OSM    H2F14252   0.567   0.360   6.784  0.1035 -0.6630  0.6553
  132OSM    H2G14253   0.709   0.405   6.877 -1.0033 -1.4571  0.5210
  132OSM    C3F14254   0.750   0.236   6.752  0.5823 -1.0127  0.4883
  132OSM    H3F14255   0.856   0.259   6.729  0.8387 -2.0503  0.6090
  132OSM    H3G14256   0.710   0.199   6.655 -0.2102  0.4985  0.2174
  132OSM    C4F14257   0.723   0.137   6.867 -0.0951 -0.0482 -0.3360
  132OSM    H4F14258   0.751   0.031   6.845 -0.7871  0.1049 -2.0005
  132OSM    H4G14259   0.614   0.131   6.886 -0.3279  1.1941 -1.2516
  132OSM    C5F14260   0.794   0.173   6.995 -0.3827  0.3999  0.8010
  132OSM    H5F14261   0.779   0.276   7.033  0.2159  0.9021 -0.3183
  132OSM    H5G14262   0.904   0.166   6.983 -0.3942  2.6480 -0.9008
  132OSM    C6F14263   0.755   0.078   7.110 -0.4286  0.2314 -0.2993
  132OSM    H6F14264   0.778  -0.022   7.067 -2.2606  0.9193 -2.9902
  132OSM    H6G14265   0.645   0.072   7.122 -0.4678 -0.4223 -0.9227
  132OSM    C7F14266   0.835   0.107   7.246  0.1978  0.1049 -0.2010
  132OSM    H7F14267   0.793   0.197   7.295 -1.0361  0.5201 -1.9795
  132OSM    H7G14268   0.941   0.125   7.217  0.0882 -2.4729 -2.3986
  132OSM    C8F14269   0.829  -0.013   7.340  0.6213 -0.3435  0.1409
  132OSM    H8F14270   0.906  -0.010   7.420  1.5476 -1.6561 -0.6864
  132OSM    H8G14271   0.865  -0.103   7.285 -1.7669 -1.5087  0.4447
  132OSM    C9F14272   0.686  -0.034   7.395  0.1437  0.2715 -0.0419
  132OSM    H9F14273   0.625  -0.106   7.339  0.3870  1.6926 -2.2010
  132OSM   C10F14274   0.642   0.008   7.513  0.4595 -0.1773 -0.3808
  132OSM   H10F14275   0.545  -0.015   7.560  0.6698 -0.3857 -0.0453
  132OSM   C11F14276   0.732   0.097   7.603 -0.1858 -0.0973  0.1428
  132OSM   H11F14277   0.672   0.152   7.678  1.0846  3.9133 -1.6255
  132OSM   H11G14278   0.791   0.169   7.543  1.3025 -1.6970 -0.3592
  132OSM   C12F14279   0.838   0.004   7.670  0.2211 -0.0933  0.3824
  132OSM   H12F14280   0.902  -0.059   7.604  1.2668  1.2358  0.1161
  132OSM   H12G14281   0.792  -0.063   7.746  0.8528  0.5167  1.3009
  132OSM   C13F14282   0.942   0.083   7.753 -0.0516  0.2159  0.4970
  132OSM   H13F14283   1.004   0.148   7.687  0.2335 -1.1034 -0.5520
  132OSM   H13G14284   1.006   0.001   7.792  0.2222  0.1147 -0.1422
  132OSM   C14F14285   0.870   0.168   7.859 -0.1599 -0.4006 -0.2132
  132OSM   H14F14286   0.774   0.119   7.886  0.2813 -0.6940  0.8668
  132OSM   H14G14287   0.828   0.257   7.808 -1.1563 -0.5501  0.3296
  132OSM   C15F14288   0.951   0.184   7.989 -0.0827  0.0212 -0.4448
  132OSM   H15F14289   1.048   0.221   7.950  1.1652  0.2620  2.7207
  132OSM   H15G14290   0.969   0.089   8.043 -1.5121  1.2960  2.3967
  132OSM   C16F14291   0.876   0.277   8.090 -0.6704 -0.3757  1.3376
  132OSM   H16F14292   0.778   0.239   8.127 -0.5726 -1.0300  0.9408
  132OSM   H16G14293   0.857   0.372   8.038  0.0194 -0.5667  0.7465
  132OSM   C17F14294   0.963   0.297   8.216  0.5186 -0.4967 -0.0401
  132OSM   H17F14295   1.047   0.356   8.175  0.6555 -2.5954 -2.8887
  132OSM   H17G14296   0.989   0.196   8.255 -2.2600 -1.1827  0.1365
  132OSM   C18F14297   0.888   0.367   8.329 -0.3989  0.6131 -0.3987
  132OSM   H18F14298   0.848   0.465   8.295 -0.8336  0.4722 -0.3033
  132OSM   H18G14299   0.954   0.387   8.415  0.6378 -2.5474 -0.3878
  132OSM   H18H14300   0.799   0.308   8.358  0.2377  0.4820  1.3481
  133SAPE     N14301   1.959   4.896  10.719  0.6526 -0.2112  0.4987
  133SAPE   HN114302   1.997   4.818  10.777  0.3041 -0.2498  0.6822
  133SAPE   HN214303   1.916   4.968  10.780  0.8632  0.2735  0.0737
  133SAPE   HN314304   1.875   4.863  10.667 -0.5574  0.9242  1.7070
  133SAPE   C1214305   2.064   4.958  10.646 -0.2240  0.8471  0.0315
  133SAPE  H12A14306   2.134   5.020  10.705  0.8888 -1.4645  1.1924
  133SAPE  H12B14307   2.014   5.012  10.562 -0.7459 -1.8651 -1.4714
  133SAPE   C1114308   2.153   4.861  10.566  0.1548 -0.2473 -0.0077
  133SAPE  H11A14309   2.233   4.911  10.509 -0.8228  0.9732 -0.3265
  133SAPE  H11B14310   2.088   4.811  10.491  1.9296 -2.6014 -0.0303
  133SAPE     P14311   2.332   4.773  10.729  0.3161 -0.1988  0.1620
  133SAPE   O1314312   2.322   4.886  10.832  0.8297 -0.1850  0.5748
  133SAPE   O1414313   2.367   4.646  10.794 -0.0725 -0.1246  0.0020
  133SAPE   O1214314   2.203   4.753  10.654  0.4038  0.1840  0.3227
  133SAPE   O1114315   2.446   4.808  10.622 -0.1399  0.2225 -0.1537
  133SAPE    C114316   2.488   4.719  10.520  0.4413  0.1336  0.9162
  133SAPE    HA14317   2.412   4.638  10.508  1.1347 -0.4071  0.0905
  133SAPE    HB14318   2.491   4.770  10.421 -2.3432 -0.9304  0.2030
  133SAPE    C214319   2.627   4.662  10.558  0.5311 -0.5981  0.4791
  133SAPE    HS14320   2.621   4.631  10.665 -1.3399  1.3001  0.9521
  133SAPE   O2114321   2.716   4.771  10.544  0.0930 -0.0080 -0.2257
  133SAPE   C2114322   2.820   4.768  10.624 -0.0676 -0.1881 -1.0604
  133SAPE   O2214323   2.831   4.693  10.720  0.5031  0.8001 -0.2877
  133SAPE   C2214324   2.921   4.874  10.577 -0.1830  0.9542  0.0120
  133SAPE   H2R14325   2.888   4.976  10.606 -3.6459 -0.0754 -0.1135
  133SAPE   H2S14326   3.012   4.851  10.637  0.3226  3.3983  0.2076
  133SAPE    C314327   2.669   4.537  10.470  0.2722 -0.8584  0.3022
  133SAPE    HX14328   2.608   4.449  10.499 -1.3735  0.2759  0.3853
  133SAPE    HY14329   2.777   4.524  10.493  0.6516 -1.0154 -1.5000
  133SAPE   O3114330   2.652   4.559  10.328  0.4066  0.1475  0.3869
  133SAPE   C3114331   2.756   4.558  10.249 -0.5002  0.3568  0.1551
  133SAPE   O3214332   2.872   4.531  10.280  0.0522 -0.4476 -0.5375
  133SAPE   C3214333   2.712   4.617  10.114 -0.6983  0.4243  0.0361
  133SAPE   H2X14334   2.787   4.689  10.074  0.3925 -0.6365  0.1203
  133SAPE   H2Y14335   2.617   4.669  10.135 -0.1504  0.4933  2.4277
  133SAPE   C2314336   2.950   4.867  10.420 -0.3539  0.9716 -0.2071
  133SAPE   H3R14337   2.856   4.901  10.372 -0.9203 -0.7341 -0.3235
  133SAPE   H3S14338   2.970   4.764  10.385 -3.0831 -0.3109  1.8022
  133SAPE   C2414339   3.077   4.950  10.378  0.2874  0.5389  1.1116
  133SAPE   H4R14340   3.128   4.917  10.286  0.5718  1.8716  0.7776
  133SAPE   H4S14341   3.150   4.929  10.459 -0.6165  1.1514  2.1079
  133SAPE   C2514342   3.036   5.098  10.373 -0.1428 -0.2129 -0.2607
  133SAPE   H5R14343   3.031   5.145  10.472  0.3673 -3.3351  1.2893
  133SAPE   C2614344   3.004   5.172  10.266  0.3197  0.1720 -0.1646
  133SAPE   H6R14345   2.955   5.269  10.282 -2.6715 -0.8838 -2.4563
  133SAPE   C2714346   2.987   5.113  10.126  0.1357 -0.5332 -0.6024
  133SAPE   H7R14347   3.086   5.096  10.079  2.3410  0.6241  3.3795
  133SAPE   H7S14348   2.955   5.199  10.064  0.3504 -0.0940 -0.1051
  133SAPE   C2814349   2.884   5.010  10.097  0.3006 -0.5279 -0.2704
  133SAPE   H8R14350   2.810   5.002  10.178  1.4242 -2.8340  0.5797
  133SAPE   C2914351   2.871   4.948   9.977 -0.1488  0.2078  0.0537
  133SAPE   H9R14352   2.786   4.879   9.967  0.2773 -0.4235  0.7364
  133SAPE  C21014353   2.971   4.958   9.864 -0.3754  0.8859  0.0005
  133SAPE  H10R14354   3.070   4.947   9.914 -0.1371 -1.3208 -0.8778
  133SAPE  H10S14355   2.954   5.059   9.822  1.2463  2.0877  2.1207
  133SAPE  C21114356   2.951   4.838   9.767 -0.4556  0.3701  0.2875
  133SAPE  H11R14357   2.943   4.739   9.812 -1.5227  0.1392 -0.3889
  133SAPE  C21214358   2.965   4.839   9.630  0.4827 -0.1131  0.9551
  133SAPE  H12R14359   2.944   4.750   9.569 -0.1127  0.5383  0.2114
  133SAPE  C21314360   2.991   4.960   9.535  0.5702  0.5160  0.1773
  133SAPE  H13R14361   3.077   4.927   9.474  1.1911  0.8493  0.8638
  133SAPE  H13S14362   3.020   5.058   9.578  0.1646  1.5684 -1.8483
  133SAPE  C21414363   2.872   4.977   9.442 -0.4468 -0.6887  0.2998
  133SAPE  H14R14364   2.844   4.901   9.368 -0.0208  1.7538 -2.4539
  133SAPE  C21514365   2.794   5.087   9.440  0.4722  0.1964 -0.1550
  133SAPE  H15R14366   2.699   5.090   9.384  0.4590 -0.7825 -0.1999
  133SAPE  C21614367   2.811   5.214   9.519 -1.1781 -0.4782  0.0417
  133SAPE  H16R14368   2.873   5.190   9.608 -2.5576  2.1668  1.7858
  133SAPE  H16S14369   2.717   5.266   9.549 -0.5498  1.3592 -1.0663
  133SAPE  C21714370   2.892   5.323   9.442  0.0700 -0.9044 -0.0108
  133SAPE  H17R14371   2.978   5.276   9.388 -0.3014  0.5587 -1.9186
  133SAPE  H17S14372   2.925   5.400   9.515 -4.1035  1.6102 -0.6166
  133SAPE  C21814373   2.815   5.390   9.320  0.2495 -0.0237 -1.1184
  133SAPE  H18R14374   2.717   5.419   9.362  1.2230  0.1541  1.1198
  133SAPE  H18S14375   2.787   5.313   9.245  1.2748 -1.9543  0.4500
  133SAPE  C21914376   2.888   5.512   9.275  0.1137  0.5071 -0.8761
  133SAPE  H19R14377   2.985   5.468   9.241  0.6840  1.1419 -0.1029
  133SAPE  H19S14378   2.909   5.580   9.360  0.9732  1.1227 -1.5695
  133SAPE  C22014379   2.833   5.594   9.158 -0.2494 -0.0001 -0.5942
  133SAPE  H20R14380   2.889   5.687   9.133  0.9701 -0.3275  0.8488
  133SAPE  H20S14381   2.733   5.631   9.188 -0.1537 -0.8627  0.8611
  133SAPE  H20T14382   2.839   5.539   9.062  1.7513 -1.8838  0.5600
  133SAPE   C3314383   2.678   4.509  10.008 -0.0206  0.4685 -0.2507
  133SAPE   H3X14384   2.609   4.444  10.065 -0.7327  1.4840  0.0662
  133SAPE   H3Y14385   2.777   4.469   9.976  0.2993  2.7120 -2.2278
  133SAPE   C3414386   2.621   4.556   9.879 -0.1471 -0.3640  0.7079
  133SAPE   H4X14387   2.684   4.630   9.826 -4.0728  1.0601 -2.2433
  133SAPE   H4Y14388   2.523   4.607   9.892 -0.1152 -0.1603  0.1809
  133SAPE   C3514389   2.584   4.437   9.778  0.0217 -0.1240 -0.9953
  133SAPE   H5X14390   2.517   4.362   9.824  0.0054  0.1287 -0.6059
  133SAPE   H5Y14391   2.680   4.384   9.764  0.4921  0.1471  1.0577
  133SAPE   C3614392   2.520   4.492   9.652 -0.0093 -0.2578  0.2786
  133SAPE   H6X14393   2.411   4.500   9.669  0.1378 -1.0147  1.6530
  133SAPE   H6Y14394   2.522   4.414   9.572  0.9696 -0.0220  0.0689
  133SAPE   C3714395   2.574   4.623   9.596  0.0908 -0.4524  0.0681
  133SAPE   H7X14396   2.685   4.624   9.601  0.1334  1.6936 -0.8227
  133SAPE   H7Y14397   2.534   4.709   9.654  1.0948  0.7252 -0.9468
  133SAPE   C3814398   2.533   4.645   9.449  0.1860  0.1872 -0.0860
  133SAPE   H8X14399   2.476   4.740   9.451  0.4966  0.4196 -1.6831
  133SAPE   H8Y14400   2.459   4.571   9.413 -0.1457  0.5753 -0.2007
  133SAPE   C3914401   2.653   4.634   9.348  0.3879 -0.7969 -0.6996
  133SAPE   H9X14402   2.740   4.581   9.395  0.4488 -0.6457 -0.6401
  133SAPE   H9Y14403   2.686   4.739   9.332 -0.2382 -0.6510 -1.0368
  133SAPE  C31014404   2.614   4.577   9.215  0.6423  0.1997  0.7428
  133SAPE  H10X14405   2.520   4.623   9.178 -1.1336 -0.9771  3.6316
  133SAPE  H10Y14406   2.589   4.470   9.228  3.7604 -0.4142  2.2241
  133SAPE  C31114407   2.725   4.589   9.111 -0.5504  0.4115  0.2246
  133SAPE  H11X14408   2.800   4.511   9.138 -1.1052 -0.3708 -0.4598
  133SAPE  H11Y14409   2.776   4.687   9.117 -1.7880  0.9750  1.9595
  133SAPE  C31214410   2.673   4.570   8.968 -0.1971 -0.8995  0.0076
  133SAPE  H12X14411   2.570   4.611   8.958 -0.0497 -0.3861  0.5844
  133SAPE  H12Y14412   2.675   4.463   8.939  2.7102 -0.8539 -0.0569
  133SAPE  C31314413   2.762   4.652   8.869  0.1277  0.1845 -0.7874
  133SAPE  H13X14414   2.819   4.736   8.915 -0.1581 -0.4481  0.7609
  133SAPE  H13Y14415   2.690   4.690   8.794 -2.2119 -2.3119  0.1058
  133SAPE  C31414416   2.865   4.569   8.806  0.2889  1.0301  0.1631
  133SAPE  H14X14417   2.821   4.470   8.783  1.1571  0.5218  0.6679
  133SAPE  H14Y14418   2.941   4.542   8.882  0.2086 -0.5640 -0.2949
  133SAPE  C31514419   2.919   4.644   8.691 -1.1811  0.4585  0.4464
  133SAPE  H15X14420   2.844   4.672   8.614 -0.9151  3.2988  1.1701
  133SAPE  H15Y14421   3.005   4.590   8.646 -2.0020 -0.1121 -0.4781
  133SAPE  C31614422   2.983   4.780   8.729  0.2532  0.1426 -0.2792
  133SAPE  H16X14423   3.064   4.753   8.800  1.7825  1.0725 -1.6248
  133SAPE  H16Y14424   2.918   4.845   8.790  0.1557 -0.5570  0.3664
  133SAPE  C31714425   3.045   4.856   8.612 -0.7057 -0.3884 -0.4479
  133SAPE  H17X14426   3.117   4.928   8.658 -2.0236  1.3026 -0.9749
  133SAPE  H17Y14427   2.973   4.922   8.559 -0.6412  0.0908  0.0512
  133SAPE  C31814428   3.133   4.771   8.515 -0.4668  0.0142  0.0324
  133SAPE  H18X14429   3.059   4.718   8.452 -1.0164 -0.0626  0.7301
  133SAPE  H18Y14430   3.177   4.689   8.576 -1.5896 -0.8336 -0.2731
  133SAPE  H18Z14431   3.197   4.824   8.442  0.6025 -2.3324 -0.7894
  134SAPE     N14432   5.755   5.242  10.887 -0.2925  0.1175  0.5709
  134SAPE   HN114433   5.733   5.225  10.988 -1.7535 -0.0699  0.2324
  134SAPE   HN214434   5.824   5.177  10.846  1.0478  0.3290  2.3904
  134SAPE   HN314435   5.808   5.331  10.878 -0.7718  0.3925  0.4407
  134SAPE   C1214436   5.624   5.252  10.822  0.2938 -0.5801  0.1034
  134SAPE  H12A14437   5.552   5.285  10.899 -0.8384  0.4535 -1.3796
  134SAPE  H12B14438   5.591   5.153  10.786 -1.1138 -1.1708  2.9089
  134SAPE   C1114439   5.618   5.337  10.694  0.7179  0.3748  0.5893
  134SAPE  H11A14440   5.518   5.317  10.650  0.0981  0.3549  1.9599
  134SAPE  H11B14441   5.695   5.306  10.620 -2.3167  1.6278 -3.2570
  134SAPE     P14442   5.514   5.565  10.765 -0.0760  0.3871  0.1826
  134SAPE   O1314443   5.401   5.475  10.798 -0.9331 -0.4635  0.5084
  134SAPE   O1414444   5.559   5.646  10.877  0.5471 -0.6839  1.2646
  134SAPE   O1214445   5.633   5.472  10.727  0.0609 -0.1223  0.9787
  134SAPE   O1114446   5.477   5.648  10.638 -0.5534 -0.1183  0.2720
  134SAPE    C114447   5.489   5.583  10.505 -0.5937 -0.6081 -0.1018
  134SAPE    HA14448   5.466   5.474  10.508  0.9785 -0.9436  0.0632
  134SAPE    HB14449   5.423   5.628  10.428 -0.4990  0.1910  0.2812
  134SAPE    C214450   5.626   5.600  10.444  0.0268 -0.6641 -0.0888
  134SAPE    HS14451   5.702   5.556  10.513 -1.3433  0.0068  1.8836
  134SAPE   O2114452   5.643   5.741  10.424  0.0538 -0.3602 -1.0214
  134SAPE   C2114453   5.717   5.805  10.519 -0.3000 -0.9276 -0.2293
  134SAPE   O2214454   5.782   5.757  10.608 -0.3319  0.2250 -0.7582
  134SAPE   C2214455   5.692   5.958  10.491  0.8438 -0.8726 -0.4525
  134SAPE   H2R14456   5.632   5.954  10.397 -1.7322  1.4337  1.0205
  134SAPE   H2S14457   5.636   5.999  10.577  2.0889 -0.4380  0.1633
  134SAPE    C314458   5.643   5.527  10.304  0.4411 -0.0079  0.2578
  134SAPE    HX14459   5.570   5.579  10.238  1.9280 -0.4309 -1.7931
  134SAPE    HY14460   5.617   5.425  10.341 -2.3252  0.7991  0.6037
  134SAPE   O3114461   5.771   5.544  10.254 -0.0415 -0.5445 -0.5113
  134SAPE   C3114462   5.862   5.453  10.298 -0.1413 -0.7180  0.5146
  134SAPE   O3214463   5.830   5.357  10.362 -0.5479 -0.2404 -0.0685
  134SAPE   C3214464   6.008   5.502  10.267 -0.8660  0.1201 -0.4460
  134SAPE   H2X14465   6.032   5.570  10.352  0.5267 -0.2633 -0.5165
  134SAPE   H2Y14466   6.013   5.561  10.173 -0.2365 -1.1804 -1.2293
  134SAPE   C2314467   5.835   6.025  10.476 -0.3032  0.2491  0.0682
  134SAPE   H3R14468   5.916   5.990  10.544 -1.5604 -2.9470 -0.0041
  134SAPE   H3S14469   5.808   6.131  10.494  0.2808  0.2976  0.6877
  134SAPE   C2414470   5.881   6.025  10.327 -0.8805 -0.2691  0.1105
  134SAPE   H4R14471   5.951   6.109  10.309 -1.0729 -0.1346 -0.0122
  134SAPE   H4S14472   5.791   6.046  10.265 -0.3617 -1.4111 -1.0560
  134SAPE   C2514473   5.953   5.903  10.284  0.4443 -0.0069  0.9524
  134SAPE   H5R14474   6.007   5.847  10.362  1.2515 -0.5838  0.0014
  134SAPE   C2614475   5.965   5.860  10.159  0.3735  0.1110  0.1944
  134SAPE   H6R14476   6.023   5.769  10.141 -1.2869 -0.5773 -1.7934
  134SAPE   C2714477   5.907   5.916  10.039  0.1331  0.5713  0.7241
  134SAPE   H7R14478   5.991   5.917   9.967  1.1749 -1.4205  1.8744
  134SAPE   H7S14479   5.869   6.020  10.049  1.7057  1.6220 -3.4223
  134SAPE   C2814480   5.791   5.836   9.981  0.0034  0.1977 -0.4528
  134SAPE   H8R14481   5.730   5.779  10.053 -0.3995  0.3060 -0.7098
  134SAPE   C2914482   5.772   5.808   9.848  0.0745 -0.1335  1.0508
  134SAPE   H9R14483   5.687   5.742   9.828 -0.0262 -0.2632  1.9073
  134SAPE  C21014484   5.847   5.871   9.735  0.2211  0.5009  0.0997
  134SAPE  H10R14485   5.890   5.971   9.759 -2.5611  2.4515 -2.6119
  134SAPE  H10S14486   5.760   5.881   9.667  0.3015  1.2418  0.0980
  134SAPE  C21114487   5.948   5.779   9.666 -0.4941 -0.3297 -1.1126
  134SAPE  H11R14488   6.001   5.716   9.738 -0.1315  2.7866  1.4393
  134SAPE  C21214489   5.990   5.801   9.543 -0.0796 -0.4723  0.2738
  134SAPE  H12R14490   6.077   5.741   9.514  0.3524  0.1227  0.3130
  134SAPE  C21314491   5.940   5.905   9.448 -0.8106  0.3179  0.0253
  134SAPE  H13R14492   6.023   5.977   9.430 -0.1466 -0.2229  0.9140
  134SAPE  H13S14493   5.869   5.976   9.496 -2.5455 -2.0209  1.0175
  134SAPE  C21414494   5.872   5.844   9.334 -0.1026 -0.4364  0.1507
  134SAPE  H14R14495   5.806   5.759   9.356 -0.3650 -0.0461  0.9091
  134SAPE  C21514496   5.894   5.868   9.207  0.6264 -0.5346  1.1396
  134SAPE  H15R14497   5.843   5.802   9.134  0.8593  2.6285 -2.0074
  134SAPE  C21614498   5.988   5.966   9.140 -0.5058  0.5379 -0.0453
  134SAPE  H16R14499   6.081   5.913   9.112 -0.9119  1.5682 -3.5109
  134SAPE  H16S14500   6.022   6.041   9.214  0.8074  0.8149 -0.9292
  134SAPE  C21714501   5.943   6.032   9.010 -0.0828  0.8100  0.2480
  134SAPE  H17R14502   5.841   6.076   9.014 -1.6023 -2.4913 -0.4071
  134SAPE  H17S14503   5.939   5.960   8.926 -1.8960  3.0646 -1.6582
  134SAPE  C21814504   6.032   6.157   8.979 -0.3264 -0.0166  0.5996
  134SAPE  H18R14505   6.135   6.115   8.976 -0.2182  0.3235 -0.2759
  134SAPE  H18S14506   6.019   6.230   9.062  3.1719  0.8810  0.4547
  134SAPE  C21914507   5.998   6.214   8.837  0.2456  0.0104 -0.2494
  134SAPE  H19R14508   5.894   6.255   8.841  0.5845  1.1584 -2.1828
  134SAPE  H19S14509   5.999   6.129   8.765 -0.7483 -0.9108  0.8140
  134SAPE  C22014510   6.099   6.322   8.793 -0.1257  0.2504 -0.3359
  134SAPE  H20R14511   6.121   6.392   8.877  2.9517 -3.7385  2.3480
  134SAPE  H20S14512   6.067   6.368   8.697 -1.5639 -0.2587 -0.1057
  134SAPE  H20T14513   6.196   6.272   8.774  0.8293  2.2265 -0.7806
  134SAPE   C3314514   6.117   5.386  10.269  0.3359  0.4072 -0.5202
  134SAPE   H3X14515   6.099   5.326  10.361  2.2835 -0.0453 -0.4241
  134SAPE   H3Y14516   6.224   5.416  10.271  0.6767 -0.7517 -1.0858
  134SAPE   C3414517   6.110   5.271  10.166  0.4567 -0.5066  0.2121
  134SAPE   H4X14518   6.010   5.221  10.166 -0.0157  0.4090  1.6129
  134SAPE   H4Y14519   6.166   5.181  10.199 -2.4915 -2.8652 -0.9319
  134SAPE   C3514520   6.142   5.301  10.021 -0.2101  0.0173  0.4292
  134SAPE   H5X14521   6.229   5.371  10.011  0.5704 -0.8226  1.2646
  134SAPE   H5Y14522   6.057   5.367   9.995  0.6606  2.0433  2.5389
  134SAPE   C3614523   6.147   5.178   9.935  1.2680  0.1190  0.9149
  134SAPE   H6X14524   6.099   5.105  10.003  1.0946  0.0152  0.6823
  134SAPE   H6Y14525   6.247   5.137   9.908 -0.0054 -0.8617 -2.6026
  134SAPE   C3714526   6.079   5.178   9.795 -0.5273 -0.6367 -0.6264
  134SAPE   H7X14527   5.976   5.218   9.809  1.4408  3.8694  2.0562
  134SAPE   H7Y14528   6.083   5.077   9.750  0.3696  0.4590 -3.1319
  134SAPE   C3814529   6.134   5.286   9.696 -0.0267 -0.7595 -0.5483
  134SAPE   H8X14530   6.245   5.287   9.687  0.0388 -1.0133  0.2190
  134SAPE   H8Y14531   6.114   5.386   9.742  2.8564 -0.0203 -0.7684
  134SAPE   C3914532   6.070   5.276   9.556 -0.1140 -0.1672  0.3957
  134SAPE   H9X14533   5.960   5.277   9.569  0.0781 -1.9346  2.3136
  134SAPE   H9Y14534   6.098   5.173   9.524  2.1549  0.9784 -1.5407
  134SAPE  C31014535   6.118   5.383   9.452  0.5199  0.2165  0.7032
  134SAPE  H10X14536   6.228   5.369   9.450  1.0192  3.6455  0.3366
  134SAPE  H10Y14537   6.094   5.489   9.476 -2.5494 -0.2110 -0.2493
  134SAPE  C31114538   6.056   5.358   9.315  0.0872  0.5213  0.2922
  134SAPE  H11X14539   5.955   5.317   9.335  0.4610 -0.8438 -0.5573
  134SAPE  H11Y14540   6.124   5.281   9.271 -0.2857  0.8134 -0.8086
  134SAPE  C31214541   6.036   5.478   9.229  0.8080  0.3508 -0.0209
  134SAPE  H12X14542   6.137   5.516   9.204  1.1454  1.2494  2.5247
  134SAPE  H12Y14543   5.982   5.558   9.285 -1.3508 -0.7132 -0.5153
  134SAPE  C31314544   5.964   5.450   9.090  0.4326 -0.5008  0.8896
  134SAPE  H13X14545   5.871   5.508   9.069  1.1941  0.2930 -0.3550
  134SAPE  H13Y14546   5.938   5.343   9.081  0.7560 -0.6389  1.5670
  134SAPE  C31414547   6.077   5.450   8.974  1.0231  0.4537 -0.4475
  134SAPE  H14X14548   6.151   5.380   9.018  0.7613  0.4533 -0.0055
  134SAPE  H14Y14549   6.114   5.555   8.970  0.1557  0.8896  2.0807
  134SAPE  C31514550   6.033   5.399   8.835  0.3079 -0.1186 -0.7724
  134SAPE  H15X14551   5.941   5.454   8.808 -0.0185  0.4734  1.4558
  134SAPE  H15Y14552   6.004   5.292   8.835 -1.2121  0.2891 -0.2831
  134SAPE  C31614553   6.147   5.434   8.742 -0.4178  0.1725  0.9027
  134SAPE  H16X14554   6.238   5.373   8.763 -1.1918 -0.4295  2.6000
  134SAPE  H16Y14555   6.183   5.539   8.748  0.0588  0.1024 -0.5043
  134SAPE  C31714556   6.108   5.410   8.594 -0.2127 -0.6234  0.9406
  134SAPE  H17X14557   6.185   5.452   8.526 -2.6962 -0.4544 -1.8856
  134SAPE  H17Y14558   6.015   5.465   8.569  0.3141 -1.0401 -2.1649
  134SAPE  C31814559   6.092   5.265   8.558  0.2660  0.4956 -0.1561
  134SAPE  H18X14560   6.191   5.219   8.579 -0.0709 -1.0402 -1.9058
  134SAPE  H18Y14561   6.079   5.241   8.450 -0.6223 -2.2614  0.5342
  134SAPE  H18Z14562   6.012   5.211   8.613 -0.5575  0.7684 -1.0675
  135SAPE     N14563   4.676   3.467  10.646  0.1665 -0.6205 -0.4594
  135SAPE   HN114564   4.663   3.372  10.687  1.6709 -1.1892 -1.2664
  135SAPE   HN214565   4.729   3.521  10.717 -1.2407 -1.4419  1.2488
  135SAPE   HN314566   4.583   3.509  10.629  0.0303 -1.1519 -1.0409
  135SAPE   C1214567   4.744   3.440  10.517 -0.7570 -0.8585  0.5927
  135SAPE  H12A14568   4.788   3.535  10.479  0.8019 -1.7608  0.0866
  135SAPE  H12B14569   4.664   3.409  10.446 -0.0648 -1.4439  0.0621
  135SAPE   C1114570   4.819   3.312  10.523 -0.1198 -0.0262 -0.2516
  135SAPE  H11A14571   4.856   3.285  10.422  1.1706  0.1337  0.1762
  135SAPE  H11B14572   4.748   3.231  10.549 -0.1781 -0.4474 -1.7063
  135SAPE     P14573   5.070   3.370  10.618  0.1310 -0.3952  0.0846
  135SAPE   O1314574   5.077   3.514  10.662  0.9239 -1.0251  0.5141
  135SAPE   O1414575   5.156   3.282  10.691 -0.2322 -0.3754 -0.4603
  135SAPE   O1214576   4.925   3.315  10.621  0.0636 -0.0802  0.3324
  135SAPE   O1114577   5.107   3.364  10.464  0.7163 -0.8468  0.2127
  135SAPE    C114578   5.086   3.482  10.388  0.6034 -0.7160 -0.9715
  135SAPE    HA14579   4.991   3.534  10.413  0.4277  0.7051 -4.2981
  135SAPE    HB14580   5.174   3.547  10.405 -0.6234  0.7353  0.0081
  135SAPE    C214581   5.090   3.452  10.234  0.5594 -0.3656 -0.2883
  135SAPE    HS14582   5.084   3.554  10.191  1.6408 -0.6251 -1.0807
  135SAPE   O2114583   4.976   3.371  10.202 -0.6640  0.1357  0.3113
  135SAPE   C2114584   4.912   3.386  10.088  0.3419 -0.4040  0.5612
  135SAPE   O2214585   4.936   3.474  10.006  0.0911  0.0339 -0.2277
  135SAPE   C2214586   4.811   3.273  10.078  0.5434 -0.1994 -0.0169
  135SAPE   H2R14587   4.741   3.282  10.163 -0.2032 -0.1602 -0.6335
  135SAPE   H2S14588   4.757   3.280   9.981 -0.5126 -1.9769  0.4288
  135SAPE    C314589   5.225   3.379  10.178  0.4113  0.7476  0.4291
  135SAPE    HX14590   5.234   3.283  10.233  0.7612  0.3212 -0.3645
  135SAPE    HY14591   5.314   3.435  10.217  1.1595  0.3201 -0.6340
  135SAPE   O3114592   5.223   3.348  10.035 -0.3518  0.2658  0.1702
  135SAPE   C3114593   5.259   3.456   9.968  0.1919  0.6214 -0.3869
  135SAPE   O3214594   5.291   3.565  10.016  0.4663 -0.3630  0.4109
  135SAPE   C3214595   5.258   3.417   9.823  0.7559 -0.5880 -0.5996
  135SAPE   H2X14596   5.155   3.389   9.793  0.0443  2.4855 -1.1749
  135SAPE   H2Y14597   5.341   3.343   9.812  1.9735  0.3257  1.8078
  135SAPE   C2314598   4.873   3.132  10.085 -0.5100  0.0723 -0.4193
  135SAPE   H3R14599   4.790   3.086  10.142  0.2605 -0.3138  0.4025
  135SAPE   H3S14600   4.970   3.138  10.139 -1.1163  1.8159  0.5203
  135SAPE   C2414601   4.888   3.059   9.951  0.2634  0.5547 -0.0202
  135SAPE   H4R14602   4.790   3.045   9.900  2.0357  0.0795 -3.4031
  135SAPE   H4S14603   4.925   2.955   9.966 -0.6184 -0.0144 -1.6475
  135SAPE   C2514604   4.981   3.137   9.858  0.1542 -0.0267  0.6626
  135SAPE   H5R14605   5.070   3.182   9.904 -0.1332  2.8697 -1.5056
  135SAPE   C2614606   4.977   3.145   9.722  0.3066 -0.2046 -0.5723
  135SAPE   H6R14607   5.039   3.224   9.676 -0.3187  1.4952  1.4390
  135SAPE   C2714608   4.870   3.090   9.636 -0.4639  0.1772  0.7627
  135SAPE   H7R14609   4.814   3.011   9.689  1.7498 -1.0995  1.2542
  135SAPE   H7S14610   4.926   3.035   9.558 -1.0254 -0.8005  1.0462
  135SAPE   C2814611   4.773   3.187   9.577 -1.0944 -0.8085 -0.2360
  135SAPE   H8R14612   4.676   3.177   9.628 -0.3259 -1.0213  1.2244
  135SAPE   C2914613   4.799   3.273   9.479 -0.9747 -0.5227  0.1839
  135SAPE   H9R14614   4.712   3.325   9.435  0.0250  1.2239  0.2075
  135SAPE  C21014615   4.930   3.287   9.412 -0.0119  0.5572 -0.2863
  135SAPE  H10R14616   4.942   3.192   9.356  0.4777  0.5558 -0.1760
  135SAPE  H10S14617   5.021   3.289   9.476 -0.0400 -0.1602 -0.2186
  135SAPE  C21114618   4.943   3.405   9.325  0.2528 -1.3385  0.0664
  135SAPE  H11R14619   4.961   3.498   9.380  0.9663 -2.7011  2.2098
  135SAPE  C21214620   4.924   3.403   9.188 -0.2441 -0.1387  0.4204
  135SAPE  H12R14621   4.924   3.504   9.143 -1.7344 -0.4987 -0.4263
  135SAPE  C21314622   4.887   3.286   9.092  0.1037 -0.6395 -0.1231
  135SAPE  H13R14623   4.969   3.214   9.106  0.3921 -0.6503 -1.8229
  135SAPE  H13S14624   4.887   3.334   8.992  0.9136  0.0751  0.2128
  135SAPE  C21414625   4.754   3.213   9.120  0.7219  0.4391 -0.0617
  135SAPE  H14R14626   4.766   3.132   9.193  1.0587  0.1433 -0.4458
  135SAPE  C21514627   4.634   3.230   9.056 -0.3226 -0.2810  0.0377
  135SAPE  H15R14628   4.556   3.154   9.072 -1.5655  0.8806 -0.3751
  135SAPE  C21614629   4.611   3.323   8.938  0.0298  0.0396  0.1596
  135SAPE  H16R14630   4.675   3.414   8.934  1.0216 -0.6041  1.0630
  135SAPE  H16S14631   4.504   3.353   8.938 -0.3381 -1.1992  1.7376
  135SAPE  C21714632   4.646   3.260   8.803  0.5095  0.0591  0.1420
  135SAPE  H17R14633   4.591   3.164   8.794  3.8010 -1.7529 -1.3094
  135SAPE  H17S14634   4.754   3.239   8.793  0.4774  1.1490 -3.1568
  135SAPE  C21814635   4.616   3.357   8.684 -0.3936  0.3690 -0.7096
  135SAPE  H18R14636   4.636   3.301   8.590  0.2936 -0.1549 -0.2582
  135SAPE  H18S14637   4.691   3.439   8.689  1.0956 -1.1132  4.0563
  135SAPE  C21914638   4.471   3.404   8.680  0.6168  1.0348 -0.5757
  135SAPE  H19R14639   4.470   3.477   8.596  0.4301  0.8516 -0.7319
  135SAPE  H19S14640   4.451   3.462   8.773 -0.2205  0.9649 -0.7096
  135SAPE  C22014641   4.358   3.297   8.665 -0.0230  0.0362  0.7100
  135SAPE  H20R14642   4.353   3.238   8.760 -2.4800 -2.2520 -0.7382
  135SAPE  H20S14643   4.373   3.229   8.578  0.1622 -1.6512  2.0193
  135SAPE  H20T14644   4.263   3.351   8.642  0.7582  0.1955 -2.3480
  135SAPE   C3314645   5.281   3.542   9.739  0.0213 -0.5117  0.8572
  135SAPE   H3X14646   5.389   3.570   9.741 -0.4296  1.2624  1.6471
  135SAPE   H3Y14647   5.222   3.631   9.768 -0.0688 -0.0231 -0.7607
  135SAPE   C3414648   5.233   3.524   9.592 -0.7792 -0.3192  0.6038
  135SAPE   H4X14649   5.127   3.559   9.587 -0.5750  0.4722  1.5889
  135SAPE   H4Y14650   5.241   3.415   9.569 -1.4818 -0.4746  1.0824
  135SAPE   C3514651   5.320   3.602   9.488  0.0120  0.4287 -0.9104
  135SAPE   H5X14652   5.425   3.571   9.503 -0.5242  0.1606  2.9631
  135SAPE   H5Y14653   5.310   3.713   9.497  0.1232  0.5023 -1.6661
  135SAPE   C3614654   5.284   3.573   9.345  0.1141  0.4308  0.2229
  135SAPE   H6X14655   5.190   3.625   9.320  0.3998  0.4559 -0.8160
  135SAPE   H6Y14656   5.256   3.466   9.334 -0.6550  0.6293  0.2762
  135SAPE   C3714657   5.398   3.596   9.244 -0.1937 -0.1699 -0.3913
  135SAPE   H7X14658   5.490   3.542   9.276 -1.0303 -1.0583  0.5709
  135SAPE   H7Y14659   5.425   3.703   9.237  1.1570 -0.5914 -1.9153
  135SAPE   C3814660   5.381   3.536   9.102 -0.4339 -0.0679  0.6868
  135SAPE   H8X14661   5.397   3.426   9.094  2.4659  0.3670 -0.2041
  135SAPE   H8Y14662   5.456   3.585   9.037  1.3868 -1.8190  1.4086
  135SAPE   C3914663   5.237   3.553   9.040 -0.3921 -0.5175 -0.0205
  135SAPE   H9X14664   5.211   3.660   9.057 -0.2715 -0.7558  1.7204
  135SAPE   H9Y14665   5.165   3.483   9.087 -1.4963  0.0042 -0.9131
  135SAPE  C31014666   5.247   3.529   8.887  0.2141 -0.2182  0.0607
  135SAPE  H10X14667   5.275   3.425   8.862 -0.5543 -0.5219  0.4600
  135SAPE  H10Y14668   5.314   3.602   8.836  2.2348 -0.7471  1.8816
  135SAPE  C31114669   5.101   3.540   8.831 -0.0018 -0.8745 -0.9584
  135SAPE  H11X14670   5.044   3.451   8.867 -0.0193  0.3173  2.1399
  135SAPE  H11Y14671   5.114   3.532   8.721  1.5103  0.8554 -0.9304
  135SAPE  C31214672   5.030   3.668   8.868  0.0577  0.5554  0.6602
  135SAPE  H12X14673   5.082   3.759   8.831  3.4978 -1.1549  0.9922
  135SAPE  H12Y14674   5.030   3.691   8.977 -1.4636 -0.2377  0.8360
  135SAPE  C31314675   4.886   3.682   8.799 -0.4725  0.2136 -0.9078
  135SAPE  H13X14676   4.839   3.587   8.832  0.0686  0.3835  0.4009
  135SAPE  H13Y14677   4.902   3.686   8.690 -2.1822 -1.6956 -1.2481
  135SAPE  C31414678   4.805   3.798   8.846  0.5916 -0.1892  0.2682
  135SAPE  H14X14679   4.879   3.881   8.852 -0.7054  0.9756  0.3601
  135SAPE  H14Y14680   4.768   3.769   8.947 -2.1339  1.6176 -0.1554
  135SAPE  C31514681   4.697   3.854   8.754 -0.7998 -0.1928  0.0623
  135SAPE  H15X14682   4.739   3.842   8.651 -1.5735 -1.9754 -0.0633
  135SAPE  H15Y14683   4.701   3.963   8.777 -2.0001  0.0183 -0.6915
  135SAPE  C31614684   4.555   3.801   8.766 -0.5581  0.3940 -0.3261
  135SAPE  H16X14685   4.526   3.814   8.873 -2.2535 -0.8761 -0.6204
  135SAPE  H16Y14686   4.562   3.691   8.754 -2.1615 -0.3594  4.3260
  135SAPE  C31714687   4.458   3.857   8.663 -0.4531  0.3593 -0.6729
  135SAPE  H17X14688   4.486   3.821   8.561  0.0587  0.4422 -0.5595
  135SAPE  H17Y14689   4.465   3.967   8.651 -1.5298  0.2144 -3.0035
  135SAPE  C31814690   4.303   3.828   8.685 -0.2620  0.7273 -0.2605
  135SAPE  H18X14691   4.251   3.894   8.757  1.3782  1.1315  0.5891
  135SAPE  H18Y14692   4.283   3.721   8.707 -1.7557  1.3151  1.3293
  135SAPE  H18Z14693   4.256   3.857   8.589 -1.0490 -0.9309 -0.3948
  136SAPE     N14694   0.892   3.622  11.005 -0.0452  0.1861 -0.1049
  136SAPE   HN114695   0.831   3.642  10.923 -1.8352 -0.8717  0.9508
  136SAPE   HN214696   0.993   3.619  10.977  0.5573 -1.4775  2.1179
  136SAPE   HN314697   0.869   3.524  11.031  0.6139 -0.7036 -2.7046
  136SAPE   C1214698   0.861   3.717  11.118  0.1472 -0.3185 -0.2948
  136SAPE  H12A14699   0.846   3.646  11.202  0.6926  0.4401  0.4459
  136SAPE  H12B14700   0.764   3.768  11.098  2.1141  2.8063 -2.2746
  136SAPE   C1114701   0.954   3.840  11.144  0.5124 -0.0439 -0.6476
  136SAPE  H11A14702   1.055   3.807  11.176  0.4209 -0.7245 -1.0439
  136SAPE  H11B14703   0.904   3.883  11.234 -0.0998 -0.4671 -0.7832
  136SAPE     P14704   0.937   4.079  11.022 -0.0980 -0.3469 -0.5874
  136SAPE   O1314705   0.843   4.120  11.128  0.3408 -0.1371  0.2983
  136SAPE   O1414706   1.063   4.152  11.017 -0.4382 -0.1871  0.2938
  136SAPE   O1214707   0.968   3.927  11.031 -0.0289 -0.9262 -0.6912
  136SAPE   O1114708   0.856   4.100  10.887  0.0827  0.4537  0.2468
  136SAPE    C114709   0.864   4.002  10.781  0.0764  0.4074 -0.8471
  136SAPE    HA14710   0.843   3.900  10.820 -2.4351  0.1107 -2.8249
  136SAPE    HB14711   0.787   4.021  10.703 -0.5184 -0.2768 -0.4281
  136SAPE    C214712   0.997   4.020  10.703  0.1063 -0.3364 -0.0747
  136SAPE    HS14713   1.085   3.985  10.761  0.2727 -1.0757 -0.7601
  136SAPE   O2114714   1.014   4.162  10.669  0.3525 -0.2497 -0.5154
  136SAPE   C2114715   1.139   4.199  10.634 -0.5914 -0.2503 -0.4661
  136SAPE   O2214716   1.237   4.123  10.637  0.8314  0.4480 -0.7978
  136SAPE   C2214717   1.147   4.353  10.580  0.3818 -0.0363  0.2944
  136SAPE   H2R14718   1.071   4.357  10.499  0.6771  0.9396  0.0587
  136SAPE   H2S14719   1.120   4.420  10.665 -2.0205  0.3853 -0.7542
  136SAPE    C314720   1.005   3.926  10.575  0.1050  0.0614 -0.2466
  136SAPE    HX14721   0.992   3.825  10.620  0.3815 -0.5862 -1.5872
  136SAPE    HY14722   1.105   3.937  10.528  0.3751  0.0494  0.3190
  136SAPE   O3114723   0.888   3.950  10.488  0.2458 -0.1271  0.0546
  136SAPE   C3114724   0.914   3.929  10.356 -0.1037 -0.5497  0.2951
  136SAPE   O3214725   1.024   3.907  10.311  0.5275  0.4411 -0.7051
  136SAPE   C3214726   0.789   3.948  10.273 -0.2125  0.1239 -0.8419
  136SAPE   H2X14727   0.731   4.039  10.300 -1.7037 -1.4567  1.4888
  136SAPE   H2Y14728   0.727   3.859  10.297  0.2491 -0.1357 -0.5966
  136SAPE   C2314729   1.288   4.397  10.531 -0.6477 -0.4897  0.1525
  136SAPE   H3R14730   1.356   4.378  10.616  0.4431  0.1603 -0.5575
  136SAPE   H3S14731   1.281   4.508  10.528  1.7555 -0.3181  0.4461
  136SAPE   C2414732   1.338   4.339  10.399 -0.3316  0.0840 -0.2872
  136SAPE   H4R14733   1.340   4.228  10.408 -3.4232 -0.3232 -3.4234
  136SAPE   H4S14734   1.438   4.386  10.394  0.2571 -1.0072  0.8304
  136SAPE   C2514735   1.253   4.382  10.279 -0.4303  0.1155 -0.9593
  136SAPE   H5R14736   1.186   4.466  10.302 -0.5555 -0.1698 -0.2681
  136SAPE   C2614737   1.252   4.329  10.159 -1.1725  0.0916 -1.0686
  136SAPE   H6R14738   1.194   4.375  10.078  1.6315  0.7257 -2.7841
  136SAPE   C2714739   1.334   4.212  10.113  0.0392  0.4484  0.3716
  136SAPE   H7R14740   1.393   4.169  10.196 -0.7614 -0.0869  0.6657
  136SAPE   H7S14741   1.390   4.245  10.022 -0.2685 -0.1187 -0.0265
  136SAPE   C2814742   1.221   4.110  10.085 -0.0937  0.4454  0.0470
  136SAPE   H8R14743   1.168   4.066  10.171 -0.6401 -0.5262 -0.7866
  136SAPE   C2914744   1.188   4.067   9.965  0.0132 -0.4916 -0.7902
  136SAPE   H9R14745   1.096   4.006   9.960 -0.7664  0.7567 -1.8283
  136SAPE  C21014746   1.257   4.117   9.835 -0.0482  0.4067 -0.2583
  136SAPE  H10R14747   1.270   4.027   9.771  2.2018 -1.2776  2.4170
  136SAPE  H10S14748   1.362   4.151   9.847  0.9041 -1.8437 -1.8804
  136SAPE  C21114749   1.176   4.223   9.773  0.5697 -0.0053 -0.2066
  136SAPE  H11R14750   1.151   4.299   9.848  0.6203  0.1381 -0.3356
  136SAPE  C21214751   1.121   4.241   9.652 -0.7912  0.1985 -0.0258
  136SAPE  H12R14752   1.056   4.329   9.643 -0.0839  0.4637 -3.1727
  136SAPE  C21314753   1.128   4.153   9.527  0.4808  0.5603  0.1599
  136SAPE  H13R14754   1.236   4.138   9.504  0.4404  1.4907 -0.6983
  136SAPE  H13S14755   1.097   4.210   9.437 -1.1491 -2.0029 -0.9744
  136SAPE  C21414756   1.056   4.024   9.536  0.9061  0.8060 -0.1691
  136SAPE  H14R14757   1.036   3.980   9.635  0.1719 -1.7121 -1.3979
  136SAPE  C21514758   1.021   3.945   9.429 -0.3924 -0.2893  0.6799
  136SAPE  H15R14759   0.972   3.848   9.450 -0.3885 -0.5558 -0.5113
  136SAPE  C21614760   1.049   3.972   9.281  0.1957  1.0715 -0.3630
  136SAPE  H16R14761   1.128   3.908   9.237  3.3649  3.8008  1.1854
  136SAPE  H16S14762   1.088   4.076   9.275  0.5316  1.1149  1.9639
  136SAPE  C21714763   0.918   3.965   9.194 -0.5649 -0.1120 -0.8247
  136SAPE  H17R14764   0.846   4.035   9.241 -0.2516  0.3491 -1.0241
  136SAPE  H17S14765   0.878   3.863   9.214 -1.1885  0.0806 -1.0904
  136SAPE  C21814766   0.934   3.993   9.041 -0.5092  1.1032 -0.5555
  136SAPE  H18R14767   1.015   4.064   9.014  0.6325  0.8365  1.9859
  136SAPE  H18S14768   0.838   4.048   9.031 -0.4806  1.3710  0.4999
  136SAPE  C21914769   0.943   3.870   8.955 -0.3434  1.0605 -0.2941
  136SAPE  H19R14770   0.861   3.804   8.993  0.7783 -0.0875  0.1598
  136SAPE  H19S14771   1.037   3.817   8.981  0.0966  2.1440  0.3762
  136SAPE  C22014772   0.932   3.904   8.808 -0.7752 -0.5968 -0.0393
  136SAPE  H20R14773   0.837   3.961   8.800  1.4684  3.2887 -0.1305
  136SAPE  H20S14774   0.910   3.815   8.745 -1.9849 -2.4316  2.8376
  136SAPE  H20T14775   1.009   3.977   8.777 -0.4115 -1.7074 -1.8063
  136SAPE   C3314776   0.822   3.929  10.124  0.4467  0.2285 -0.4929
  136SAPE   H3X14777   0.905   3.991  10.085  2.9433 -1.2749  2.2663
  136SAPE   H3Y14778   0.725   3.950  10.073 -0.9583 -1.2665  1.4412
  136SAPE   C3414779   0.851   3.783  10.075  0.7825 -0.2835  0.4743
  136SAPE   H4X14780   0.768   3.730  10.126  1.6620  0.1693  2.4090
  136SAPE   H4Y14781   0.938   3.753  10.138  1.5534 -0.8122 -0.8131
  136SAPE   C3514782   0.864   3.743   9.924  0.0730  0.0463  0.2739
  136SAPE   H5X14783   0.967   3.772   9.895 -1.5080  4.0860 -1.6715
  136SAPE   H5Y14784   0.796   3.785   9.847  1.8017  2.3208 -0.0674
  136SAPE   C3614785   0.850   3.597   9.908  0.3827 -0.6004  0.4074
  136SAPE   H6X14786   0.746   3.571   9.935  0.1931 -0.4524 -0.1693
  136SAPE   H6Y14787   0.924   3.541   9.970  1.7969  1.4010  0.5460
  136SAPE   C3714788   0.882   3.547   9.764 -0.0851 -0.2564 -0.9044
  136SAPE   H7X14789   0.891   3.437   9.758  1.5228 -0.2962  1.2492
  136SAPE   H7Y14790   0.978   3.593   9.731  0.6539 -1.8970 -1.0803
  136SAPE   C3814791   0.778   3.584   9.657 -0.0009  0.2735  0.5562
  136SAPE   H8X14792   0.739   3.687   9.666 -0.1095  0.0063  3.9441
  136SAPE   H8Y14793   0.687   3.522   9.667  0.4070 -0.3066  0.7310
  136SAPE   C3914794   0.834   3.566   9.516  0.2737 -0.4540 -0.2444
  136SAPE   H9X14795   0.860   3.462   9.485 -1.1192 -1.6559  2.4979
  136SAPE   H9Y14796   0.921   3.633   9.498 -0.3641  0.4886  0.2001
  136SAPE  C31014797   0.724   3.606   9.420 -0.1029  0.4582  0.4491
  136SAPE  H10X14798   0.700   3.714   9.432 -1.7570  0.0252  1.2102
  136SAPE  H10Y14799   0.636   3.545   9.450 -0.8633  1.2271 -0.1740
  136SAPE  C31114800   0.754   3.559   9.277  0.0148  0.4661 -0.4833
  136SAPE  H11X14801   0.744   3.449   9.267 -0.2991  0.4082  0.4397
  136SAPE  H11Y14802   0.859   3.587   9.253 -0.1468 -0.4780 -2.3747
  136SAPE  C31214803   0.660   3.616   9.173  0.0522 -0.4311 -0.0647
  136SAPE  H12X14804   0.667   3.726   9.185 -0.5112 -0.4957  0.8577
  136SAPE  H12Y14805   0.557   3.587   9.201 -0.9449  1.9131 -1.1761
  136SAPE  C31314806   0.677   3.562   9.030 -0.0100 -0.0499 -0.2001
  136SAPE  H13X14807   0.673   3.451   9.033 -2.7577  0.0025 -0.5815
  136SAPE  H13Y14808   0.773   3.600   8.988  0.1864 -0.8038 -0.4420
  136SAPE  C31414809   0.556   3.595   8.939  0.0727  0.2006  0.3281
  136SAPE  H14X14810   0.538   3.704   8.936 -0.7726  0.0984  1.2727
  136SAPE  H14Y14811   0.463   3.545   8.973 -0.9998 -0.4708 -3.3188
  136SAPE  C31514812   0.582   3.561   8.794 -0.7474 -0.5141  0.4707
  136SAPE  H15X14813   0.487   3.532   8.744 -1.2100 -0.0776  1.0791
  136SAPE  H15Y14814   0.653   3.477   8.784 -1.1755 -1.2215  2.8515
  136SAPE  C31614815   0.635   3.685   8.719 -0.0226 -0.2831 -0.4730
  136SAPE  H16X14816   0.739   3.700   8.757 -0.4433 -0.2510  0.6846
  136SAPE  H16Y14817   0.574   3.773   8.750  2.6682  1.2793  0.6154
  136SAPE  C31714818   0.660   3.670   8.562  0.3962  0.0975  0.1335
  136SAPE  H17X14819   0.555   3.675   8.525  0.1970  1.0897  0.8261
  136SAPE  H17Y14820   0.717   3.577   8.539  1.5208  0.3642  1.8094
  136SAPE  C31814821   0.733   3.796   8.508 -0.2089 -0.2468 -0.1817
  136SAPE  H18X14822   0.727   3.804   8.397 -0.6286  0.9158 -0.0828
  136SAPE  H18Y14823   0.839   3.820   8.532 -0.4367  0.8988 -0.2839
  136SAPE  H18Z14824   0.671   3.885   8.532  2.2035  1.1049  1.1646
  137SAPE     N14825   5.331   0.366  11.030 -0.2741 -0.3329  0.1354
  137SAPE   HN114826   5.309   0.376  11.131 -0.3532  0.4177  0.0429
  137SAPE   HN214827   5.251   0.364  10.964 -1.5482  1.3415  1.5726
  137SAPE   HN314828   5.378   0.274  11.020 -1.7465 -0.9403 -1.4515
  137SAPE   C1214829   5.440   0.453  10.977 -0.2275 -0.8677 -0.3779
  137SAPE  H12A14830   5.402   0.553  10.945  1.1290 -0.5748 -1.1170
  137SAPE  H12B14831   5.467   0.399  10.884 -1.0322 -0.9308 -0.5805
  137SAPE   C1114832   5.556   0.476  11.082 -0.0638  1.1502 -0.3332
  137SAPE  H11A14833   5.517   0.537  11.166  1.6060  1.4287  0.2555
  137SAPE  H11B14834   5.626   0.539  11.024  0.4059  1.7680  0.9030
  137SAPE     P14835   5.707   0.253  11.045  0.0578  0.0439 -0.3838
  137SAPE   O1314836   5.840   0.253  11.110  0.3506 -0.1350  0.0032
  137SAPE   O1414837   5.643   0.120  11.030  0.0379 -0.1697 -0.8089
  137SAPE   O1214838   5.614   0.353  11.126 -0.3770 -0.4065 -0.3580
  137SAPE   O1114839   5.715   0.320  10.907 -0.3984 -0.0062 -0.3845
  137SAPE    C114840   5.840   0.366  10.856 -0.4306  0.1242  0.6222
  137SAPE    HA14841   5.864   0.463  10.904  1.8022  0.1194 -0.4064
  137SAPE    HB14842   5.921   0.291  10.872 -2.2771 -2.4057 -1.3545
  137SAPE    C214843   5.835   0.385  10.702  0.1014 -0.8014 -0.2646
  137SAPE    HS14844   5.774   0.471  10.669 -0.6416 -1.9034 -1.8315
  137SAPE   O2114845   5.811   0.261  10.634 -0.4611  0.1962  0.1179
  137SAPE   C2114846   5.678   0.237  10.634  0.8402 -0.0093  0.1551
  137SAPE   O2214847   5.594   0.319  10.652 -0.3435 -0.2327 -0.3087
  137SAPE   C2214848   5.647   0.098  10.608 -0.0647 -0.3652  0.1250
  137SAPE   H2R14849   5.727   0.051  10.547 -0.2538  1.6174 -1.6958
  137SAPE   H2S14850   5.639   0.047  10.707 -0.0179  0.2055  0.4241
  137SAPE    C314851   5.978   0.433  10.658  0.4681 -0.1574 -0.9072
  137SAPE    HX14852   6.040   0.341  10.663  2.2178  1.0070 -0.8206
  137SAPE    HY14853   6.034   0.512  10.712  0.7505 -1.3127  0.5363
  137SAPE   O3114854   5.969   0.478  10.519 -0.3480 -0.6423  0.4274
  137SAPE   C3114855   6.076   0.466  10.440  0.4417  0.5785 -0.2143
  137SAPE   O3214856   6.193   0.459  10.489  0.2298 -0.6790  0.0787
  137SAPE   C3214857   6.033   0.440  10.299  0.4552  1.1729  0.0883
  137SAPE   H2X14858   5.980   0.531  10.265 -2.3262 -0.3841  0.1504
  137SAPE   H2Y14859   5.966   0.352  10.303  0.1319  1.4159  0.0062
  137SAPE   C2314860   5.512   0.089  10.521  0.3416 -0.4376  0.3989
  137SAPE   H3R14861   5.523   0.134  10.420 -0.5839 -0.6708  0.1859
  137SAPE   H3S14862   5.428   0.130  10.581  0.7375 -1.1254  1.4248
  137SAPE   C2414863   5.472  -0.061  10.496  0.8666 -0.2134  0.1552
  137SAPE   H4R14864   5.452  -0.105  10.596  0.8840 -0.4557  0.0504
  137SAPE   H4S14865   5.565  -0.113  10.463  0.0150 -0.7922 -1.3994
  137SAPE   C2514866   5.364  -0.093  10.399  0.1445 -0.5043 -0.8554
  137SAPE   H5R14867   5.266  -0.109  10.448  0.2219  3.5110  0.7559
  137SAPE   C2614868   5.358  -0.082  10.265  0.6537 -0.3124 -0.2036
  137SAPE   H6R14869   5.265  -0.101  10.209 -0.4167  1.3043  0.9827
  137SAPE   C2714870   5.473  -0.038  10.184  0.7046  1.0335  0.5793
  137SAPE   H7R14871   5.520  -0.126  10.135  0.0621  0.5221  0.8777
  137SAPE   H7S14872   5.557  -0.003  10.248  1.4618  0.4158 -0.0724
  137SAPE   C2814873   5.450   0.064  10.079  0.0420 -0.4643  0.3358
  137SAPE   H8R14874   5.441   0.166  10.119 -0.2660  0.8465 -2.9075
  137SAPE   C2914875   5.433   0.039   9.945 -0.2521 -0.5779 -0.0486
  137SAPE   H9R14876   5.433   0.127   9.879 -2.8054 -0.6105 -0.1375
  137SAPE  C21014877   5.423  -0.100   9.885 -0.4630  0.3967  1.0244
  137SAPE  H10R14878   5.464  -0.178   9.953  1.1348 -0.9201 -1.4174
  137SAPE  H10S14879   5.487  -0.096   9.795  1.3872 -1.8312  2.1765
  137SAPE  C21114880   5.282  -0.142   9.830  0.7486 -0.2978  0.0274
  137SAPE  H11R14881   5.209  -0.144   9.913 -0.5922 -1.1393 -1.1581
  137SAPE  C21214882   5.241  -0.131   9.710 -0.1666  0.5552  0.2504
  137SAPE  H12R14883   5.138  -0.168   9.696 -0.3840  1.6610 -1.2442
  137SAPE  C21314884   5.326  -0.098   9.589  0.4493  0.1734  0.2031
  137SAPE  H13R14885   5.422  -0.155   9.585  1.8232  2.2192  2.4274
  137SAPE  H13S14886   5.353   0.010   9.592 -0.3126  0.3582  0.3735
  137SAPE  C21414887   5.245  -0.131   9.462 -1.0376  0.6184 -0.6334
  137SAPE  H14R14888   5.207  -0.234   9.463  0.5917 -0.0004  0.9524
  137SAPE  C21514889   5.205  -0.053   9.362  0.9300 -0.2291  0.1942
  137SAPE  H15R14890   5.130  -0.093   9.291  0.2985  1.7040 -0.2406
  137SAPE  C21614891   5.220   0.098   9.349 -0.0991 -0.6216  0.0501
  137SAPE  H16R14892   5.292   0.140   9.422 -2.1276  0.0665  1.6955
  137SAPE  H16S14893   5.124   0.152   9.366 -0.1984 -0.5262 -0.7690
  137SAPE  C21714894   5.250   0.150   9.208 -0.3708  1.4772 -0.1152
  137SAPE  H17R14895   5.256   0.261   9.205  1.9381  1.4085  0.8017
  137SAPE  H17S14896   5.175   0.113   9.135 -1.9182  1.9197  1.2398
  137SAPE  C21814897   5.385   0.093   9.151 -0.9315 -0.3211  0.1191
  137SAPE  H18R14898   5.376  -0.017   9.144  0.2541 -0.3971 -0.2535
  137SAPE  H18S14899   5.473   0.130   9.208 -0.3348  0.8372 -1.4812
  137SAPE  C21914900   5.411   0.140   9.001 -0.9411  0.1198 -0.0291
  137SAPE  H19R14901   5.429   0.249   9.012  2.4910 -0.2162 -1.6672
  137SAPE  H19S14902   5.312   0.123   8.953 -1.9022  2.8167  0.8906
  137SAPE  C22014903   5.528   0.070   8.931 -0.2531  0.6062  0.1333
  137SAPE  H20R14904   5.609   0.143   8.911 -1.2228  1.3250 -1.2520
  137SAPE  H20S14905   5.517   0.028   8.828 -0.8786  1.1227 -0.0136
  137SAPE  H20T14906   5.570  -0.015   8.989 -1.5469 -1.1805 -1.4679
  137SAPE   C3314907   6.140   0.406  10.197  0.3399  0.4033 -0.1840
  137SAPE   H3X14908   6.199   0.314  10.216 -0.7181  0.2492  2.6460
  137SAPE   H3Y14909   6.217   0.487  10.191  1.5962 -0.6851  0.8311
  137SAPE   C3414910   6.077   0.403  10.058 -0.6180 -0.4329  0.0344
  137SAPE   H4X14911   6.002   0.485  10.049  0.9402  0.9549 -0.7580
  137SAPE   H4Y14912   6.035   0.303  10.037 -2.0750 -0.3439  2.3604
  137SAPE   C3514913   6.191   0.424   9.953 -0.4915 -0.1360  0.1896
  137SAPE   H5X14914   6.254   0.334   9.939 -1.7139 -0.9345 -0.3345
  137SAPE   H5Y14915   6.257   0.508   9.981  1.6854 -2.0604  1.0047
  137SAPE   C3614916   6.134   0.471   9.818  0.2481  0.1271 -0.7012
  137SAPE   H6X14917   6.051   0.544   9.832 -0.3624  0.0739 -3.7339
  137SAPE   H6Y14918   6.093   0.377   9.775  1.3157  0.2673 -2.0864
  137SAPE   C3714919   6.241   0.517   9.722  0.8665 -0.1441  0.4143
  137SAPE   H7X14920   6.289   0.434   9.666 -1.4397 -0.4186 -1.2627
  137SAPE   H7Y14921   6.317   0.575   9.778  0.5019  1.7945 -1.0006
  137SAPE   C3814922   6.178   0.603   9.610 -1.1114 -0.2112  0.1055
  137SAPE   H8X14923   6.139   0.696   9.656  1.5797  0.9485  0.1638
  137SAPE   H8Y14924   6.109   0.540   9.550  2.5474 -2.8292 -1.5395
  137SAPE   C3914925   6.281   0.656   9.501 -0.1753 -0.4271  0.8756
  137SAPE   H9X14926   6.379   0.609   9.523 -0.3227 -0.3968  1.6212
  137SAPE   H9Y14927   6.303   0.765   9.503  0.1890 -0.4467 -0.9608
  137SAPE  C31014928   6.233   0.626   9.355  0.5470  0.1008  0.4370
  137SAPE  H10X14929   6.166   0.709   9.323  1.7185  0.7313 -0.4457
  137SAPE  H10Y14930   6.176   0.531   9.344 -0.7839  1.0731 -1.5234
  137SAPE  C31114931   6.355   0.617   9.263  0.8484  0.4650  0.9562
  137SAPE  H11X14932   6.393   0.513   9.273 -0.0944 -0.1193 -1.3594
  137SAPE  H11Y14933   6.435   0.688   9.294  0.9264  0.4891  0.6952
  137SAPE  C31214934   6.316   0.622   9.115  0.1178  0.4273 -0.3981
  137SAPE  H12X14935   6.257   0.711   9.085  1.9269  1.6529 -0.4116
  137SAPE  H12Y14936   6.246   0.543   9.082  1.0641 -0.2977 -0.6962
  137SAPE  C31314937   6.438   0.603   9.018  0.7199  0.3830  0.2466
  137SAPE  H13X14938   6.485   0.506   9.043 -2.0966 -1.1491 -0.1175
  137SAPE  H13Y14939   6.508   0.688   9.031  1.0388  0.0115  0.9734
  137SAPE  C31414940   6.402   0.595   8.872  0.4746 -0.4607 -0.0726
  137SAPE  H14X14941   6.344   0.685   8.846 -1.4667 -1.0783  1.9426
  137SAPE  H14Y14942   6.333   0.509   8.862 -0.1863 -0.0911  1.1863
  137SAPE  C31514943   6.528   0.592   8.775  0.2086  0.0674 -0.2561
  137SAPE  H15X14944   6.582   0.499   8.806  1.2126  1.1930  1.4374
  137SAPE  H15Y14945   6.580   0.687   8.796  3.0789 -1.2242 -1.1989
  137SAPE  C31614946   6.490   0.598   8.624 -0.4387 -0.4576 -0.2248
  137SAPE  H16X14947   6.417   0.680   8.609 -0.3047 -0.2215  0.3959
  137SAPE  H16Y14948   6.446   0.500   8.595 -2.7534  0.9006 -1.4103
  137SAPE  C31714949   6.602   0.630   8.519  0.2610 -0.1093 -0.2076
  137SAPE  H17X14950   6.631   0.735   8.543  0.8650  0.1872 -2.1297
  137SAPE  H17Y14951   6.551   0.617   8.421  1.1712  2.1275 -1.0379
  137SAPE  C31814952   6.726   0.535   8.536 -0.1217 -0.7425  0.3990
  137SAPE  H18X14953   6.683   0.433   8.540 -0.9671 -0.6128 -3.2269
  137SAPE  H18Y14954   6.779   0.555   8.631 -2.3399  3.7233  0.8623
  137SAPE  H18Z14955   6.802   0.549   8.456 -1.8748  1.9458 -0.8732
  138SAPE     N14956   2.447   0.556  10.623  0.0383 -0.2316  0.7334
  138SAPE   HN114957   2.386   0.526  10.544  1.7080  0.2254 -0.7727
  138SAPE   HN214958   2.523   0.486  10.633  1.5995  0.8727 -2.6775
  138SAPE   HN314959   2.376   0.552  10.699 -0.1532 -0.5733  0.5383
  138SAPE   C1214960   2.498   0.697  10.595  0.7174  0.3029  0.0062
  138SAPE  H12A14961   2.405   0.754  10.575  0.5726  0.3326  0.7382
  138SAPE  H12B14962   2.565   0.698  10.507  2.0509  2.6312  0.9916
  138SAPE   C1114963   2.559   0.765  10.722  0.2144  0.7176 -0.0812
  138SAPE  H11A14964   2.494   0.727  10.804  0.2978  1.1576  0.1893
  138SAPE  H11B14965   2.549   0.875  10.727 -1.1886  0.6132 -0.2347
  138SAPE     P14966   2.822   0.761  10.709  0.0180 -0.6036  0.0288
  138SAPE   O1314967   2.825   0.910  10.737 -0.4801  0.0987 -0.1242
  138SAPE   O1414968   2.933   0.677  10.765 -0.0690 -0.0518 -0.6747
  138SAPE   O1214969   2.686   0.710  10.758 -0.1206  0.4804 -0.2556
  138SAPE   O1114970   2.805   0.734  10.555 -0.6738  0.0672  0.1660
  138SAPE    C114971   2.806   0.604  10.496  0.2088  0.1756  0.0383
  138SAPE    HA14972   2.777   0.527  10.570  1.9900 -0.6033 -0.0381
  138SAPE    HB14973   2.722   0.598  10.423  0.7382  0.4400 -0.5989
  138SAPE    C214974   2.938   0.548  10.434  0.4993 -0.1168 -0.1623
  138SAPE    HS14975   3.011   0.538  10.517 -1.1168  0.6951  1.4125
  138SAPE   O2114976   2.982   0.640  10.332  0.6796 -0.0598 -0.0398
  138SAPE   C2114977   3.117   0.651  10.313 -0.1261  0.0866  0.1610
  138SAPE   O2214978   3.197   0.582  10.376 -0.0574 -0.1378  0.6626
  138SAPE   C2214979   3.137   0.762  10.213 -0.2795  0.8690 -0.0061
  138SAPE   H2R14980   3.098   0.723  10.117  0.5796  2.2163 -0.9295
  138SAPE   H2S14981   3.076   0.846  10.253  1.6688  2.1805  0.3301
  138SAPE    C314982   2.921   0.408  10.364 -0.1939 -0.7990  0.2266
  138SAPE    HX14983   2.875   0.339  10.438 -0.6361 -1.2608 -0.4645
  138SAPE    HY14984   3.018   0.363  10.337 -0.7588 -1.7585 -0.2420
  138SAPE   O3114985   2.841   0.431  10.244 -0.2399  0.4234 -0.2678
  138SAPE   C3114986   2.906   0.436  10.125 -0.0012 -0.2203  0.4957
  138SAPE   O3214987   3.024   0.413  10.110  0.7533 -0.0336  0.0107
  138SAPE   C3214988   2.812   0.480  10.018 -0.3011  0.1310  0.3375
  138SAPE   H2X14989   2.788   0.588  10.033  0.2831  0.3110 -0.0462
  138SAPE   H2Y14990   2.722   0.418  10.040 -1.0749  2.2427  3.6547
  138SAPE   C2314991   3.288   0.794  10.193 -0.1556  0.3852 -0.0403
  138SAPE   H3R14992   3.351   0.704  10.206  1.6220  1.5298 -0.6400
  138SAPE   H3S14993   3.308   0.862  10.279  3.5737 -0.5673 -0.0848
  138SAPE   C2414994   3.332   0.868  10.058 -0.1714  0.0958  0.1975
  138SAPE   H4R14995   3.435   0.910  10.060 -0.1765  0.1430 -0.4204
  138SAPE   H4S14996   3.267   0.957  10.045 -1.7202 -0.8415  1.3766
  138SAPE   C2514997   3.317   0.765   9.949 -0.2280  0.3352  0.1984
  138SAPE   H5R14998   3.373   0.672   9.968 -0.5512  0.2326  0.6430
  138SAPE   C2614999   3.245   0.774   9.840  0.7157  0.5493 -0.6815
  138SAPE   H6R15000   3.259   0.693   9.767  0.1166 -0.8175  0.6888
  138SAPE   C2715001   3.147   0.874   9.795  0.1206 -0.6283 -0.0559
  138SAPE   H7R15002   3.114   0.942   9.877  0.1508 -0.3840 -0.2447
  138SAPE   H7S15003   3.056   0.820   9.761 -0.1488 -0.4361  0.3530
  138SAPE   C2815004   3.210   0.949   9.693  0.0539 -0.2734  0.4440
  138SAPE   H8R15005   3.315   0.973   9.719  0.1083 -0.0131  0.0044
  138SAPE   C2915006   3.157   0.990   9.581  0.3059  0.4263 -0.4934
  138SAPE   H9R15007   3.222   1.053   9.518  0.4332  0.8529  0.0658
  138SAPE  C21015008   3.012   0.977   9.529 -0.2913 -0.5000 -0.1902
  138SAPE  H10R15009   2.954   0.895   9.576  0.8861 -1.5385 -0.5313
  138SAPE  H10S15010   3.019   0.934   9.427  3.2640 -1.4503  0.3866
  138SAPE  C21115011   2.926   1.101   9.526  0.6057  0.7734  0.3010
  138SAPE  H11R15012   2.860   1.119   9.612  0.0535  2.6383 -0.4885
  138SAPE  C21215013   2.911   1.189   9.423 -0.3120  0.4175 -0.0077
  138SAPE  H12R15014   2.847   1.279   9.427 -0.5396  0.2754 -0.4143
  138SAPE  C21315015   2.985   1.176   9.287 -0.5971 -0.5515 -0.3455
  138SAPE  H13R15016   3.030   1.074   9.282 -1.1199 -0.8280  0.4720
  138SAPE  H13S15017   3.064   1.254   9.290  0.6285 -1.7774  0.0124
  138SAPE  C21415018   2.899   1.210   9.164 -0.3142 -0.0493 -0.1475
  138SAPE  H14R15019   2.928   1.295   9.100 -1.0052  0.9198  0.8033
  138SAPE  C21515020   2.782   1.150   9.129 -0.2470 -0.0483 -0.4058
  138SAPE  H15R15021   2.735   1.168   9.031  1.3944  2.2004 -0.8226
  138SAPE  C21615022   2.717   1.036   9.195 -0.4085  1.2647  0.4090
  138SAPE  H16R15023   2.721   1.052   9.305 -0.5441  2.1808  0.2817
  138SAPE  H16S15024   2.772   0.944   9.164  2.6403  2.8954  0.7510
  138SAPE  C21715025   2.558   1.048   9.184  0.3409 -0.2156  0.3170
  138SAPE  H17R15026   2.505   0.954   9.212 -1.1299  0.0665 -1.4554
  138SAPE  H17S15027   2.529   1.066   9.079 -1.2169  1.3173  0.9785
  138SAPE  C21815028   2.495   1.166   9.266 -0.9318 -0.1264 -0.5146
  138SAPE  H18R15029   2.546   1.259   9.233 -2.7903  0.1481 -2.7415
  138SAPE  H18S15030   2.520   1.153   9.373  0.6920 -0.2668 -0.8885
  138SAPE  C21915031   2.349   1.190   9.261 -0.5383 -0.1439  0.0110
  138SAPE  H19R15032   2.311   1.114   9.189 -5.0693  3.9031 -2.1741
  138SAPE  H19S15033   2.319   1.287   9.216  0.6196 -0.5727 -1.7156
  138SAPE  C22015034   2.282   1.195   9.400 -0.4204 -0.2813 -0.5755
  138SAPE  H20R15035   2.172   1.212   9.389 -0.5256 -0.6973 -0.1448
  138SAPE  H20S15036   2.323   1.281   9.456 -0.4502  0.7370 -2.0715
  138SAPE  H20T15037   2.291   1.100   9.456  1.2861 -1.1839 -2.3288
  138SAPE   C3315038   2.866   0.454   9.881 -0.7889  0.3808  0.6548
  138SAPE   H3X15039   2.851   0.348   9.852 -1.9411  1.3968 -2.7334
  138SAPE   H3Y15040   2.977   0.463   9.876 -0.9035  0.6393 -2.0790
  138SAPE   C3415041   2.809   0.555   9.775 -0.0373  0.3882  0.0369
  138SAPE   H4X15042   2.854   0.654   9.797 -0.0409  0.5304 -0.5875
  138SAPE   H4Y15043   2.699   0.563   9.791 -0.0339 -0.2920  0.3980
  138SAPE   C3515044   2.824   0.529   9.623  0.3150 -0.2801 -0.8396
  138SAPE   H5X15045   2.756   0.591   9.561  1.6750  1.5041 -0.5880
  138SAPE   H5Y15046   2.801   0.421   9.610 -0.9925 -0.1047 -0.1125
  138SAPE   C3615047   2.971   0.548   9.585 -0.8011 -0.0843 -0.4414
  138SAPE   H6X15048   3.027   0.461   9.627  0.4519  1.1887  0.5748
  138SAPE   H6Y15049   3.015   0.642   9.625 -0.6896  0.0652 -0.9224
  138SAPE   C3715050   2.993   0.540   9.431 -0.2872 -0.0392 -0.0388
  138SAPE   H7X15051   2.975   0.439   9.389  0.9570 -0.7958  1.1934
  138SAPE   H7Y15052   3.102   0.554   9.414 -0.4994  3.6605  1.2087
  138SAPE   C3815053   2.920   0.639   9.348  0.7826 -0.1392 -0.2216
  138SAPE   H8X15054   2.911   0.740   9.392  2.1731 -0.6939  1.4292
  138SAPE   H8Y15055   2.820   0.602   9.318  1.1770  1.0231 -3.1132
  138SAPE   C3915056   3.007   0.676   9.229  0.2681 -0.1751 -0.1405
  138SAPE   H9X15057   3.118   0.673   9.235  0.4688  2.1109 -1.9311
  138SAPE   H9Y15058   2.971   0.773   9.190 -1.9552 -0.1360  1.9000
  138SAPE  C31015059   2.984   0.569   9.113  0.2464 -0.2010 -0.1760
  138SAPE  H10X15060   2.880   0.576   9.076  0.0688 -0.3280  0.2986
  138SAPE  H10Y15061   3.011   0.471   9.158 -0.8155 -0.7676 -0.7529
  138SAPE  C31115062   3.062   0.592   8.977  0.1560 -0.2585  0.0631
  138SAPE  H11X15063   3.140   0.513   8.974  0.5577  0.1574 -0.5718
  138SAPE  H11Y15064   3.114   0.690   8.969 -0.9694  0.2310 -1.6109
  138SAPE  C31215065   2.975   0.567   8.852 -0.4809  0.2730 -0.0697
  138SAPE  H12X15066   3.034   0.581   8.760  0.8175 -3.1078  0.1491
  138SAPE  H12Y15067   2.893   0.642   8.851  0.1236  0.9309 -1.3034
  138SAPE  C31315068   2.921   0.420   8.854 -0.0024  0.3433  0.4412
  138SAPE  H13X15069   2.868   0.394   8.948 -0.6880 -3.0716 -0.8282
  138SAPE  H13Y15070   3.002   0.345   8.862 -1.7152 -2.0475 -3.1044
  138SAPE  C31415071   2.832   0.391   8.733  0.1528  0.1971 -0.3151
  138SAPE  H14X15072   2.746   0.461   8.725  1.2996  1.6051 -0.2869
  138SAPE  H14Y15073   2.785   0.294   8.760  1.0667 -0.8463 -2.3074
  138SAPE  C31515074   2.910   0.387   8.601 -0.1036 -0.6938 -0.4672
  138SAPE  H15X15075   2.999   0.324   8.624  0.2060 -0.6554 -1.5397
  138SAPE  H15Y15076   2.970   0.475   8.570 -2.2143  0.3462 -1.7332
  138SAPE  C31615077   2.823   0.360   8.481  0.0410 -0.2588 -0.3522
  138SAPE  H16X15078   2.751   0.283   8.517  0.2334  0.1758  1.0039
  138SAPE  H16Y15079   2.894   0.324   8.404 -0.3044 -1.2743 -0.2081
  138SAPE  C31715080   2.753   0.489   8.428  0.1627  0.3239 -0.0085
  138SAPE  H17X15081   2.821   0.571   8.397  2.7979 -1.8267 -0.0801
  138SAPE  H17Y15082   2.687   0.534   8.504  1.3898 -2.6292  2.9258
  138SAPE  C31815083   2.654   0.469   8.313  0.0793 -0.0472  0.0589
  138SAPE  H18X15084   2.582   0.552   8.296 -0.8821 -0.4446  2.0218
  138SAPE  H18Y15085   2.597   0.380   8.346 -0.3189  0.3752  0.5309
  138SAPE  H18Z15086   2.718   0.434   8.230 -0.5769  0.6738 -0.7609
  139SAPE     N15087   2.287   6.464  10.658  0.2068  0.4302  0.0505
  139SAPE   HN115088   2.192   6.508  10.656 -0.0019  0.0917  1.7854
  139SAPE   HN215089   2.298   6.392  10.732 -3.1060 -0.9923 -0.7449
  139SAPE   HN315090   2.346   6.547  10.680  2.1472 -1.1077  0.6960
  139SAPE   C1215091   2.336   6.398  10.534  0.0682 -1.1879 -0.4352
  139SAPE  H12A15092   2.342   6.474  10.454  1.5062 -0.3779  0.4283
  139SAPE  H12B15093   2.257   6.329  10.496 -0.9708 -0.3774  0.2330
  139SAPE   C1115094   2.476   6.336  10.563  0.0191 -0.5538 -0.1159
  139SAPE  H11A15095   2.536   6.429  10.572 -1.6864  0.6499 -0.8744
  139SAPE  H11B15096   2.501   6.277  10.472 -0.8078  2.3122 -2.2732
  139SAPE     P15097   2.445   6.116  10.704  0.0970  0.2535 -0.0892
  139SAPE   O1315098   2.510   6.086  10.835  0.3229  0.1993  0.5259
  139SAPE   O1415099   2.296   6.089  10.683 -0.2979  0.3148  0.7733
  139SAPE   O1215100   2.481   6.273  10.688  0.2454  0.4918  0.4758
  139SAPE   O1115101   2.526   6.041  10.591  0.3810 -0.7153  0.1094
  139SAPE    C115102   2.667   6.047  10.576 -0.1365  0.5136  0.3570
  139SAPE    HA15103   2.689   6.152  10.546 -2.3162  0.4866 -1.4429
  139SAPE    HB15104   2.716   6.011  10.669 -1.0526 -1.6967  0.0247
  139SAPE    C215105   2.715   5.972  10.448  0.4644  0.2256 -0.0995
  139SAPE    HS15106   2.825   5.992  10.451  0.2104  1.3772  2.1604
  139SAPE   O2115107   2.655   6.016  10.330  0.3050  0.4026  0.3112
  139SAPE   C2115108   2.681   6.145  10.288 -0.3169  0.1333 -0.3265
  139SAPE   O2215109   2.766   6.221  10.334  0.3035 -0.1489 -0.1657
  139SAPE   C2215110   2.583   6.172  10.169  0.0907 -0.4285  0.1501
  139SAPE   H2R15111   2.611   6.103  10.086  0.4888 -1.3361  1.0332
  139SAPE   H2S15112   2.479   6.153  10.203  0.0600 -0.3391  0.1074
  139SAPE    C315113   2.691   5.817  10.463 -0.9309  0.0782  0.5847
  139SAPE    HX15114   2.583   5.793  10.468 -1.1517  1.2700  1.5620
  139SAPE    HY15115   2.732   5.785  10.561 -1.4105  3.1778  1.8436
  139SAPE   O3115116   2.750   5.733  10.359 -0.2953 -0.2728  0.0284
  139SAPE   C3115117   2.881   5.750  10.335  0.3522 -0.5213  0.0012
  139SAPE   O3215118   2.961   5.814  10.403 -0.2158  0.1277  0.0749
  139SAPE   C3215119   2.911   5.671  10.206  0.0800 -0.7849 -0.8988
  139SAPE   H2X15120   2.895   5.739  10.119  1.2072  1.1586  0.3867
  139SAPE   H2Y15121   2.838   5.588  10.198 -2.5675  1.5201 -1.3544
  139SAPE   C2315122   2.602   6.321  10.139  0.0029  0.4099 -0.1847
  139SAPE   H3R15123   2.707   6.350  10.118 -0.5300  1.1462 -1.9177
  139SAPE   H3S15124   2.571   6.383  10.227 -0.3199  0.0699 -0.0553
  139SAPE   C2415125   2.510   6.362  10.023 -1.0590 -0.2136 -0.6641
  139SAPE   H4R15126   2.409   6.318  10.033 -1.8929  1.8742  0.5728
  139SAPE   H4S15127   2.549   6.320   9.928  1.2084 -2.6385  1.2858
  139SAPE   C2515128   2.503   6.513  10.034 -0.1156  0.2439  0.3467
  139SAPE   H5R15129   2.504   6.566  10.131 -1.0536 -0.9028  0.9967
  139SAPE   C2615130   2.499   6.588   9.924 -0.3611 -0.4707  0.0941
  139SAPE   H6R15131   2.484   6.695   9.947  0.2822 -0.0967 -1.1967
  139SAPE   C2715132   2.501   6.552   9.778 -0.7391 -0.5478 -0.1338
  139SAPE   H7R15133   2.426   6.612   9.722 -0.9582 -1.0996 -0.4277
  139SAPE   H7S15134   2.482   6.449   9.743  1.7450 -0.1776 -2.7920
  139SAPE   C2815135   2.630   6.602   9.721  0.4801 -0.2264  0.1354
  139SAPE   H8R15136   2.707   6.622   9.797 -0.3832  1.4144  0.6096
  139SAPE   C2915137   2.663   6.627   9.590  0.7765 -0.6322 -0.1774
  139SAPE   H9R15138   2.763   6.660   9.557  0.2496  1.1862 -0.0580
  139SAPE  C21015139   2.570   6.593   9.470  0.1910 -0.5957 -0.3220
  139SAPE  H10R15140   2.564   6.677   9.397  0.5572 -0.7834 -0.5722
  139SAPE  H10S15141   2.468   6.573   9.510 -0.1090  2.3601  0.4888
  139SAPE  C21115142   2.622   6.481   9.397 -0.1227 -0.5808 -0.0849
  139SAPE  H11R15143   2.640   6.399   9.468  3.6590  0.8835  0.7788
  139SAPE  C21215144   2.618   6.447   9.266  0.1049  0.3572  0.2980
  139SAPE  H12R15145   2.657   6.348   9.239  1.9627  0.5972  2.0218
  139SAPE  C21315146   2.561   6.529   9.153 -0.1617  0.5338  0.4313
  139SAPE  H13R15147   2.528   6.628   9.192  2.8079  0.8922  2.2598
  139SAPE  H13S15148   2.471   6.477   9.116  0.0620  1.5147 -1.5416
  139SAPE  C21415149   2.648   6.551   9.032 -0.0228  0.3832  0.1515
  139SAPE  H14R15150   2.748   6.505   9.037 -0.8292 -1.3716  0.5958
  139SAPE  C21515151   2.605   6.617   8.920 -0.0261 -0.9750  0.0051
  139SAPE  H15R15152   2.678   6.631   8.839 -0.0835 -0.8659 -0.0282
  139SAPE  C21615153   2.470   6.675   8.885 -0.0421  0.3206  0.3813
  139SAPE  H16R15154   2.412   6.692   8.978  0.4500  0.8863  0.5905
  139SAPE  H16S15155   2.408   6.612   8.818  1.3970  0.1902 -0.8728
  139SAPE  C21715156   2.474   6.810   8.813 -0.1210  0.1237 -0.2341
  139SAPE  H17R15157   2.532   6.887   8.868  1.2432  1.0298 -2.8601
  139SAPE  H17S15158   2.369   6.848   8.812  0.7940  2.7713 -0.1820
  139SAPE  C21815159   2.512   6.829   8.663 -0.4695  0.1870 -1.0067
  139SAPE  H18R15160   2.453   6.757   8.602  1.1746 -2.4588  0.4552
  139SAPE  H18S15161   2.621   6.811   8.655 -0.4707 -0.7223  0.8114
  139SAPE  C21915162   2.499   6.974   8.609  0.2029  0.8312  0.3045
  139SAPE  H19R15163   2.545   6.975   8.507  0.9788  0.6952  0.6496
  139SAPE  H19S15164   2.557   7.044   8.673  2.7292 -0.2943 -0.6788
  139SAPE  C22015165   2.354   7.011   8.599 -0.0520  0.3682  0.4677
  139SAPE  H20R15166   2.310   7.028   8.700 -1.1841  3.7378 -0.5474
  139SAPE  H20S15167   2.298   6.925   8.555  0.3806  1.7374 -2.9371
  139SAPE  H20T15168   2.352   7.107   8.544  1.7040 -0.5996 -1.3678
  139SAPE   C3315169   3.056   5.619  10.201  0.4328  0.0856 -0.0306
  139SAPE   H3X15170   3.091   5.576  10.298 -1.6288 -0.9332  0.2869
  139SAPE   H3Y15171   3.118   5.709  10.182  2.1822 -1.3682 -1.3452
  139SAPE   C3415172   3.094   5.513  10.100  0.3759 -0.2610  0.3194
  139SAPE   H4X15173   3.039   5.421  10.129  1.6882 -1.7502 -1.8368
  139SAPE   H4Y15174   3.200   5.487  10.119  0.6346  2.0652  2.4067
  139SAPE   C3515175   3.059   5.549   9.959  0.0172  1.1433  0.2249
  139SAPE   H5X15176   3.069   5.658   9.938  2.4307  0.9268  0.0371
  139SAPE   H5Y15177   2.950   5.530   9.946  0.4939 -1.6975  0.0084
  139SAPE   C3615178   3.144   5.477   9.852 -0.1202 -0.5771  0.0067
  139SAPE   H6X15179   3.248   5.504   9.879 -0.4269 -0.3459  0.9719
  139SAPE   H6Y15180   3.127   5.534   9.758  1.4510  0.2862  0.2249
  139SAPE   C3715181   3.121   5.326   9.825  0.1292  0.1136  0.2243
  139SAPE   H7X15182   3.012   5.311   9.818 -0.1555  1.1878  2.0574
  139SAPE   H7Y15183   3.150   5.262   9.910 -0.2844  0.0511  0.3148
  139SAPE   C3815184   3.186   5.280   9.698 -0.5860 -0.0758  0.4764
  139SAPE   H8X15185   3.158   5.344   9.611 -3.5974 -0.1367  1.3357
  139SAPE   H8Y15186   3.159   5.174   9.679 -2.0337 -0.0159  2.1313
  139SAPE   C3915187   3.337   5.262   9.705 -0.5148  0.2724 -0.5591
  139SAPE   H9X15188   3.362   5.190   9.786 -2.8927  0.5718  0.4624
  139SAPE   H9Y15189   3.390   5.356   9.730  0.7246 -0.9033  1.4674
  139SAPE  C31015190   3.403   5.233   9.569  0.4767 -0.1944  0.8651
  139SAPE  H10X15191   3.374   5.308   9.492  0.0553  0.7436  1.9240
  139SAPE  H10Y15192   3.354   5.136   9.542 -2.2693  0.7505  2.2330
  139SAPE  C31115193   3.554   5.213   9.578  0.6045  0.1440 -0.3411
  139SAPE  H11X15194   3.570   5.131   9.651  1.0832  0.8234  0.3348
  139SAPE  H11Y15195   3.605   5.305   9.615  0.9187 -0.6177  1.1598
  139SAPE  C31215196   3.629   5.179   9.442 -0.2528  0.1545  0.6199
  139SAPE  H12X15197   3.620   5.263   9.370 -0.5029 -1.0790 -0.8374
  139SAPE  H12Y15198   3.573   5.092   9.400  0.4071  1.2269 -2.6061
  139SAPE  C31315199   3.777   5.135   9.455 -0.1450 -0.1072 -0.1287
  139SAPE  H13X15200   3.778   5.051   9.528 -1.2381 -0.4485 -0.5002
  139SAPE  H13Y15201   3.842   5.210   9.504 -0.3471 -1.5899  2.4844
  139SAPE  C31415202   3.835   5.078   9.324 -1.0971  0.8454 -0.2477
  139SAPE  H14X15203   3.768   5.006   9.273 -0.8918  1.2583 -1.1051
  139SAPE  H14Y15204   3.932   5.028   9.346 -0.8207  1.5720  0.2256
  139SAPE  C31515205   3.868   5.189   9.215 -0.2096 -0.5970 -0.0975
  139SAPE  H15X15206   3.976   5.215   9.220 -0.3803  0.5360 -1.7933
  139SAPE  H15Y15207   3.807   5.279   9.241  0.1280  0.0707 -1.6035
  139SAPE  C31615208   3.834   5.150   9.068  0.6303  1.2383  0.4122
  139SAPE  H16X15209   3.897   5.211   8.999  0.3849  1.9149  0.7799
  139SAPE  H16Y15210   3.860   5.043   9.056  0.8500  1.3781 -0.3898
  139SAPE  C31715211   3.688   5.155   9.028  0.2240 -0.1805  0.0395
  139SAPE  H17X15212   3.643   5.252   9.059  0.0731 -0.1326 -0.3300
  139SAPE  H17Y15213   3.639   5.079   9.092 -2.8303  1.4978 -0.1926
  139SAPE  C31815214   3.657   5.108   8.885  0.7389  0.4049  0.4280
  139SAPE  H18X15215   3.711   5.165   8.806  0.3897 -0.4858 -0.4694
  139SAPE  H18Y15216   3.546   5.103   8.874  0.9059 -2.0640 -0.4954
  139SAPE  H18Z15217   3.688   5.002   8.868 -0.4255 -0.1764  1.7680
  140SAPE     N15218   5.442   2.517  10.928 -0.1273  0.1810  0.7402
  140SAPE   HN115219   5.437   2.435  10.864 -0.0805 -0.4466  1.5406
  140SAPE   HN215220   5.541   2.545  10.941  1.5327 -2.0285 -5.4193
  140SAPE   HN315221   5.394   2.503  11.019 -0.9903  1.1919  0.4514
  140SAPE   C1215222   5.370   2.611  10.853 -0.6362 -0.2650  0.1795
  140SAPE  H12A15223   5.412   2.598  10.750 -0.2007  3.0323 -0.1256
  140SAPE  H12B15224   5.401   2.715  10.878 -2.6016  0.3236  0.2475
  140SAPE   C1115225   5.219   2.585  10.862  0.1935  0.0779 -0.4065
  140SAPE  H11A15226   5.201   2.475  10.868 -1.3719  0.3952  1.0546
  140SAPE  H11B15227   5.164   2.608  10.768 -0.0948  1.2214  0.0379
  140SAPE     P15228   5.006   2.662  10.981 -0.1224  0.3647 -0.0462
  140SAPE   O1315229   4.948   2.606  10.858  0.0092 -0.3584 -0.1076
  140SAPE   O1415230   4.953   2.619  11.115  0.0690  0.8348  0.2711
  140SAPE   O1215231   5.163   2.639  10.986 -0.2339  0.2801 -0.2051
  140SAPE   O1115232   4.990   2.820  10.975 -0.1269 -0.4610  0.0452
  140SAPE    C115233   4.871   2.872  10.911  0.0082  0.5369  0.5452
  140SAPE    HA15234   4.775   2.834  10.953  0.3415 -0.4937  0.3966
  140SAPE    HB15235   4.875   2.978  10.943 -0.1686  0.5340  0.5793
  140SAPE    C215236   4.863   2.865  10.760 -0.1258  0.0356 -0.3406
  140SAPE    HS15237   4.836   2.762  10.728 -0.0364  0.2245 -1.0307
  140SAPE   O2115238   4.989   2.901  10.706  0.8271  0.1387 -0.6757
  140SAPE   C2115239   5.015   2.839  10.592 -0.1468 -0.2956 -0.6809
  140SAPE   O2215240   4.945   2.759  10.532 -0.0356  0.2849 -0.4366
  140SAPE   C2215241   5.141   2.891  10.523  0.3955 -0.6697  0.1178
  140SAPE   H2R15242   5.184   2.972  10.585 -2.3404  0.7591  0.2137
  140SAPE   H2S15243   5.217   2.810  10.532  1.1129  0.0661  0.6561
  140SAPE    C315244   4.749   2.961  10.711  0.1284 -0.3108  0.4150
  140SAPE    HX15245   4.781   3.066  10.724  1.2985 -0.6498  0.3305
  140SAPE    HY15246   4.652   2.939  10.760  0.5966 -0.1609  1.4157
  140SAPE   O3115247   4.725   2.951  10.565 -0.2168 -0.4090  0.8037
  140SAPE   C3115248   4.643   2.866  10.523 -0.0649  0.4868 -0.2787
  140SAPE   O3215249   4.570   2.793  10.593  0.0511 -0.6721  0.0455
  140SAPE   C3215250   4.649   2.853  10.370  0.0659 -0.0716 -0.4838
  140SAPE   H2X15251   4.728   2.924  10.341 -2.6236  2.6978 -1.2626
  140SAPE   H2Y15252   4.549   2.877  10.327 -0.1417 -1.6558 -0.9400
  140SAPE   C2315253   5.127   2.938  10.377  0.3452  0.1260  0.2271
  140SAPE   H3R15254   5.033   2.998  10.384 -0.1205 -0.4828 -0.7503
  140SAPE   H3S15255   5.110   2.847  10.317  1.3091  1.4311 -2.0818
  140SAPE   C2415256   5.240   3.029  10.307  0.3407  0.0881 -0.2859
  140SAPE   H4R15257   5.256   3.106  10.385 -1.0346 -0.3505  0.4477
  140SAPE   H4S15258   5.190   3.079  10.221  1.0089 -2.3769 -2.1635
  140SAPE   C2515259   5.371   2.957  10.279 -0.5687  0.5510  0.4819
  140SAPE   H5R15260   5.408   2.889  10.357  1.1946 -0.7207 -1.4125
  140SAPE   C2615261   5.446   2.964  10.164  0.0196  0.1906 -0.8534
  140SAPE   H6R15262   5.525   2.890  10.148 -1.1610 -1.2176 -0.2906
  140SAPE   C2715263   5.411   3.056  10.054  0.0616 -0.2672  0.8564
  140SAPE   H7R15264   5.390   3.152  10.106  1.3109  0.6421 -0.2685
  140SAPE   H7S15265   5.312   3.034  10.010  0.3132  1.0338 -0.4251
  140SAPE   C2815266   5.517   3.071   9.953 -0.0159 -0.1998  0.6307
  140SAPE   H8R15267   5.618   3.102   9.986  0.3832 -0.3119 -0.4630
  140SAPE   C2915268   5.506   3.057   9.821 -0.5759  0.4906  0.0946
  140SAPE   H9R15269   5.590   3.083   9.754 -0.5039 -0.4297 -0.1792
  140SAPE  C21015270   5.381   3.033   9.742 -0.2632  0.3421 -0.7939
  140SAPE  H10R15271   5.292   3.059   9.804  0.4800  2.1211 -0.4317
  140SAPE  H10S15272   5.367   2.924   9.727  0.3817 -0.1809  2.0522
  140SAPE  C21115273   5.367   3.121   9.619 -0.4431 -0.1873 -0.0759
  140SAPE  H11R15274   5.399   3.225   9.633  0.3192 -0.5648  1.0135
  140SAPE  C21215275   5.345   3.083   9.489 -0.8221 -0.0096 -0.0595
  140SAPE  H12R15276   5.344   3.162   9.413  0.4514 -0.6325 -0.7404
  140SAPE  C21315277   5.316   2.940   9.440 -0.2668 -0.7550 -0.2118
  140SAPE  H13R15278   5.293   2.872   9.525 -0.5690 -0.6910 -0.2391
  140SAPE  H13S15279   5.411   2.903   9.397  1.7014  1.1274  2.3670
  140SAPE  C21415280   5.203   2.935   9.338  0.1479 -0.0089  0.3336
  140SAPE  H14R15281   5.102   2.918   9.379  0.9966 -1.5464  1.8420
  140SAPE  C21515282   5.221   2.937   9.202  0.0045  0.4571  0.1494
  140SAPE  H15R15283   5.132   2.935   9.137 -0.2908  1.6888  0.4966
  140SAPE  C21615284   5.347   2.947   9.127 -1.1377  0.1033  0.1739
  140SAPE  H16R15285   5.365   2.851   9.074  3.2268  0.9813 -0.1042
  140SAPE  H16S15286   5.434   2.972   9.191 -2.3305 -0.4747  2.0505
  140SAPE  C21715287   5.353   3.041   9.009  0.1557  0.3107 -0.2010
  140SAPE  H17R15288   5.306   3.137   9.041  1.5757  0.5548  1.2052
  140SAPE  H17S15289   5.282   3.009   8.929  0.3610  2.1886 -1.1581
  140SAPE  C21815290   5.491   3.079   8.962  0.4165  0.6482  0.2604
  140SAPE  H18R15291   5.548   2.995   8.917 -1.3802  0.0515 -0.9172
  140SAPE  H18S15292   5.552   3.112   9.050  0.7227  1.5965 -0.3008
  140SAPE  C21915293   5.492   3.194   8.862 -1.2735 -0.5851 -0.1395
  140SAPE  H19R15294   5.597   3.230   8.854  0.0752 -4.4809 -0.7154
  140SAPE  H19S15295   5.426   3.271   8.908 -1.2526 -0.8440  0.3264
  140SAPE  C22015296   5.431   3.146   8.725 -0.1760  0.3861  0.4488
  140SAPE  H20R15297   5.511   3.080   8.685 -0.5299 -0.4047  1.0413
  140SAPE  H20S15298   5.420   3.218   8.641  0.8895 -0.6044 -0.5571
  140SAPE  H20T15299   5.339   3.084   8.722 -0.9448  1.5559 -4.2790
  140SAPE   C3315300   4.681   2.708  10.337 -0.1151 -0.2787 -0.5031
  140SAPE   H3X15301   4.584   2.652  10.336 -2.1111  2.9609  1.6659
  140SAPE   H3Y15302   4.736   2.648  10.412 -0.0775 -0.2721 -0.5241
  140SAPE   C3415303   4.769   2.689  10.212 -0.2868  0.6868  0.4779
  140SAPE   H4X15304   4.773   2.582  10.181 -0.2808  0.5180  1.0501
  140SAPE   H4Y15305   4.872   2.728  10.226 -0.5139  0.7239  2.1752
  140SAPE   C3515306   4.705   2.751  10.084 -0.4891 -0.0866  0.1708
  140SAPE   H5X15307   4.720   2.860  10.098 -0.7374 -0.2170  1.4899
  140SAPE   H5Y15308   4.595   2.738  10.075 -0.6337  1.5576 -0.5697
  140SAPE   C3615309   4.772   2.707   9.951 -0.6412  0.1669  0.2248
  140SAPE   H6X15310   4.785   2.596   9.955  0.2834  0.1635 -2.3255
  140SAPE   H6Y15311   4.865   2.765   9.933 -0.0313 -0.6509  0.7112
  140SAPE   C3715312   4.689   2.746   9.822  0.5884  0.2657  0.1409
  140SAPE   H7X15313   4.655   2.852   9.825  1.4938  0.6643 -2.3373
  140SAPE   H7Y15314   4.595   2.686   9.819  0.5298  0.4154 -1.3792
  140SAPE   C3815315   4.763   2.736   9.689  0.1638  0.7213  0.1785
  140SAPE   H8X15316   4.788   2.629   9.672  0.7365  1.2131 -2.4209
  140SAPE   H8Y15317   4.856   2.795   9.699 -0.4764  1.8079 -0.1319
  140SAPE   C3915318   4.681   2.783   9.573 -0.1572  0.8844  0.2466
  140SAPE   H9X15319   4.674   2.894   9.574 -0.4767  0.8965 -1.4847
  140SAPE   H9Y15320   4.572   2.764   9.558  0.8771 -5.5701 -0.4851
  140SAPE  C31015321   4.759   2.744   9.442  0.5253 -0.5234 -0.0921
  140SAPE  H10X15322   4.754   2.633   9.441  1.3846 -0.5876  1.8578
  140SAPE  H10Y15323   4.863   2.780   9.454 -0.1894  1.8560 -0.7433
  140SAPE  C31115324   4.687   2.807   9.323  1.1273 -0.3887 -0.3522
  140SAPE  H11X15325   4.691   2.918   9.333 -0.8158 -0.1915 -1.4961
  140SAPE  H11Y15326   4.579   2.782   9.316  0.8028  0.5780  0.9748
  140SAPE  C31215327   4.760   2.780   9.187 -0.1583 -0.4339 -0.3063
  140SAPE  H12X15328   4.784   2.672   9.186  2.2180  0.0757 -1.5074
  140SAPE  H12Y15329   4.852   2.841   9.194 -0.0850 -0.5732 -0.0101
  140SAPE  C31315330   4.673   2.812   9.061  0.0077 -0.5307 -0.0986
  140SAPE  H13X15331   4.678   2.923   9.055  0.6549 -0.4625  1.3691
  140SAPE  H13Y15332   4.568   2.779   9.080 -0.4537  0.0011 -1.7196
  140SAPE  C31415333   4.736   2.760   8.931  1.1121  0.5357  0.4330
  140SAPE  H14X15334   4.752   2.650   8.935  0.2140  0.2982 -1.5886
  140SAPE  H14Y15335   4.831   2.814   8.916  0.6793  1.2172  0.1360
  140SAPE  C31515336   4.649   2.776   8.808  0.5812 -0.2737  0.2495
  140SAPE  H15X15337   4.624   2.884   8.802 -0.3781 -0.4424  1.0956
  140SAPE  H15Y15338   4.551   2.723   8.809 -0.2894  1.3403  1.4929
  140SAPE  C31615339   4.710   2.725   8.676 -0.1723 -0.6521 -0.1891
  140SAPE  H16X15340   4.724   2.616   8.692  4.0219 -0.4788 -2.1276
  140SAPE  H16Y15341   4.798   2.787   8.650 -0.3818 -0.4807 -0.5008
  140SAPE  C31715342   4.612   2.750   8.554 -0.5412 -0.8526 -0.3337
  140SAPE  H17X15343   4.514   2.701   8.573 -1.6457  1.1898 -0.5929
  140SAPE  H17Y15344   4.652   2.697   8.465 -1.7744 -1.4295 -0.5572
  140SAPE  C31815345   4.589   2.896   8.525 -0.0659  0.0938  0.3967
  140SAPE  H18X15346   4.518   2.903   8.440 -0.1854 -1.7446  0.3121
  140SAPE  H18Y15347   4.689   2.936   8.499  0.2893 -0.3039  1.1119
  140SAPE  H18Z15348   4.551   2.953   8.613 -1.9455 -0.4698 -0.0428
  141SAPE     N15349   6.055   3.266  10.906 -0.3201  0.1420 -0.4352
  141SAPE   HN115350   5.953   3.286  10.913 -0.1997  0.3428  0.9947
  141SAPE   HN215351   6.074   3.181  10.963 -2.6579 -2.2641 -3.0800
  141SAPE   HN315352   6.114   3.342  10.945  0.3574 -0.7319  0.2727
  141SAPE   C1215353   6.068   3.255  10.756  0.7182 -0.2457 -0.9490
  141SAPE  H12A15354   6.070   3.150  10.722  0.0548  0.1330 -2.1946
  141SAPE  H12B15355   6.168   3.293  10.726  0.8652  0.6607  0.6545
  141SAPE   C1115356   5.954   3.332  10.690 -0.0314  1.2296  0.0042
  141SAPE  H11A15357   5.968   3.330  10.580  1.8279 -0.1167  0.2471
  141SAPE  H11B15358   5.946   3.440  10.710 -0.7565  1.1548  0.1449
  141SAPE     P15359   5.739   3.325  10.829 -0.0965  0.0976  0.5845
  141SAPE   O1315360   5.627   3.230  10.835 -0.1700  0.3209 -0.4299
  141SAPE   O1415361   5.803   3.348  10.960  0.2201  0.1683 -0.2002
  141SAPE   O1215362   5.838   3.264  10.718  0.1545  0.7955  0.4526
  141SAPE   O1115363   5.687   3.470  10.777 -0.4462  0.3569  0.7655
  141SAPE    C115364   5.583   3.491  10.677  0.7219 -0.2537  0.2046
  141SAPE    HA15365   5.513   3.405  10.667  1.2898 -0.9587  2.1067
  141SAPE    HB15366   5.516   3.565  10.724  1.4532 -0.9295  2.3586
  141SAPE    C215367   5.632   3.551  10.542 -0.6460 -0.3203 -0.0186
  141SAPE    HS15368   5.687   3.469  10.491 -1.3468 -1.2129  0.6393
  141SAPE   O2115369   5.701   3.673  10.564  0.0257  0.3626  0.0682
  141SAPE   C2115370   5.803   3.694  10.478  0.5782 -0.5617  0.1346
  141SAPE   O2215371   5.846   3.608  10.405 -0.5505  0.4057 -0.2206
  141SAPE   C2215372   5.864   3.832  10.505 -0.5221 -0.0860 -0.7852
  141SAPE   H2R15373   5.918   3.832  10.602  0.3717 -0.1916 -1.2803
  141SAPE   H2S15374   5.930   3.855  10.419 -0.2232 -0.3373 -0.6262
  141SAPE    C315375   5.507   3.576  10.446 -0.4010  0.0414 -0.4005
  141SAPE    HX15376   5.448   3.662  10.486 -0.4620 -1.3313  2.5611
  141SAPE    HY15377   5.454   3.478  10.444  1.1599 -0.8440  0.7560
  141SAPE   O3115378   5.561   3.621  10.320  0.0968  0.5976 -0.1627
  141SAPE   C3115379   5.588   3.525  10.232  0.3983 -0.2410 -0.3751
  141SAPE   O3215380   5.560   3.407  10.248  0.6838  0.0146  0.1524
  141SAPE   C3215381   5.649   3.580  10.106 -0.3529  0.0608  0.5971
  141SAPE   H2X15382   5.754   3.600  10.137 -0.0174 -0.7621  0.0164
  141SAPE   H2Y15383   5.586   3.669  10.084  0.6742  0.3801 -1.1204
  141SAPE   C2315384   5.766   3.950  10.507  0.6255  0.1163 -0.2173
  141SAPE   H3R15385   5.700   3.940  10.596  0.3846 -1.3107 -0.5477
  141SAPE   H3S15386   5.707   3.964  10.414  0.0286 -2.8313 -0.3248
  141SAPE   C2415387   5.844   4.088  10.516 -0.0913 -0.0520 -0.2561
  141SAPE   H4R15388   5.929   4.071  10.586  1.6274 -0.2912 -2.3527
  141SAPE   H4S15389   5.777   4.168  10.555  0.2827  0.8387 -1.4326
  141SAPE   C2515390   5.920   4.123  10.387  0.1438 -0.6546  0.2906
  141SAPE   H5R15391   6.021   4.081  10.375  0.9850  0.4847  3.1264
  141SAPE   C2615392   5.892   4.230  10.310 -0.4034  0.6601  0.3028
  141SAPE   H6R15393   5.955   4.252  10.222 -0.3050 -1.7554 -0.2605
  141SAPE   C2715394   5.770   4.324  10.313  0.1422 -1.1720 -1.0653
  141SAPE   H7R15395   5.743   4.359  10.415  1.2325 -0.8140 -0.8938
  141SAPE   H7S15396   5.683   4.269  10.273 -1.7959  0.7918  0.2914
  141SAPE   C2815397   5.760   4.448  10.230 -0.0589 -0.3797  0.3156
  141SAPE   H8R15398   5.775   4.544  10.283 -0.5541  0.8542 -1.7228
  141SAPE   C2915399   5.753   4.444  10.093 -0.4778  0.4662  0.3550
  141SAPE   H9R15400   5.749   4.538  10.037 -0.7688  1.1094  1.4383
  141SAPE  C21015401   5.749   4.318  10.007  0.2778  0.5431 -0.4381
  141SAPE  H10R15402   5.779   4.225  10.061  0.5633 -0.0910 -1.6780
  141SAPE  H10S15403   5.831   4.327   9.933  1.0493  0.3967  0.3902
  141SAPE  C21115404   5.618   4.289   9.937  0.2877 -0.0560 -0.5221
  141SAPE  H11R15405   5.552   4.236  10.007 -1.1977  2.1550 -0.1947
  141SAPE  C21215406   5.578   4.320   9.809  0.7936 -0.3700  0.3721
  141SAPE  H12R15407   5.481   4.280   9.776  0.3099  0.2454  1.0348
  141SAPE  C21315408   5.658   4.383   9.701  0.0384 -0.1005  0.7972
  141SAPE  H13R15409   5.643   4.321   9.609 -1.4378  0.1173  0.8805
  141SAPE  H13S15410   5.769   4.377   9.711  0.3708 -0.0784 -2.3425
  141SAPE  C21415411   5.596   4.520   9.684  0.2647 -0.8511 -0.2871
  141SAPE  H14R15412   5.594   4.590   9.769 -1.5035  1.8162 -2.4319
  141SAPE  C21515413   5.556   4.573   9.568 -0.9523  0.2093  0.1776
  141SAPE  H15R15414   5.510   4.673   9.567  0.0011  0.6488 -1.4052
  141SAPE  C21615415   5.560   4.496   9.437 -0.2111 -0.2599  0.2174
  141SAPE  H16R15416   5.457   4.471   9.406  0.4704 -2.9622 -0.0530
  141SAPE  H16S15417   5.615   4.399   9.436  2.6086  1.2744  1.0906
  141SAPE  C21715418   5.638   4.562   9.315  0.5035  0.6517  0.5786
  141SAPE  H17R15419   5.746   4.552   9.336  1.4223 -0.4104 -4.0433
  141SAPE  H17S15420   5.607   4.668   9.299 -0.7109  0.0748 -1.0560
  141SAPE  C21815421   5.596   4.485   9.190  0.0950 -0.1189  0.3915
  141SAPE  H18R15422   5.487   4.507   9.187 -0.2684 -1.9260 -0.2983
  141SAPE  H18S15423   5.609   4.376   9.205 -3.2086 -1.1066 -3.1123
  141SAPE  C21915424   5.662   4.537   9.063 -0.8712 -0.2605  0.0325
  141SAPE  H19R15425   5.772   4.534   9.080 -0.8886  0.4376  0.3066
  141SAPE  H19S15426   5.640   4.645   9.054 -1.5360 -0.2726  1.2872
  141SAPE  C22015427   5.629   4.471   8.929 -1.0185 -0.5990 -0.3315
  141SAPE  H20R15428   5.687   4.511   8.843 -0.4237 -0.3138  0.1952
  141SAPE  H20S15429   5.525   4.497   8.903 -0.6588  2.8342  1.2654
  141SAPE  H20T15430   5.653   4.363   8.921  1.1627 -0.1343 -0.6509
  141SAPE   C3315431   5.633   3.478   9.989 -0.6419 -1.1903  0.0471
  141SAPE   H3X15432   5.526   3.464   9.964 -0.6930  0.2699 -0.5887
  141SAPE   H3Y15433   5.680   3.380  10.010  0.8321 -0.4152  0.4215
  141SAPE   C3415434   5.701   3.528   9.860  0.2321  0.2729  0.0090
  141SAPE   H4X15435   5.797   3.572   9.895  0.1944  0.0730  0.3628
  141SAPE   H4Y15436   5.653   3.610   9.803  0.9926  0.8445  0.1885
  141SAPE   C3515437   5.727   3.422   9.757  0.7620 -0.5574 -0.7289
  141SAPE   H5X15438   5.629   3.372   9.741  0.0740  0.9837 -1.4773
  141SAPE   H5Y15439   5.797   3.346   9.797  0.4384 -1.4839 -1.9132
  141SAPE   C3615440   5.758   3.486   9.615  0.2457 -0.4413 -0.4266
  141SAPE   H6X15441   5.863   3.508   9.644  0.1813 -1.4527  0.6292
  141SAPE   H6Y15442   5.698   3.572   9.576  0.6826 -0.5931 -1.4252
  141SAPE   C3715443   5.768   3.378   9.510 -0.1449 -0.0775 -0.1121
  141SAPE   H7X15444   5.667   3.352   9.469  0.0792 -0.4319 -0.4439
  141SAPE   H7Y15445   5.803   3.281   9.551  0.0929  0.7106  1.5750
  141SAPE   C3815446   5.868   3.403   9.388  0.3183  0.5558 -0.1325
  141SAPE   H8X15447   5.972   3.377   9.416  0.3933 -1.9488 -2.5699
  141SAPE   H8Y15448   5.880   3.511   9.369 -0.6936  0.7270  0.1634
  141SAPE   C3915449   5.819   3.323   9.265  0.1551  0.3240 -0.2075
  141SAPE   H9X15450   5.708   3.332   9.262  0.2230  2.7259  2.2180
  141SAPE   H9Y15451   5.836   3.213   9.265  2.4709  0.6207  2.7182
  141SAPE  C31015452   5.880   3.373   9.132  0.2104  0.1983 -0.1790
  141SAPE  H10X15453   5.990   3.378   9.141  0.2968  0.5930 -1.2891
  141SAPE  H10Y15454   5.843   3.477   9.121  0.4746  0.1972 -1.1223
  141SAPE  C31115455   5.839   3.300   9.007 -0.6702  0.3853  0.0590
  141SAPE  H11X15456   5.730   3.285   8.993 -0.5431  1.2168 -2.0018
  141SAPE  H11Y15457   5.863   3.194   9.032 -2.6002 -0.7484 -2.5185
  141SAPE  C31215458   5.912   3.337   8.885  1.1516  0.1699 -0.7524
  141SAPE  H12X15459   6.022   3.320   8.891  0.7546 -2.3824  0.3217
  141SAPE  H12Y15460   5.906   3.446   8.867  2.1345  0.1564 -1.2097
  141SAPE  C31315461   5.860   3.261   8.761  0.5370 -0.0886 -0.3040
  141SAPE  H13X15462   5.751   3.268   8.740  0.5732 -2.2699 -1.3152
  141SAPE  H13Y15463   5.884   3.154   8.776 -1.0089 -0.4711 -0.5536
  141SAPE  C31415464   5.931   3.302   8.630 -0.0163 -1.1496  0.2822
  141SAPE  H14X15465   6.035   3.333   8.653 -0.4532  1.8200 -1.3744
  141SAPE  H14Y15466   5.877   3.393   8.596  1.5610 -0.4888 -0.5048
  141SAPE  C31515467   5.910   3.209   8.507  0.4145 -0.6490 -0.3484
  141SAPE  H15X15468   5.962   3.116   8.537 -1.8198 -1.4442  1.2084
  141SAPE  H15Y15469   5.977   3.252   8.429 -2.4835  0.8067 -2.0988
  141SAPE  C31615470   5.758   3.190   8.471  0.7008  0.4825 -0.7926
  141SAPE  H16X15471   5.710   3.290   8.478  0.1289  0.2325 -1.0951
  141SAPE  H16Y15472   5.718   3.128   8.555  0.1563 -0.4919 -1.7624
  141SAPE  C31715473   5.733   3.141   8.329  1.2021 -0.7550 -0.2285
  141SAPE  H17X15474   5.764   3.035   8.324 -0.0065 -1.2136  1.4980
  141SAPE  H17Y15475   5.802   3.192   8.259  1.9191  0.7286  1.4988
  141SAPE  C31815476   5.592   3.157   8.275  0.6338  0.3301  0.1360
  141SAPE  H18X15477   5.553   3.253   8.316  1.2645  1.0238 -0.8463
  141SAPE  H18Y15478   5.522   3.092   8.331 -1.3698  0.0256 -2.6310
  141SAPE  H18Z15479   5.568   3.143   8.167  3.4616 -1.3631 -0.3052
  142SAPE     N15480   5.572   3.009  10.982  0.2462 -0.2717  0.4269
  142SAPE   HN115481   5.473   2.983  11.000 -0.3396  2.0302  0.6781
  142SAPE   HN215482   5.585   3.098  10.931  0.9278 -0.9882 -0.6719
  142SAPE   HN315483   5.607   2.936  10.917 -1.0813  0.1489 -0.7818
  142SAPE   C1215484   5.657   3.012  11.115 -0.1419  0.3030 -0.3749
  142SAPE  H12A15485   5.596   3.066  11.190 -1.2590 -2.3822  0.7393
  142SAPE  H12B15486   5.739   3.081  11.089  2.5926 -2.1367  1.4743
  142SAPE   C1115487   5.686   2.866  11.152 -0.2595  0.3350 -0.0934
  142SAPE  H11A15488   5.602   2.793  11.153 -0.2808  0.3344 -1.0074
  142SAPE  H11B15489   5.713   2.891  11.257  0.4193  0.1628 -0.2239
  142SAPE     P15490   5.780   2.732  10.950 -0.0494 -0.0375 -0.0457
  142SAPE   O1315491   5.913   2.674  10.920 -0.7402  0.0685 -0.2758
  142SAPE   O1415492   5.673   2.634  10.968  0.0340 -0.5105 -0.0217
  142SAPE   O1215493   5.801   2.817  11.081  0.4423 -0.1863 -0.5183
  142SAPE   O1115494   5.738   2.846  10.842  0.2033 -0.2574 -0.4747
  142SAPE    C115495   5.816   2.906  10.744 -0.1915 -0.3954  0.1460
  142SAPE    HA15496   5.799   3.016  10.741  0.7037 -0.2527  0.3743
  142SAPE    HB15497   5.925   2.894  10.756  0.5699  2.7390 -2.5764
  142SAPE    C215498   5.774   2.878  10.591 -0.5389  0.4825 -0.2434
  142SAPE    HS15499   5.669   2.911  10.579 -0.2901  1.6341  0.6319
  142SAPE   O2115500   5.797   2.743  10.566  0.4658  0.4185 -0.3969
  142SAPE   C2115501   5.691   2.672  10.528 -0.4289 -0.2358  0.2477
  142SAPE   O2215502   5.580   2.719  10.493 -0.3153 -0.3144  0.2856
  142SAPE   C2215503   5.722   2.520  10.541  0.0002 -0.2642  0.3510
  142SAPE   H2R15504   5.831   2.513  10.562  0.0922  0.1301 -0.0053
  142SAPE   H2S15505   5.675   2.484  10.635 -0.1621 -2.0042 -0.3679
  142SAPE    C315506   5.862   2.958  10.483 -0.9232  0.3371  0.5826
  142SAPE    HX15507   5.970   2.938  10.499 -0.4959  0.8301 -1.5748
  142SAPE    HY15508   5.837   3.065  10.500  0.4391  1.3509 -3.3511
  142SAPE   O3115509   5.815   2.925  10.351  0.2524 -0.1978  0.0100
  142SAPE   C3115510   5.897   2.993  10.260  0.8533 -0.0092  0.2557
  142SAPE   O3215511   5.979   3.078  10.288 -0.3713  0.4136  0.2216
  142SAPE   C3215512   5.866   2.939  10.118  0.3268 -0.3559  0.0472
  142SAPE   H2X15513   5.760   2.948  10.088  1.0067 -1.7535 -2.9619
  142SAPE   H2Y15514   5.899   2.834  10.108 -1.2963 -0.8571 -0.1395
  142SAPE   C2315515   5.668   2.439  10.417  0.6286 -0.0197  0.6598
  142SAPE   H3R15516   5.559   2.457  10.412  0.8742  0.8529 -2.2011
  142SAPE   H3S15517   5.681   2.329  10.420 -1.3179 -0.2960 -0.5026
  142SAPE   C2415518   5.739   2.484  10.289 -0.0711  0.1836  0.1132
  142SAPE   H4R15519   5.847   2.471  10.313 -0.4471 -1.2397  1.1081
  142SAPE   H4S15520   5.734   2.591  10.261  2.0180  0.1683 -0.4406
  142SAPE   C2515521   5.689   2.404  10.167  0.4021 -0.3074  0.2819
  142SAPE   H5R15522   5.625   2.319  10.195 -1.2835 -0.0779 -2.7370
  142SAPE   C2615523   5.691   2.442  10.043  0.1010  0.2319  0.6520
  142SAPE   H6R15524   5.640   2.381   9.967  0.7971  0.0537  0.3204
  142SAPE   C2715525   5.774   2.555   9.994  0.3368  0.6739  0.3678
  142SAPE   H7R15526   5.839   2.517   9.912  1.5954  0.7308  1.3302
  142SAPE   H7S15527   5.840   2.582  10.079  0.6165 -1.3479  0.8106
  142SAPE   C2815528   5.694   2.681   9.946  0.0567 -0.0950  0.0816
  142SAPE   H8R15529   5.633   2.725  10.027  0.5886  0.0426  0.4130
  142SAPE   C2915530   5.702   2.748   9.834  0.8150  0.4452 -0.2812
  142SAPE   H9R15531   5.636   2.834   9.816  1.5888  0.8545 -1.1793
  142SAPE  C21015532   5.785   2.720   9.718 -0.2725  0.7394 -0.6993
  142SAPE  H10R15533   5.856   2.636   9.734  0.4027  1.3979 -0.2126
  142SAPE  H10S15534   5.839   2.812   9.686  3.3982 -1.7416 -2.0416
  142SAPE  C21115535   5.698   2.678   9.600 -0.4677  0.0665 -0.2991
  142SAPE  H11R15536   5.644   2.583   9.604 -1.2031  0.4897  0.0334
  142SAPE  C21215537   5.690   2.758   9.493  0.4219 -0.1758  0.7450
  142SAPE  H12R15538   5.632   2.724   9.406  1.4748  2.5524 -1.0788
  142SAPE  C21315539   5.757   2.896   9.470 -0.4477  1.2266  0.2258
  142SAPE  H13R15540   5.865   2.886   9.492 -0.6259  2.1320  1.5628
  142SAPE  H13S15541   5.717   2.978   9.534 -1.7477 -0.7288  1.9819
  142SAPE  C21415542   5.744   2.944   9.330 -0.1338  0.5134  0.1294
  142SAPE  H14R15543   5.664   3.019   9.319 -0.2213  0.4615  0.4248
  142SAPE  C21515544   5.801   2.908   9.216 -0.0257  0.0611  0.2424
  142SAPE  H15R15545   5.784   2.958   9.119  1.8695  1.1784  0.4726
  142SAPE  C21615546   5.898   2.792   9.193 -0.3920  0.3786  0.1089
  142SAPE  H16R15547   5.928   2.739   9.286  2.6229  1.1064 -0.3976
  142SAPE  H16S15548   5.981   2.838   9.134 -1.5035  0.5504 -1.3428
  142SAPE  C21715549   5.840   2.681   9.092 -0.5524 -0.1757  0.2241
  142SAPE  H17R15550   5.754   2.627   9.137 -0.5219  0.0510  0.5521
  142SAPE  H17S15551   5.925   2.612   9.071  0.8936  0.9271  2.2533
  142SAPE  C21815552   5.805   2.742   8.954  0.2741 -0.5674  0.0440
  142SAPE  H18R15553   5.728   2.821   8.962  2.0894  1.0401  2.3791
  142SAPE  H18S15554   5.755   2.665   8.891 -0.2245 -0.8868  0.8244
  142SAPE  C21915555   5.925   2.797   8.868  0.2754 -0.0047 -0.3461
  142SAPE  H19R15556   5.979   2.708   8.828  0.6096 -0.2248  0.5861
  142SAPE  H19S15557   5.996   2.856   8.929 -1.5847  1.4649  0.4725
  142SAPE  C22015558   5.871   2.880   8.752 -0.0537  0.1174 -0.2049
  142SAPE  H20R15559   5.830   2.980   8.779  1.7282  0.5752  0.9046
  142SAPE  H20S15560   5.795   2.822   8.695 -2.9016  3.0042  0.4958
  142SAPE  H20T15561   5.952   2.905   8.680 -0.8733 -0.3150 -1.2962
  142SAPE   C3315562   5.944   3.005  10.004 -0.4430 -0.0262 -0.2850
  142SAPE   H3X15563   5.957   3.115  10.014 -0.3870  0.0202 -0.8509
  142SAPE   H3Y15564   5.884   3.004   9.910 -0.7744 -2.2893 -0.0586
  142SAPE   C3415565   6.077   2.930   9.993  0.0037  0.6278 -0.0371
  142SAPE   H4X15566   6.066   2.821   9.977  0.9738  0.6778 -1.0846
  142SAPE   H4Y15567   6.131   2.950  10.088  0.1815 -3.0154  0.6744
  142SAPE   C3515568   6.167   2.987   9.883 -0.2420  0.6669  0.2283
  142SAPE   H5X15569   6.263   2.934   9.864 -0.5991 -0.2022  0.7822
  142SAPE   H5Y15570   6.199   3.091   9.902 -1.0915  1.2383 -1.3551
  142SAPE   C3615571   6.104   2.986   9.735 -0.1357  0.1684 -0.1463
  142SAPE   H6X15572   6.010   3.046   9.734 -0.1331  0.2067  0.9851
  142SAPE   H6Y15573   6.078   2.881   9.714 -1.2875 -0.3823  3.5248
  142SAPE   C3715574   6.210   3.026   9.636  0.2204 -0.1372  0.1228
  142SAPE   H7X15575   6.299   2.962   9.654  0.0781 -0.6166 -0.8232
  142SAPE   H7Y15576   6.243   3.130   9.656 -1.6126  1.2081 -3.4973
  142SAPE   C3815577   6.159   3.036   9.492 -0.3212  0.1106  0.0409
  142SAPE   H8X15578   6.094   3.126   9.483  1.3693  1.1637 -2.4786
  142SAPE   H8Y15579   6.106   2.946   9.453 -0.8617  0.1315  0.7148
  142SAPE   C3915580   6.267   3.054   9.382  0.5118 -0.2017 -0.2456
  142SAPE   H9X15581   6.326   2.959   9.381  0.8015 -0.1411  3.1944
  142SAPE   H9Y15582   6.338   3.133   9.414 -1.0358  1.5348 -1.0137
  142SAPE  C31015583   6.212   3.060   9.248  0.5994 -0.0592 -0.1630
  142SAPE  H10X15584   6.127   3.131   9.241 -1.9714 -3.0502 -0.3731
  142SAPE  H10Y15585   6.165   2.964   9.218 -1.1269  0.8622 -0.4768
  142SAPE  C31115586   6.299   3.097   9.127 -0.9102  0.4357 -0.2624
  142SAPE  H11X15587   6.393   3.040   9.113 -0.6629  0.7765  0.0018
  142SAPE  H11Y15588   6.321   3.203   9.152 -0.0561  0.0290  0.6894
  142SAPE  C31215589   6.215   3.102   9.001 -0.1459 -0.0912  0.0143
  142SAPE  H12X15590   6.125   3.167   9.016  1.2157  1.7372  0.3850
  142SAPE  H12Y15591   6.174   2.999   8.994 -0.3518 -0.1000  1.1987
  142SAPE  C31315592   6.289   3.156   8.878 -0.5861  0.2803 -0.3003
  142SAPE  H13X15593   6.397   3.132   8.883 -0.6047  0.1935 -0.3035
  142SAPE  H13Y15594   6.279   3.266   8.882 -3.6382  0.0727 -0.7828
  142SAPE  C31415595   6.227   3.107   8.748  0.1916  0.5100  0.2839
  142SAPE  H14X15596   6.122   3.141   8.748  0.0066 -0.0203 -1.3142
  142SAPE  H14Y15597   6.217   2.996   8.748 -0.4635  0.5704  0.8738
  142SAPE  C31515598   6.311   3.154   8.629  0.2836  0.2615  0.0136
  142SAPE  H15X15599   6.406   3.101   8.655 -1.0963 -1.7128  1.2291
  142SAPE  H15Y15600   6.334   3.263   8.631 -0.4295  0.4254 -0.5014
  142SAPE  C31615601   6.262   3.115   8.490 -0.6967  0.6534  0.5269
  142SAPE  H16X15602   6.244   3.210   8.434  1.3412 -0.9389 -3.0302
  142SAPE  H16Y15603   6.163   3.068   8.503 -0.1956 -0.6208 -0.2273
  142SAPE  C31715604   6.367   3.034   8.408 -0.1542  0.2014  0.1208
  142SAPE  H17X15605   6.315   2.990   8.320  0.1321 -0.6319  0.3649
  142SAPE  H17Y15606   6.393   2.944   8.467  0.2359  0.7837  0.8489
  142SAPE  C31815607   6.501   3.107   8.364  0.9123 -0.2550 -0.1756
  142SAPE  H18X15608   6.529   3.179   8.444  0.4064  0.3004 -0.4886
  142SAPE  H18Y15609   6.473   3.162   8.272 -0.6504  1.0040  1.0300
  142SAPE  H18Z15610   6.585   3.037   8.346  1.7527  0.5038  0.7289
  143SAPE     N15611   0.368   2.224  11.322  0.2018 -0.1887 -0.2216
  143SAPE   HN115612   0.470   2.213  11.340  0.5669 -0.8844 -2.5088
  143SAPE   HN215613   0.318   2.147  11.371 -0.0833 -1.2518 -2.1322
  143SAPE   HN315614   0.362   2.199  11.221  1.0958  0.7956 -0.5246
  143SAPE   C1215615   0.328   2.362  11.351  0.3089  0.2818  0.4229
  143SAPE  H12A15616   0.338   2.385  11.459  3.1947 -0.1743  0.2959
  143SAPE  H12B15617   0.218   2.369  11.341  0.5127  1.0077 -1.4013
  143SAPE   C1115618   0.406   2.464  11.272  0.0878  0.3761 -1.0321
  143SAPE  H11A15619   0.503   2.490  11.320  0.4782 -1.2764 -0.8877
  143SAPE  H11B15620   0.341   2.554  11.274 -2.0038 -1.0931 -1.8949
  143SAPE     P15621   0.478   2.521  11.032  0.0714 -0.1371  0.0430
  143SAPE   O1315622   0.413   2.653  11.050  0.3228 -0.4332 -0.1008
  143SAPE   O1415623   0.627   2.512  11.051 -0.4914  0.2305 -0.0752
  143SAPE   O1215624   0.425   2.423  11.138 -0.2623 -0.3608  0.2610
  143SAPE   O1115625   0.431   2.450  10.896  0.7200  0.3480  0.5170
  143SAPE    C115626   0.485   2.325  10.853 -0.0632  0.2100 -0.5000
  143SAPE    HA15627   0.546   2.268  10.926  0.2602  2.4605  1.0157
  143SAPE    HB15628   0.401   2.260  10.820 -0.4998  1.0289 -1.0022
  143SAPE    C215629   0.581   2.347  10.729 -0.4149  0.7532  0.3078
  143SAPE    HS15630   0.665   2.409  10.766  0.5550  0.0416 -0.6930
  143SAPE   O2115631   0.503   2.393  10.615 -0.0107 -0.1852 -0.2702
  143SAPE   C2115632   0.496   2.525  10.607  0.2645  0.9004  0.1948
  143SAPE   O2215633   0.544   2.605  10.689 -0.2785  0.6644  0.1264
  143SAPE   C2215634   0.425   2.566  10.477 -0.2936 -0.2730  0.2541
  143SAPE   H2R15635   0.421   2.475  10.413 -0.2754  0.3477 -0.6304
  143SAPE   H2S15636   0.324   2.610  10.491 -1.0333 -1.0946 -2.2531
  143SAPE    C315637   0.648   2.210  10.684 -0.0214 -0.2246 -0.3969
  143SAPE    HX15638   0.561   2.146  10.660 -0.8213  1.4111 -1.9521
  143SAPE    HY15639   0.706   2.168  10.769 -2.1733 -0.9570  0.7399
  143SAPE   O3115640   0.725   2.219  10.559 -0.3153 -0.5141  0.4737
  143SAPE   C3115641   0.853   2.267  10.576  0.9101  0.5308  0.7488
  143SAPE   O3215642   0.920   2.269  10.677 -0.1116  0.5892 -0.2000
  143SAPE   C3215643   0.906   2.297  10.431 -0.2759 -0.1950  0.7432
  143SAPE   H2X15644   0.815   2.309  10.369  1.0473  1.4204 -0.9466
  143SAPE   H2Y15645   0.953   2.202  10.397 -1.7023 -1.3072  1.7997
  143SAPE   C2315646   0.514   2.668  10.401 -0.0438 -0.2413 -0.5434
  143SAPE   H3R15647   0.537   2.755  10.465 -0.1502 -0.7634  0.2189
  143SAPE   H3S15648   0.450   2.702  10.317 -1.8052 -1.8011  0.1291
  143SAPE   C2415649   0.649   2.624  10.341  0.2029  0.3380 -0.3609
  143SAPE   H4R15650   0.728   2.597  10.414  0.5869  2.2426 -0.0457
  143SAPE   H4S15651   0.698   2.708  10.288  0.3990 -0.7984 -2.0000
  143SAPE   C2515652   0.617   2.511  10.246  0.3861 -0.1419  0.0126
  143SAPE   H5R15653   0.610   2.411  10.292 -0.0609 -0.7957 -1.4586
  143SAPE   C2615654   0.606   2.522  10.114  0.8576  0.6328  0.5130
  143SAPE   H6R15655   0.587   2.431  10.055 -2.9170  3.5375 -3.0311
  143SAPE   C2715656   0.608   2.652  10.036 -0.3619  0.3501 -0.3766
  143SAPE   H7R15657   0.593   2.738  10.105 -0.7203 -1.0740  1.3758
  143SAPE   H7S15658   0.521   2.666   9.969 -0.2859 -1.5966 -0.9178
  143SAPE   C2815659   0.731   2.652   9.958 -0.3486 -0.2138  0.3848
  143SAPE   H8R15660   0.823   2.661  10.019 -0.3673  2.2222  0.0632
  143SAPE   C2915661   0.747   2.653   9.826 -0.2515  0.4665 -0.3088
  143SAPE   H9R15662   0.849   2.647   9.785 -0.3942  1.3969 -0.8059
  143SAPE  C21015663   0.641   2.654   9.717  0.4576  0.4041 -0.0795
  143SAPE  H10R15664   0.703   2.679   9.628 -0.6739  0.2072 -0.9323
  143SAPE  H10S15665   0.574   2.741   9.729 -2.1162 -1.5124 -0.2240
  143SAPE  C21115666   0.552   2.533   9.698 -0.5250 -0.8432  0.1056
  143SAPE  H11R15667   0.506   2.493   9.789 -0.1294 -0.3049  0.5499
  143SAPE  C21215668   0.535   2.470   9.579  0.2442 -0.6636 -0.0596
  143SAPE  H12R15669   0.461   2.389   9.574 -0.8499  0.3446 -0.4606
  143SAPE  C21315670   0.594   2.511   9.442  0.2351 -0.6403 -0.2582
  143SAPE  H13R15671   0.637   2.613   9.449 -0.2427 -0.4618  0.0860
  143SAPE  H13S15672   0.501   2.526   9.384 -0.0864 -0.9853  0.1595
  143SAPE  C21415673   0.686   2.410   9.391 -0.3503 -0.4081  0.0742
  143SAPE  H14R15674   0.773   2.386   9.454  1.0988 -0.2874 -1.8147
  143SAPE  C21515675   0.683   2.372   9.262 -0.3218  0.2370  0.6602
  143SAPE  H15R15676   0.765   2.305   9.232 -0.0104 -0.4497  2.9579
  143SAPE  C21615677   0.601   2.431   9.148 -0.3741 -0.6678 -0.1331
  143SAPE  H16R15678   0.658   2.475   9.063 -1.7811  2.2728  0.3641
  143SAPE  H16S15679   0.557   2.525   9.189  1.9410  1.5063 -2.3921
  143SAPE  C21715680   0.502   2.325   9.092 -0.7763 -0.8608 -0.3520
  143SAPE  H17R15681   0.438   2.279   9.170  1.8531 -0.4099  2.1524
  143SAPE  H17S15682   0.565   2.245   9.048 -0.8634 -0.8362 -0.5235
  143SAPE  C21815683   0.405   2.375   8.981  0.0756  0.0520 -0.7789
  143SAPE  H18R15684   0.362   2.477   8.997 -0.3685  0.0381 -1.8930
  143SAPE  H18S15685   0.319   2.306   8.969  0.5961 -0.4421 -1.7042
  143SAPE  C21915686   0.471   2.365   8.837  0.0990 -0.3893  0.0001
  143SAPE  H19R15687   0.490   2.258   8.813  1.3512 -0.3135  0.6491
  143SAPE  H19S15688   0.572   2.410   8.848  0.1452 -0.1691 -1.2344
  143SAPE  C22015689   0.392   2.431   8.727 -0.1261 -0.1695  0.0643
  143SAPE  H20R15690   0.373   2.537   8.756  1.2628  0.4274 -1.0975
  143SAPE  H20S15691   0.289   2.396   8.706  0.3557 -0.7599 -1.4430
  143SAPE  H20T15692   0.460   2.444   8.639  1.2575 -0.1027  1.1302
  143SAPE   C3315693   1.005   2.416  10.399  0.3704 -0.3923  0.0312
  143SAPE   H3X15694   1.103   2.404  10.450 -0.1750 -1.3271  0.8893
  143SAPE   H3Y15695   0.965   2.508  10.447  0.2895 -1.0888  1.3243
  143SAPE   C3415696   1.039   2.444  10.253  0.2400 -0.3592  1.0750
  143SAPE   H4X15697   1.126   2.513  10.243  0.0951 -0.3526 -0.1224
  143SAPE   H4Y15698   0.953   2.495  10.205 -0.2533 -1.8486  0.3653
  143SAPE   C3515699   1.088   2.315  10.177  0.0225  0.4267 -0.1095
  143SAPE   H5X15700   1.007   2.241  10.190 -1.0334  1.9078  2.0884
  143SAPE   H5Y15701   1.177   2.269  10.227  1.1436  1.0967 -1.4434
  143SAPE   C3615702   1.138   2.324  10.029  0.9632 -0.4399  0.5325
  143SAPE   H6X15703   1.200   2.237   9.998 -1.5903 -1.9185 -0.5607
  143SAPE   H6Y15704   1.197   2.418  10.018 -0.6782  0.6461  0.7779
  143SAPE   C3715705   1.019   2.335   9.923 -0.5550  0.2435  0.4604
  143SAPE   H7X15706   0.954   2.421   9.949 -0.3800  0.4353  0.2596
  143SAPE   H7Y15707   0.957   2.244   9.937 -2.4347  1.9243  3.8147
  143SAPE   C3815708   1.063   2.341   9.781 -0.7036 -0.0585  0.7261
  143SAPE   H8X15709   0.977   2.340   9.712  1.2529  0.2412 -1.7773
  143SAPE   H8Y15710   1.120   2.248   9.759 -2.2752 -0.5836 -1.1930
  143SAPE   C3915711   1.141   2.465   9.753 -0.3313 -1.1319 -0.2417
  143SAPE   H9X15712   1.233   2.458   9.815 -0.0059  0.1949 -0.5412
  143SAPE   H9Y15713   1.090   2.558   9.788  0.5193 -0.6409 -0.2940
  143SAPE  C31015714   1.177   2.510   9.607 -0.2530 -0.1247  0.5742
  143SAPE  H10X15715   1.253   2.440   9.564  1.7905  2.0523  0.5272
  143SAPE  H10Y15716   1.225   2.610   9.603 -1.0162  0.3069  1.8317
  143SAPE  C31115717   1.047   2.511   9.513 -0.1008  0.3929 -0.3828
  143SAPE  H11X15718   0.965   2.538   9.583  0.5512 -1.5264  1.1607
  143SAPE  H11Y15719   1.027   2.405   9.487  0.4934  0.6935 -2.0800
  143SAPE  C31215720   1.080   2.603   9.393  0.4134  0.3774  0.1588
  143SAPE  H12X15721   1.187   2.575   9.380 -0.3824 -2.3413 -0.8326
  143SAPE  H12Y15722   1.076   2.709   9.428  1.7738  0.0426  1.3523
  143SAPE  C31315723   0.996   2.586   9.275  0.5963 -0.2082  0.0156
  143SAPE  H13X15724   0.893   2.626   9.290  0.6987  1.1914 -2.6580
  143SAPE  H13Y15725   0.981   2.476   9.271  0.3625 -0.2447  1.7452
  143SAPE  C31415726   1.074   2.645   9.152 -0.2425 -0.6319 -0.8569
  143SAPE  H14X15727   1.176   2.602   9.148 -0.4495 -1.0322 -1.9259
  143SAPE  H14Y15728   1.087   2.755   9.167  0.6407 -1.2773  4.0517
  143SAPE  C31515729   1.015   2.615   9.019  0.2684  1.1490  0.4909
  143SAPE  H15X15730   0.916   2.663   9.009 -1.6867 -2.0262  3.2456
  143SAPE  H15Y15731   1.026   2.507   8.993  2.4093  0.2751  4.5691
  143SAPE  C31615732   1.097   2.688   8.914  0.6426 -0.5024  0.2456
  143SAPE  H16X15733   1.203   2.655   8.912  0.6434 -0.4492 -2.5198
  143SAPE  H16Y15734   1.099   2.795   8.945 -0.6066 -0.2489 -0.5058
  143SAPE  C31715735   1.045   2.684   8.770 -0.1757 -1.0655  0.2600
  143SAPE  H17X15736   0.935   2.701   8.764  0.1881  0.6052 -2.7867
  143SAPE  H17Y15737   1.055   2.584   8.722 -0.5340 -0.5780 -0.8497
  143SAPE  C31815738   1.116   2.782   8.684 -0.2100  0.5767  0.8703
  143SAPE  H18X15739   1.085   2.886   8.707  1.0651  0.9101  1.1390
  143SAPE  H18Y15740   1.093   2.764   8.577  1.6234  1.5479  0.2820
  143SAPE  H18Z15741   1.224   2.774   8.711 -0.0600  1.9415  0.7133
  144SAPE     N15742   4.162   0.033  10.931 -0.5014 -0.1649 -0.1034
  144SAPE   HN115743   4.218   0.077  10.856 -0.8041 -1.2115 -0.9577
  144SAPE   HN215744   4.193  -0.065  10.915  0.8983  0.2736 -0.1127
  144SAPE   HN315745   4.068   0.065  10.899  0.0213  0.1351 -1.3476
  144SAPE   C1215746   4.195   0.069  11.065  0.3514  1.0296 -0.1612
  144SAPE  H12A15747   4.301   0.041  11.080 -0.7988 -2.2197  2.8071
  144SAPE  H12B15748   4.137   0.008  11.137  0.1999  1.0569 -0.2596
  144SAPE   C1115749   4.181   0.215  11.097  1.2323  0.3649 -0.1418
  144SAPE  H11A15750   4.267   0.270  11.054  1.4133 -1.7206 -2.5398
  144SAPE  H11B15751   4.190   0.225  11.207 -1.4578  2.0591 -0.0275
  144SAPE     P15752   4.035   0.417  11.009 -0.1765  0.5731 -0.5421
  144SAPE   O1315753   3.892   0.466  11.032  0.2862 -0.6519  0.3875
  144SAPE   O1415754   4.150   0.486  11.077 -0.6405  0.5643 -0.6891
  144SAPE   O1215755   4.045   0.272  11.058 -0.4614 -1.0165  0.0368
  144SAPE   O1115756   4.060   0.405  10.853 -0.2734 -0.0517 -0.3651
  144SAPE    C115757   3.988   0.304  10.773 -0.3647 -0.8315 -0.4235
  144SAPE    HA15758   4.066   0.229  10.749 -0.4472 -1.5488  1.4724
  144SAPE    HB15759   3.896   0.265  10.820 -0.8463 -1.3146 -1.7306
  144SAPE    C215760   3.942   0.354  10.632 -0.4460 -0.0375 -0.7067
  144SAPE    HS15761   3.886   0.271  10.585  0.3794 -0.2044 -1.4240
  144SAPE   O2115762   4.061   0.401  10.567 -0.1160  0.3068  0.2511
  144SAPE   C2115763   4.128   0.301  10.505 -0.6618  0.3302  0.1196
  144SAPE   O2215764   4.116   0.183  10.525 -0.5399  0.3946  0.0810
  144SAPE   C2215765   4.233   0.367  10.419  0.3554  1.0394 -0.3013
  144SAPE   H2R15766   4.292   0.441  10.477 -0.8245  1.1502  0.7811
  144SAPE   H2S15767   4.285   0.283  10.368  0.3061  1.1502 -0.5379
  144SAPE    C315768   3.849   0.479  10.658  0.1709 -0.6287  0.0381
  144SAPE    HX15769   3.900   0.570  10.695 -1.1797  0.6616 -1.1969
  144SAPE    HY15770   3.785   0.443  10.742  3.0202 -0.5917  2.3109
  144SAPE   O3115771   3.775   0.513  10.538  0.5455 -0.0594  0.0767
  144SAPE   C3115772   3.835   0.597  10.454 -0.6700  0.8827 -0.0457
  144SAPE   O3215773   3.938   0.658  10.482  0.3280  0.4493  0.7557
  144SAPE   C3215774   3.756   0.599  10.320 -0.1452  0.6390 -0.3705
  144SAPE   H2X15775   3.649   0.619  10.345 -0.5179 -2.3507  0.6144
  144SAPE   H2Y15776   3.749   0.493  10.288 -1.3886 -0.1193  2.2999
  144SAPE   C2315777   4.161   0.435  10.303  0.3794 -0.5488 -0.0480
  144SAPE   H3R15778   4.246   0.464  10.237 -1.1438  2.0006 -0.9597
  144SAPE   H3S15779   4.100   0.520  10.339  0.6668 -0.6446  0.6640
  144SAPE   C2415780   4.064   0.350  10.219 -0.5024  0.5998 -1.0624
  144SAPE   H4R15781   4.002   0.425  10.164 -1.0371  2.0683  1.4417
  144SAPE   H4S15782   3.991   0.293  10.280  1.3856 -0.4114  0.2907
  144SAPE   C2515783   4.130   0.246  10.133  0.1589  0.7400  0.2060
  144SAPE   H5R15784   4.163   0.163  10.197 -0.5314  0.7044  0.5178
  144SAPE   C2615785   4.164   0.257  10.005  0.6653 -0.5650  0.4700
  144SAPE   H6R15786   4.203   0.168   9.953  0.1300 -1.0256  0.8483
  144SAPE   C2715787   4.140   0.372   9.913 -0.5300 -0.2026 -0.0137
  144SAPE   H7R15788   4.204   0.358   9.823  0.2913 -0.6743  0.6292
  144SAPE   H7S15789   4.189   0.466   9.949  0.6319  0.3868 -2.9803
  144SAPE   C2815790   3.993   0.390   9.875  0.0589  0.0348 -0.3429
  144SAPE   H8R15791   3.919   0.322   9.918  0.5103 -0.4025 -0.2534
  144SAPE   C2915792   3.947   0.469   9.777  0.2978  0.0299 -0.6507
  144SAPE   H9R15793   3.840   0.484   9.758  0.4460  0.3264 -1.2559
  144SAPE  C21015794   4.046   0.543   9.691 -0.2060  1.0436  1.2494
  144SAPE  H10R15795   4.069   0.473   9.607 -1.6385  1.3277  0.6106
  144SAPE  H10S15796   4.150   0.555   9.730  0.0703  0.2633  0.7771
  144SAPE  C21115797   3.995   0.672   9.643  0.3959  0.9167  0.0283
  144SAPE  H11R15798   3.986   0.761   9.706 -1.7603  1.7373 -1.3616
  144SAPE  C21215799   3.941   0.687   9.520 -0.0483  0.4218  0.3280
  144SAPE  H12R15800   3.898   0.787   9.506  0.4545  0.8669  1.8042
  144SAPE  C21315801   3.923   0.595   9.397  0.7533  0.4021  0.4437
  144SAPE  H13R15802   3.821   0.563   9.370  1.7592 -2.0450 -0.5808
  144SAPE  H13S15803   3.967   0.495   9.419 -0.7775  0.0675  2.0599
  144SAPE  C21415804   4.006   0.645   9.278  0.3255  1.1078  0.1659
  144SAPE  H14R15805   4.112   0.669   9.296 -0.3029  2.0730  2.7253
  144SAPE  C21515806   3.967   0.657   9.152  0.0939 -0.0572  0.2415
  144SAPE  H15R15807   4.040   0.701   9.083 -0.4058  0.6380  0.1461
  144SAPE  C21615808   3.838   0.632   9.089  0.4066  0.1636 -0.1819
  144SAPE  H16R15809   3.792   0.552   9.151 -0.5163 -0.2639 -1.3965
  144SAPE  H16S15810   3.847   0.581   8.990 -0.6640 -1.4810  0.5504
  144SAPE  C21715811   3.740   0.753   9.076  0.5435 -0.1033 -0.2902
  144SAPE  H17R15812   3.732   0.801   9.176 -1.4489  1.7083 -1.2654
  144SAPE  H17S15813   3.639   0.721   9.043  0.2435 -0.9024  1.3393
  144SAPE  C21815814   3.789   0.874   8.983  0.2692  0.5689  0.4064
  144SAPE  H18R15815   3.893   0.888   9.018 -0.2843  1.9579  1.5074
  144SAPE  H18S15816   3.741   0.963   9.029  1.5286  0.4167  2.0815
  144SAPE  C21915817   3.768   0.845   8.834 -0.4260 -0.2015 -0.8602
  144SAPE  H19R15818   3.827   0.753   8.817  1.2631  0.7843 -0.4209
  144SAPE  H19S15819   3.827   0.922   8.780 -1.3524 -0.5235 -2.3591
  144SAPE  C22015820   3.628   0.827   8.785  0.4893  0.3305  0.8411
  144SAPE  H20R15821   3.586   0.728   8.814  0.4419  0.3064  0.6887
  144SAPE  H20S15822   3.634   0.817   8.675  0.1339 -1.1014  0.9398
  144SAPE  H20T15823   3.564   0.915   8.802 -1.3934 -0.0988 -3.3788
  144SAPE   C3315824   3.811   0.697  10.219  0.3401 -0.0527  0.0461
  144SAPE   H3X15825   3.911   0.663  10.186  0.2181 -0.7364  0.3606
  144SAPE   H3Y15826   3.820   0.799  10.262  1.2963  0.1277 -0.5715
  144SAPE   C3415827   3.726   0.711  10.090  0.6029 -0.8776 -0.3022
  144SAPE   H4X15828   3.637   0.773  10.111 -0.0635 -1.5397 -1.1411
  144SAPE   H4Y15829   3.677   0.615  10.063 -0.5672 -0.2143 -0.5566
  144SAPE   C3515830   3.786   0.778   9.970  0.2134  0.4875 -0.0953
  144SAPE   H5X15831   3.884   0.732   9.945  0.6702 -0.2590  2.8849
  144SAPE   H5Y15832   3.813   0.879  10.009  2.1239 -0.4752  1.1937
  144SAPE   C3615833   3.690   0.812   9.862  0.0745 -0.1536 -0.0404
  144SAPE   H6X15834   3.739   0.869   9.780  0.5464  1.3131  1.2362
  144SAPE   H6Y15835   3.608   0.877   9.900  1.6318  1.3246  0.8604
  144SAPE   C3715836   3.618   0.693   9.799 -0.4108 -0.1747  1.0651
  144SAPE   H7X15837   3.542   0.647   9.865 -1.4178  0.6276  0.4755
  144SAPE   H7Y15838   3.701   0.619   9.798 -0.2263  0.0297 -1.4021
  144SAPE   C3815839   3.573   0.709   9.656  0.6431 -0.0579  0.0941
  144SAPE   H8X15840   3.651   0.737   9.582  2.2890 -2.1238  0.9990
  144SAPE   H8Y15841   3.502   0.794   9.661  0.7264 -0.0169  0.5129
  144SAPE   C3915842   3.518   0.582   9.583 -0.1391 -0.5160  0.5816
  144SAPE   H9X15843   3.414   0.565   9.616 -0.8636  1.4241 -0.5969
  144SAPE   H9Y15844   3.580   0.495   9.613  0.7205 -0.5284 -1.1333
  144SAPE  C31015845   3.498   0.582   9.425  0.5885  0.1364 -0.3110
  144SAPE  H10X15846   3.599   0.584   9.378  0.5834  2.2165 -0.3102
  144SAPE  H10Y15847   3.445   0.674   9.391 -1.7959 -0.2058  2.2852
  144SAPE  C31115848   3.420   0.460   9.376 -0.1849 -0.4749 -0.0449
  144SAPE  H11X15849   3.321   0.462   9.428 -1.8613 -0.2911 -3.1519
  144SAPE  H11Y15850   3.478   0.372   9.412 -1.1023 -0.3436  1.8344
  144SAPE  C31215851   3.412   0.458   9.223 -0.3353 -0.2249 -0.3329
  144SAPE  H12X15852   3.510   0.423   9.183  0.0304 -0.2021  0.5298
  144SAPE  H12Y15853   3.390   0.560   9.185 -1.4962 -0.5345 -0.5241
  144SAPE  C31315854   3.306   0.363   9.171 -0.1889 -0.6475 -0.9422
  144SAPE  H13X15855   3.300   0.379   9.062 -0.3062  0.3080 -0.7989
  144SAPE  H13Y15856   3.210   0.387   9.222 -0.2439  0.1794 -1.4281
  144SAPE  C31415857   3.337   0.213   9.186 -0.3630  0.2117  0.3406
  144SAPE  H14X15858   3.356   0.196   9.294  0.4721 -1.3074 -0.0285
  144SAPE  H14Y15859   3.419   0.175   9.121 -1.6277 -1.1848 -0.4632
  144SAPE  C31515860   3.211   0.135   9.144  0.0190 -0.3681  0.3923
  144SAPE  H15X15861   3.197   0.150   9.035  2.5246  0.0410  0.1160
  144SAPE  H15Y15862   3.126   0.167   9.208  0.1806  1.8801 -0.4841
  144SAPE  C31615863   3.220  -0.019   9.161 -0.3077 -0.8652 -0.5028
  144SAPE  H16X15864   3.242  -0.029   9.270  1.0190  3.7403 -0.2397
  144SAPE  H16Y15865   3.313  -0.052   9.111 -0.3477 -0.3032 -0.9498
  144SAPE  C31715866   3.089  -0.091   9.124  0.4265  0.1699 -0.1529
  144SAPE  H17X15867   3.078  -0.070   9.015  0.9806  2.1879  0.1544
  144SAPE  H17Y15868   3.006  -0.040   9.176  2.1280  1.2027  1.6078
  144SAPE  C31815869   3.076  -0.238   9.163  0.5365  0.1400 -0.1290
  144SAPE  H18X15870   3.156  -0.284   9.224 -0.7829 -0.9055  0.8565
  144SAPE  H18Y15871   3.056  -0.293   9.068 -1.5901  2.4856 -1.0888
  144SAPE  H18Z15872   2.981  -0.259   9.216  0.7693 -2.2660 -0.5907
  145SAPE     N15873   1.657   1.852  11.045 -0.5052 -0.5993  0.5702
  145SAPE   HN115874   1.655   1.860  11.149 -0.5909 -1.4676  0.6440
  145SAPE   HN215875   1.753   1.816  11.029 -1.7384 -2.9339 -1.9767
  145SAPE   HN315876   1.648   1.948  11.008 -2.7174 -1.0358 -0.0702
  145SAPE   C1215877   1.549   1.782  10.968 -0.4590  0.4723 -0.2080
  145SAPE  H12A15878   1.603   1.715  10.897 -0.3511 -1.2332  1.4315
  145SAPE  H12B15879   1.496   1.859  10.909 -1.2393 -0.7635 -1.1509
  145SAPE   C1115880   1.467   1.685  11.052  0.3356 -0.3073  0.1072
  145SAPE  H11A15881   1.525   1.601  11.097  2.0174 -0.3639 -2.1334
  145SAPE  H11B15882   1.391   1.648  10.979 -0.4795  0.5778  0.4901
  145SAPE     P15883   1.257   1.814  11.162 -0.0060 -0.0571  0.0366
  145SAPE   O1315884   1.157   1.717  11.217  0.1030 -0.7402 -0.0962
  145SAPE   O1415885   1.265   1.946  11.227 -0.2661 -0.6839  0.3242
  145SAPE   O1215886   1.400   1.744  11.164 -0.0491 -0.4515 -0.2554
  145SAPE   O1115887   1.228   1.834  11.008 -0.0484  0.2330 -0.2546
  145SAPE    C115888   1.215   1.962  10.958 -0.5120  0.0550  0.0100
  145SAPE    HA15889   1.154   2.026  11.024 -0.8430  0.1155 -0.3497
  145SAPE    HB15890   1.309   2.018  10.938 -0.5034  0.9194  2.3569
  145SAPE    C215891   1.146   1.958  10.816  0.0859  0.1507 -0.2023
  145SAPE    HS15892   1.098   2.056  10.796 -2.1859 -0.8689  0.0465
  145SAPE   O2115893   1.037   1.865  10.824 -0.0680 -0.7595 -0.3065
  145SAPE   C2115894   0.934   1.901  10.906 -0.1238  0.3710 -0.8868
  145SAPE   O2215895   0.930   2.004  10.970  0.0619 -0.1486 -0.3508
  145SAPE   C2215896   0.820   1.794  10.893  1.0461  0.1638  0.5985
  145SAPE   H2R15897   0.864   1.695  10.868 -1.0627 -0.2581 -1.6184
  145SAPE   H2S15898   0.760   1.779  10.986  0.9391  0.5872  0.5987
  145SAPE    C315899   1.238   1.918  10.696  0.0294  0.1753  0.0739
  145SAPE    HX15900   1.245   1.807  10.695 -0.4408  0.0949 -3.6958
  145SAPE    HY15901   1.336   1.965  10.717  0.4042 -0.8821  0.7276
  145SAPE   O3115902   1.189   1.976  10.570  0.3732 -0.2387  0.1154
  145SAPE   C3115903   1.177   1.886  10.467  0.4770 -0.2807  0.8978
  145SAPE   O3215904   1.212   1.770  10.476  0.0237 -0.1294  0.3978
  145SAPE   C3215905   1.118   1.943  10.337 -0.0623  0.2000 -1.1887
  145SAPE   H2X15906   1.176   2.037  10.326  0.4138 -0.0322 -0.7206
  145SAPE   H2Y15907   1.015   1.976  10.360 -0.4513 -0.3094 -2.1336
  145SAPE   C2315908   0.713   1.819  10.779 -0.4608  0.4974 -0.1307
  145SAPE   H3R15909   0.659   1.906  10.822  0.9059  1.2141  0.1802
  145SAPE   H3S15910   0.645   1.733  10.760 -2.2965  1.8768  0.0614
  145SAPE   C2415911   0.771   1.859  10.641  0.7472 -0.7882  0.2128
  145SAPE   H4R15912   0.836   1.949  10.650  0.1286 -0.4872  1.7424
  145SAPE   H4S15913   0.688   1.882  10.571  1.1424  2.5590  0.7716
  145SAPE   C2515914   0.862   1.759  10.591 -0.2648 -0.6764 -0.2643
  145SAPE   H5R15915   0.930   1.736  10.674 -0.8218  1.4715  0.8017
  145SAPE   C2615916   0.852   1.697  10.472 -0.1502 -0.3918 -0.2537
  145SAPE   H6R15917   0.926   1.620  10.449  0.4287  0.2560 -0.5805
  145SAPE   C2715918   0.749   1.721  10.366 -0.2891  0.3844 -0.2662
  145SAPE   H7R15919   0.794   1.783  10.285 -0.7426 -0.7067 -1.3730
  145SAPE   H7S15920   0.665   1.783  10.404  0.3028  1.7024 -1.0719
  145SAPE   C2815921   0.699   1.592  10.300 -0.3417 -0.8983  0.0079
  145SAPE   H8R15922   0.692   1.507  10.369 -2.2501 -0.9162 -0.1827
  145SAPE   C2915923   0.653   1.583  10.176 -0.1101 -0.2709 -0.3941
  145SAPE   H9R15924   0.621   1.485  10.138 -0.1104 -0.3161 -0.2792
  145SAPE  C21015925   0.632   1.697  10.083 -0.1283 -0.4118  0.2888
  145SAPE  H10R15926   0.628   1.797  10.131 -0.0579  0.2408 -1.0320
  145SAPE  H10S15927   0.525   1.700  10.051  0.5302  2.3973 -1.8874
  145SAPE  C21115928   0.733   1.692   9.968 -0.3540  0.4294  0.2176
  145SAPE  H11R15929   0.829   1.741   9.987  0.9467 -1.2897 -1.6881
  145SAPE  C21215930   0.719   1.643   9.851 -0.0763 -0.1480 -0.0608
  145SAPE  H12R15931   0.802   1.644   9.778 -1.7009  0.5984 -1.9552
  145SAPE  C21315932   0.603   1.570   9.790 -0.0710  0.0997  0.5702
  145SAPE  H13R15933   0.520   1.550   9.861  1.5223 -0.0071  2.4423
  145SAPE  H13S15934   0.631   1.466   9.765 -2.1917 -0.0444 -1.4320
  145SAPE  C21415935   0.551   1.645   9.669  0.4684 -0.5288  0.2458
  145SAPE  H14R15936   0.595   1.622   9.571 -2.2909  0.7293 -1.3730
  145SAPE  C21515937   0.458   1.742   9.662  0.6676 -0.1575  0.6417
  145SAPE  H15R15938   0.450   1.789   9.563  1.5061  0.4993  0.8731
  145SAPE  C21615939   0.380   1.812   9.774  0.4605 -0.2557 -0.3555
  145SAPE  H16R15940   0.334   1.905   9.736  0.0589 -0.1463  0.3954
  145SAPE  H16S15941   0.433   1.847   9.866 -0.1015  2.2874 -0.9598
  145SAPE  C21715942   0.266   1.718   9.824 -0.7523  0.2157 -0.3710
  145SAPE  H17R15943   0.314   1.654   9.900  1.1387  1.5301 -0.4167
  145SAPE  H17S15944   0.221   1.661   9.740 -2.0014  2.9114 -1.6018
  145SAPE  C21815945   0.150   1.789   9.904  0.0146 -0.5069  0.0476
  145SAPE  H18R15946   0.078   1.716   9.947  0.0373  0.6852  2.1444
  145SAPE  H18S15947   0.099   1.855   9.830 -0.0867 -1.6793 -0.9520
  145SAPE  C21915948   0.193   1.877  10.022  0.0391 -0.1110 -0.5183
  145SAPE  H19R15949   0.259   1.962   9.995 -0.1644  0.2212  0.0202
  145SAPE  H19S15950   0.243   1.817  10.101 -2.5538 -2.6358 -0.7206
  145SAPE  C22015951   0.061   1.925  10.089  0.9969 -0.3125 -0.5043
  145SAPE  H20R15952  -0.013   1.961  10.014 -0.1457 -0.9682  0.2972
  145SAPE  H20S15953   0.084   2.001  10.167 -0.0406 -0.2001 -0.3039
  145SAPE  H20T15954   0.015   1.839  10.142  0.5176 -0.1142 -0.6024
  145SAPE   C3315955   1.122   1.848  10.215  0.0602 -1.1640 -0.8202
  145SAPE   H3X15956   1.056   1.760  10.226  1.0654 -2.0064 -1.4189
  145SAPE   H3Y15957   1.230   1.824  10.206  0.3355  0.2587 -1.6246
  145SAPE   C3415958   1.085   1.926  10.088 -1.1432  0.2953  0.2304
  145SAPE   H4X15959   1.145   2.020  10.098  1.8643 -1.4690 -0.7846
  145SAPE   H4Y15960   0.974   1.932  10.096 -1.2272 -3.2910  3.1884
  145SAPE   C3515961   1.122   1.863   9.948  0.4983 -0.4326 -0.2585
  145SAPE   H5X15962   1.042   1.787   9.937 -1.4881  1.5478  0.1686
  145SAPE   H5Y15963   1.216   1.805   9.959 -0.0014 -1.0675  0.7084
  145SAPE   C3615964   1.108   1.980   9.846  0.4320  0.0439  0.2141
  145SAPE   H6X15965   1.189   2.053   9.870  0.9705 -0.4594 -0.0456
  145SAPE   H6Y15966   1.016   2.038   9.867  0.1324  0.0999 -1.2033
  145SAPE   C3715967   1.114   1.928   9.703 -0.1329 -0.4094 -0.5892
  145SAPE   H7X15968   1.032   1.854   9.691 -0.7149 -0.1895  1.8974
  145SAPE   H7Y15969   1.209   1.876   9.679 -0.6733 -1.1271 -1.2193
  145SAPE   C3815970   1.091   2.040   9.593  0.3427 -0.1201  0.3623
  145SAPE   H8X15971   1.169   2.117   9.608  2.3825 -1.9830 -0.3767
  145SAPE   H8Y15972   0.988   2.076   9.616  1.2319  2.5738  0.2942
  145SAPE   C3915973   1.090   2.002   9.449 -0.0538  1.1256 -0.3946
  145SAPE   H9X15974   1.045   1.900   9.443  1.4746  0.4049  0.2216
  145SAPE   H9Y15975   1.194   1.987   9.415  0.1345  1.6848 -0.0723
  145SAPE  C31015976   1.012   2.097   9.353  0.9661 -0.0983 -0.4202
  145SAPE  H10X15977   1.065   2.194   9.363  1.7332 -0.5506 -0.0005
  145SAPE  H10Y15978   0.905   2.108   9.379  0.2032  0.8505 -3.8035
  145SAPE  C31115979   1.027   2.051   9.204 -0.4613  0.4391 -0.4892
  145SAPE  H11X15980   0.927   2.081   9.165 -1.4030 -0.1326  1.4203
  145SAPE  H11Y15981   1.027   1.941   9.217  0.0222  0.7249  2.0662
  145SAPE  C31215982   1.154   2.104   9.128  0.5831  0.0636  0.1973
  145SAPE  H12X15983   1.249   2.077   9.180 -0.6455 -1.5546  1.6466
  145SAPE  H12Y15984   1.149   2.215   9.118  1.0994 -0.0146 -1.0034
  145SAPE  C31315985   1.161   2.033   8.995  1.1958 -0.5422  0.9626
  145SAPE  H13X15986   1.061   2.047   8.947  2.0667  1.4194 -0.3209
  145SAPE  H13Y15987   1.181   1.927   9.018  3.9650 -1.3378 -4.3731
  145SAPE  C31415988   1.281   2.075   8.912  0.0433  0.8803 -0.2192
  145SAPE  H14X15989   1.378   2.032   8.947 -0.2281  0.1411 -0.3668
  145SAPE  H14Y15990   1.293   2.183   8.933 -2.0473  1.4668 -1.8226
  145SAPE  C31515991   1.260   2.053   8.761 -0.4724  0.2412  0.3483
  145SAPE  H15X15992   1.350   2.084   8.704  0.6100  0.4280  2.1358
  145SAPE  H15Y15993   1.183   2.125   8.725 -1.0722 -0.4181  0.3007
  145SAPE  C31615994   1.244   1.908   8.736  0.3680  0.3801 -0.4176
  145SAPE  H16X15995   1.201   1.895   8.634  0.5378  1.4540 -0.6306
  145SAPE  H16Y15996   1.168   1.864   8.804 -0.2402  1.5676 -0.3103
  145SAPE  C31715997   1.368   1.822   8.767 -0.6165 -0.3222 -0.4743
  145SAPE  H17X15998   1.414   1.825   8.868  1.0666  1.2022 -1.2612
  145SAPE  H17Y15999   1.454   1.866   8.711  1.0023 -0.6730  1.6777
  145SAPE  C31816000   1.345   1.675   8.738 -0.5366 -0.4023  0.1584
  145SAPE  H18X16001   1.332   1.647   8.631  0.9116  0.5978 -0.2842
  145SAPE  H18Y16002   1.247   1.643   8.780 -0.0027  1.2099  2.7319
  145SAPE  H18Z16003   1.424   1.622   8.795  0.6240  2.0860  0.9628
  146SAPE     N16004   5.864   1.737  10.829 -0.2977  0.3267  0.9258
  146SAPE   HN116005   5.911   1.828  10.813 -0.3646  0.6424  2.4797
  146SAPE   HN216006   5.765   1.744  10.860 -0.7213 -0.7593 -0.0844
  146SAPE   HN316007   5.917   1.679  10.897  1.0360  0.7998  0.3170
  146SAPE   C1216008   5.860   1.660  10.703 -0.3877 -0.5394  0.3710
  146SAPE  H12A16009   5.962   1.622  10.678  0.3717  0.3629  2.0121
  146SAPE  H12B16010   5.817   1.727  10.626 -1.1030  0.4403  1.6108
  146SAPE   C1116011   5.775   1.535  10.720  0.8530 -0.5437 -0.1571
  146SAPE  H11A16012   5.809   1.463  10.797  2.6351  0.6374  0.1976
  146SAPE  H11B16013   5.787   1.473  10.628  2.7431 -0.0655 -0.2540
  146SAPE     P16014   5.525   1.502  10.796  0.7261  0.4660  0.4152
  146SAPE   O1316015   5.563   1.478  10.940 -0.2451 -0.6960 -0.7137
  146SAPE   O1416016   5.399   1.573  10.774 -0.4891 -0.1172  0.3154
  146SAPE   O1216017   5.640   1.587  10.727 -0.0431 -0.1072  0.4223
  146SAPE   O1116018   5.519   1.361  10.724 -0.0929  0.1046  0.5378
  146SAPE    C116019   5.411   1.315  10.644  0.4951  0.4140  0.8683
  146SAPE    HA16020   5.373   1.220  10.687 -0.3509  0.4799  0.2574
  146SAPE    HB16021   5.329   1.390  10.648 -0.1276 -0.1399 -1.2102
  146SAPE    C216022   5.464   1.295  10.498  0.0275  0.3612 -0.1135
  146SAPE    HS16023   5.526   1.203  10.501  0.6475  0.7691 -0.3419
  146SAPE   O2116024   5.522   1.418  10.446 -0.0321 -0.0981 -0.0127
  146SAPE   C2116025   5.641   1.396  10.385 -0.2354  0.2538 -0.2571
  146SAPE   O2216026   5.694   1.285  10.366 -0.4711 -0.2706  0.3605
  146SAPE   C2216027   5.696   1.525  10.334 -0.2267 -0.1698 -0.2854
  146SAPE   H2R16028   5.630   1.608  10.368 -0.8726  0.1136 -2.1905
  146SAPE   H2S16029   5.799   1.548  10.367 -0.2200 -1.3790  0.5799
  146SAPE    C316030   5.346   1.259  10.403  0.2168 -0.8413  0.4601
  146SAPE    HX16031   5.286   1.352  10.404  1.2027 -0.2068  1.5423
  146SAPE    HY16032   5.283   1.174  10.436 -0.3991 -0.0706  1.2905
  146SAPE   O3116033   5.396   1.241  10.272 -0.4481  0.1719  0.1080
  146SAPE   C3116034   5.449   1.116  10.251  0.3076 -0.6267  0.2143
  146SAPE   O3216035   5.440   1.032  10.338  0.0895 -0.4304 -0.3476
  146SAPE   C3216036   5.522   1.104  10.122  0.4228  0.1893 -0.1627
  146SAPE   H2X16037   5.615   1.042  10.125  0.5482  0.3782 -0.1682
  146SAPE   H2Y16038   5.543   1.199  10.069 -2.0630  0.8926  0.0374
  146SAPE   C2316039   5.704   1.513  10.179  0.0483 -0.2160  0.3218
  146SAPE   H3R16040   5.603   1.475  10.152  0.7119 -0.1887 -2.3345
  146SAPE   H3S16041   5.772   1.430  10.151  0.5217  0.3925 -0.3432
  146SAPE   C2416042   5.729   1.643  10.107 -0.0695  0.1416  0.0795
  146SAPE   H4R16043   5.667   1.725  10.150  0.3264  0.3285  0.3048
  146SAPE   H4S16044   5.703   1.632  10.000 -1.2189 -1.1410  0.4797
  146SAPE   C2516045   5.878   1.678  10.112 -0.4528  0.0015 -0.0911
  146SAPE   H5R16046   5.932   1.726  10.195  3.4003 -0.7788 -1.9894
  146SAPE   C2616047   5.962   1.648  10.015  0.1736  0.1505  0.5943
  146SAPE   H6R16048   6.071   1.666  10.020  0.4601 -1.2062 -0.3970
  146SAPE   C2716049   5.934   1.590   9.876  0.4634  0.5449  0.5194
  146SAPE   H7R16050   5.900   1.682   9.823  1.6976  1.2739  0.9532
  146SAPE   H7S16051   5.850   1.518   9.884  1.4731 -0.5291  1.7463
  146SAPE   C2816052   6.052   1.525   9.813  0.0595 -0.6307  0.4872
  146SAPE   H8R16053   6.125   1.487   9.886  1.3472 -1.6932 -1.3159
  146SAPE   C2916054   6.087   1.544   9.683 -0.0836  0.0894 -0.1345
  146SAPE   H9R16055   6.164   1.480   9.637  1.2347  1.8027 -0.3531
  146SAPE  C21016056   6.005   1.627   9.588 -0.2673 -0.3471  0.5474
  146SAPE  H10R16057   5.898   1.632   9.617 -0.2931  0.0739  0.3872
  146SAPE  H10S16058   6.018   1.579   9.489 -1.2132  1.2110 -0.3608
  146SAPE  C21116059   6.043   1.775   9.580  0.3699 -0.4000  0.0446
  146SAPE  H11R16060   6.100   1.815   9.665 -0.9470  1.0094  0.2842
  146SAPE  C21216061   6.006   1.857   9.482  0.2678 -0.4269 -1.0619
  146SAPE  H12R16062   6.041   1.961   9.496 -1.1968  0.2700 -2.3157
  146SAPE  C21316063   5.935   1.826   9.350  0.2351  0.5950 -0.5692
  146SAPE  H13R16064   5.826   1.817   9.372 -0.6562  2.1905 -4.0852
  146SAPE  H13S16065   5.962   1.722   9.321 -1.5227 -1.4204  4.4307
  146SAPE  C21416066   5.978   1.918   9.239  0.3676 -0.6017 -0.2910
  146SAPE  H14R16067   6.054   1.993   9.262 -0.1659  0.7214 -2.6909
  146SAPE  C21516068   5.946   1.896   9.106 -0.6194 -0.0961  0.1335
  146SAPE  H15R16069   5.990   1.961   9.029  1.7178 -1.1658  0.5554
  146SAPE  C21616070   5.849   1.788   9.060 -0.4332  0.5133  0.8478
  146SAPE  H16R16071   5.770   1.766   9.135 -1.0143 -1.3343 -0.2583
  146SAPE  H16S16072   5.905   1.695   9.035 -2.6574 -0.6782  0.1127
  146SAPE  C21716073   5.778   1.830   8.931 -0.8956 -0.3667  0.2504
  146SAPE  H17R16074   5.706   1.913   8.949  0.2768  1.2047 -1.9823
  146SAPE  H17S16075   5.732   1.737   8.893  2.5952 -2.3941  0.7766
  146SAPE  C21816076   5.867   1.883   8.817 -0.5451 -0.2157 -0.1756
  146SAPE  H18R16077   5.950   1.812   8.801  0.0631  0.0006  1.8724
  146SAPE  H18S16078   5.901   1.986   8.841 -0.5667 -0.7820  2.4928
  146SAPE  C21916079   5.788   1.886   8.685  0.3837 -0.0159 -0.0023
  146SAPE  H19R16080   5.701   1.953   8.697 -0.3198 -1.4967  3.6488
  146SAPE  H19S16081   5.737   1.789   8.667  0.5614  0.0127 -0.6957
  146SAPE  C22016082   5.875   1.922   8.571 -0.5050  0.0656 -0.0820
  146SAPE  H20R16083   5.969   1.867   8.547 -0.6278  1.3002 -3.6234
  146SAPE  H20S16084   5.896   2.031   8.572 -1.1505  0.2007 -1.0720
  146SAPE  H20T16085   5.812   1.905   8.481  0.2443  0.3257 -0.6571
  146SAPE   C3316086   5.429   1.019  10.035 -0.3270 -0.0236 -0.4541
  146SAPE   H3X16087   5.323   1.051  10.034  0.1857  1.7177 -0.8366
  146SAPE   H3Y16088   5.434   0.914  10.073 -0.8646  0.5168  1.1530
  146SAPE   C3416089   5.484   1.014   9.893  0.3171  0.6142  1.4842
  146SAPE   H4X16090   5.573   0.947   9.893 -1.8276 -2.4046 -1.4152
  146SAPE   H4Y16091   5.498   1.115   9.850  1.8404 -0.0123  0.4890
  146SAPE   C3516092   5.387   0.933   9.807 -1.2342  0.3306  0.3555
  146SAPE   H5X16093   5.284   0.968   9.832 -2.8673 -2.7250 -1.7629
  146SAPE   H5Y16094   5.374   0.826   9.832 -0.7187  0.5125  1.4392
  146SAPE   C3616095   5.414   0.947   9.657  0.1037 -0.1044  0.0479
  146SAPE   H6X16096   5.523   0.930   9.643 -0.5711 -5.6247  0.2404
  146SAPE   H6Y16097   5.383   1.048   9.623  0.0589 -1.1166 -3.0809
  146SAPE   C3716098   5.335   0.858   9.566  0.1138  0.1071  0.4714
  146SAPE   H7X16099   5.228   0.889   9.566 -0.3060 -1.2450  1.9760
  146SAPE   H7Y16100   5.345   0.756   9.610  0.8929  0.6886  1.6344
  146SAPE   C3816101   5.382   0.844   9.420 -0.9475 -0.3013  0.1376
  146SAPE   H8X16102   5.491   0.823   9.424 -1.1061 -1.4946 -1.3005
  146SAPE   H8Y16103   5.358   0.933   9.358 -1.1863 -0.1899  0.3864
  146SAPE   C3916104   5.323   0.716   9.364  0.5550 -0.6756  0.4201
  146SAPE   H9X16105   5.218   0.730   9.329  0.2805 -1.1489  1.0530
  146SAPE   H9Y16106   5.339   0.631   9.434 -1.0020 -2.1091 -0.9126
  146SAPE  C31016107   5.400   0.681   9.238 -0.1465 -0.3422  0.6439
  146SAPE  H10X16108   5.508   0.679   9.265  0.3792  0.0105 -1.3871
  146SAPE  H10Y16109   5.401   0.747   9.149  1.1572 -0.8662  0.2525
  146SAPE  C31116110   5.365   0.537   9.190  0.3588  0.1681  0.2334
  146SAPE  H11X16111   5.268   0.502   9.232 -0.8753  0.7281 -2.0434
  146SAPE  H11Y16112   5.448   0.476   9.230 -0.2616 -0.4855  0.5305
  146SAPE  C31216113   5.354   0.524   9.033 -0.4555  0.1311 -0.3694
  146SAPE  H12X16114   5.283   0.604   9.001 -0.7668 -0.0360 -0.0950
  146SAPE  H12Y16115   5.313   0.422   9.021 -1.3609  0.4859 -0.3063
  146SAPE  C31316116   5.487   0.545   8.959 -0.0213  0.4661 -1.0170
  146SAPE  H13X16117   5.568   0.482   9.000 -0.2570  0.8256  0.0278
  146SAPE  H13Y16118   5.523   0.650   8.961  0.9388  0.1299 -0.4284
  146SAPE  C31416119   5.469   0.515   8.807 -0.1008 -0.3864 -0.9082
  146SAPE  H14X16120   5.373   0.558   8.773 -0.1335 -0.6450 -1.1502
  146SAPE  H14Y16121   5.457   0.406   8.790  0.6578 -0.7529  0.8199
  146SAPE  C31516122   5.580   0.565   8.717  0.2379 -0.1783  0.3860
  146SAPE  H15X16123   5.677   0.518   8.745  1.5029  0.9609 -1.9248
  146SAPE  H15Y16124   5.588   0.675   8.732 -1.5796 -0.1996  1.6373
  146SAPE  C31616125   5.558   0.535   8.568 -0.2396 -0.2053 -0.3576
  146SAPE  H16X16126   5.448   0.537   8.552 -0.2986  1.1267  0.1765
  146SAPE  H16Y16127   5.595   0.432   8.547  1.7925  0.4287 -0.0181
  146SAPE  C31716128   5.629   0.629   8.470  1.1131 -0.3727  0.3065
  146SAPE  H17X16129   5.557   0.713   8.458  2.9989  1.1040 -0.9638
  146SAPE  H17Y16130   5.649   0.583   8.371  2.2959 -0.1453  0.4259
  146SAPE  C31816131   5.758   0.693   8.516  0.1368 -0.3748 -0.4219
  146SAPE  H18X16132   5.752   0.747   8.613 -0.6962  2.4817 -1.9981
  146SAPE  H18Y16133   5.789   0.776   8.449  0.6301 -0.3815 -0.2061
  146SAPE  H18Z16134   5.844   0.622   8.516  1.0266  0.6609  1.7212
  147SAPE     N16135   3.148   5.824   6.376 -0.3019 -0.0288  0.0920
  147SAPE   HN116136   3.205   5.859   6.297 -1.2084 -2.4624 -1.7024
  147SAPE   HN216137   3.189   5.859   6.465  1.4562 -0.5856 -0.4937
  147SAPE   HN316138   3.147   5.720   6.388 -1.6924  0.1750  1.9937
  147SAPE   C1216139   3.007   5.875   6.355  0.4082  0.1239  0.3303
  147SAPE  H12A16140   2.972   5.841   6.255  1.6273  0.2117 -0.1353
  147SAPE  H12B16141   3.014   5.985   6.367  0.4980 -0.0229  1.7360
  147SAPE   C1116142   2.909   5.805   6.453 -0.5354 -0.7125 -0.2351
  147SAPE  H11A16143   2.949   5.818   6.556 -2.9589 -1.7960  0.8714
  147SAPE  H11B16144   2.901   5.695   6.437 -0.7072 -0.4573 -1.9635
  147SAPE     P16145   2.660   5.836   6.344 -0.1160 -0.2975 -0.5112
  147SAPE   O1316146   2.684   5.875   6.206 -0.3805  0.1628  0.4023
  147SAPE   O1416147   2.634   5.691   6.355 -0.0640  0.3675  0.3655
  147SAPE   O1216148   2.786   5.869   6.433  0.3388  0.2237  0.0506
  147SAPE   O1116149   2.545   5.906   6.406 -0.2417 -0.2898 -0.3704
  147SAPE    C116150   2.540   6.013   6.511  0.0760 -0.4843 -0.0487
  147SAPE    HA16151   2.630   6.076   6.503 -0.0712 -0.1315  0.9581
  147SAPE    HB16152   2.445   6.067   6.493 -0.6020 -1.1005  1.5053
  147SAPE    C216153   2.543   5.958   6.655 -0.2270 -0.4000  0.3619
  147SAPE    HS16154   2.644   5.914   6.663 -0.4679 -0.9993  0.1765
  147SAPE   O2116155   2.451   5.849   6.666  0.1351 -0.2016  0.0336
  147SAPE   C2116156   2.473   5.765   6.772 -0.5393 -0.0088 -0.4907
  147SAPE   O2216157   2.579   5.755   6.831 -0.4816  0.0166 -0.5422
  147SAPE   C2216158   2.343   5.687   6.801  0.4308 -0.8097  0.0786
  147SAPE   H2R16159   2.283   5.768   6.847  0.7509  0.5794 -1.8727
  147SAPE   H2S16160   2.300   5.651   6.705 -0.6125  2.3775 -0.7181
  147SAPE    C316161   2.509   6.063   6.764 -0.3351  0.6892 -0.7771
  147SAPE    HX16162   2.408   6.106   6.745 -0.8980  0.3247  1.2905
  147SAPE    HY16163   2.573   6.153   6.750 -0.8603  0.8674 -2.0851
  147SAPE   O3116164   2.505   6.017   6.897  0.1624  0.6046  0.3639
  147SAPE   C3116165   2.597   6.054   6.979 -0.8458 -0.1845 -0.5817
  147SAPE   O3216166   2.693   6.130   6.954 -0.4839 -0.0243 -0.3428
  147SAPE   C3216167   2.578   5.977   7.106  0.1290 -0.3076  0.6986
  147SAPE   H2X16168   2.639   5.884   7.105  1.9090  0.8271  0.6536
  147SAPE   H2Y16169   2.472   5.946   7.120 -0.0390  1.4927  4.0482
  147SAPE   C2316170   2.370   5.566   6.893 -0.4958 -0.6153 -0.1405
  147SAPE   H3R16171   2.456   5.509   6.850 -0.3461 -0.6926  0.2495
  147SAPE   H3S16172   2.278   5.504   6.897  0.2593 -1.8093 -0.9370
  147SAPE   C2416173   2.392   5.609   7.039 -0.3838 -0.0543  0.0121
  147SAPE   H4R16174   2.327   5.697   7.061  0.1920  0.8158 -1.7078
  147SAPE   H4S16175   2.494   5.651   7.045  0.2834 -1.8205  1.7641
  147SAPE   C2516176   2.384   5.503   7.146 -0.1613  0.0755  0.3758
  147SAPE   H5R16177   2.359   5.404   7.103 -0.4262 -0.3036  1.3781
  147SAPE   C2616178   2.398   5.515   7.277 -0.4016  0.4511 -0.6487
  147SAPE   H6R16179   2.389   5.421   7.334 -3.4788  0.5695 -0.8643
  147SAPE   C2716180   2.428   5.643   7.350  0.4923 -0.3091 -0.1868
  147SAPE   H7R16181   2.469   5.728   7.293 -1.4253  1.1909  0.5863
  147SAPE   H7S16182   2.497   5.627   7.436 -1.5551 -1.2540  1.3338
  147SAPE   C2816183   2.304   5.698   7.415  0.8118 -0.1452 -0.9593
  147SAPE   H8R16184   2.240   5.758   7.349  0.9635  2.2922  0.9940
  147SAPE   C2916185   2.264   5.685   7.543 -0.3380 -0.2633  0.0434
  147SAPE   H9R16186   2.161   5.719   7.563 -0.4943  0.2538 -1.6028
  147SAPE  C21016187   2.334   5.617   7.656 -0.2348  0.3395 -0.3683
  147SAPE  H10R16188   2.369   5.516   7.624  2.5641  1.0375  0.3039
  147SAPE  H10S16189   2.267   5.600   7.743  0.5049  2.4027  0.6440
  147SAPE  C21116190   2.449   5.697   7.720  0.2401 -1.0301  0.6594
  147SAPE  H11R16191   2.489   5.776   7.656  0.8415 -2.1435 -0.3552
  147SAPE  C21216192   2.493   5.676   7.848  0.4406 -0.4409 -0.0556
  147SAPE  H12R16193   2.586   5.721   7.884 -0.2793  1.7701 -0.8535
  147SAPE  C21316194   2.446   5.573   7.946  0.1716  0.2666  0.0700
  147SAPE  H13R16195   2.335   5.577   7.949  0.0946  0.7388 -2.0660
  147SAPE  H13S16196   2.476   5.595   8.050 -0.0573 -0.1375  0.2198
  147SAPE  C21416197   2.477   5.427   7.902 -0.4982  0.7338  0.6272
  147SAPE  H14R16198   2.485   5.421   7.793  1.3302  1.7607  0.6811
  147SAPE  C21516199   2.491   5.314   7.974  0.5385  0.4471  0.1913
  147SAPE  H15R16200   2.519   5.224   7.917 -0.2602  0.7160 -0.6458
  147SAPE  C21616201   2.472   5.293   8.122  0.7076 -0.1290 -0.2178
  147SAPE  H16R16202   2.489   5.391   8.171 -2.9144  1.3119 -1.7122
  147SAPE  H16S16203   2.559   5.236   8.162  0.7603  0.1050  0.0050
  147SAPE  C21716204   2.344   5.209   8.164 -0.2422 -0.5329  0.0503
  147SAPE  H17R16205   2.359   5.106   8.125  0.1542 -0.5673  0.2848
  147SAPE  H17S16206   2.255   5.245   8.108  1.8180  3.0852 -1.0244
  147SAPE  C21816207   2.309   5.201   8.311  0.1612 -0.1353 -0.6555
  147SAPE  H18R16208   2.401   5.196   8.374  0.2153 -0.5106 -0.7617
  147SAPE  H18S16209   2.257   5.106   8.334 -2.1672  1.4390  0.8047
  147SAPE  C21916210   2.232   5.323   8.362  0.0989  0.8860  0.2815
  147SAPE  H19R16211   2.125   5.293   8.355  0.1443 -0.0206  2.6724
  147SAPE  H19S16212   2.262   5.416   8.310 -0.9377  2.0068  1.6336
  147SAPE  C22016213   2.260   5.351   8.514  0.2346  0.0110  0.0110
  147SAPE  H20R16214   2.179   5.424   8.537  0.4109 -0.1073  1.0123
  147SAPE  H20S16215   2.356   5.406   8.530  1.0458 -1.3523 -0.1184
  147SAPE  H20T16216   2.247   5.261   8.577  0.0625  1.0914  1.5430
  147SAPE   C3316217   2.618   6.057   7.229  0.1506 -0.1636  0.8742
  147SAPE   H3X16218   2.575   6.159   7.226  0.9994  0.1596 -0.8629
  147SAPE   H3Y16219   2.728   6.073   7.231  0.5353 -0.9452 -5.1455
  147SAPE   C3416220   2.574   6.003   7.362  0.2453 -0.1287  0.3889
  147SAPE   H4X16221   2.608   5.899   7.381 -1.4926 -1.4704 -3.3658
  147SAPE   H4Y16222   2.463   5.995   7.358  0.1500  1.1475  0.1517
  147SAPE   C3516223   2.613   6.103   7.478  0.8657  0.5244  0.7640
  147SAPE   H5X16224   2.554   6.190   7.443 -1.6627 -1.2741  0.4018
  147SAPE   H5Y16225   2.721   6.127   7.476  0.9447  0.3045  2.0376
  147SAPE   C3616226   2.550   6.065   7.620  0.4382 -0.7150 -0.5793
  147SAPE   H6X16227   2.578   5.960   7.643  3.3263  0.4961  1.7341
  147SAPE   H6Y16228   2.440   6.076   7.625  0.7897  2.1833  2.0174
  147SAPE   C3716229   2.593   6.148   7.746 -0.2628 -0.2059 -0.1126
  147SAPE   H7X16230   2.561   6.254   7.734  1.3443  0.1536 -1.3728
  147SAPE   H7Y16231   2.703   6.160   7.751 -0.1325 -1.2214 -0.4543
  147SAPE   C3816232   2.537   6.090   7.865 -0.1857  0.3115  0.0880
  147SAPE   H8X16233   2.565   5.983   7.858  2.5366  0.8730  1.6106
  147SAPE   H8Y16234   2.427   6.107   7.864 -0.0487  1.1524 -1.9825
  147SAPE   C3916235   2.580   6.144   7.993  0.1111 -0.4902  1.0963
  147SAPE   H9X16236   2.549   6.250   8.001 -4.0904 -1.5586  0.0513
  147SAPE   H9Y16237   2.691   6.143   7.994  0.2433  3.3344 -0.1556
  147SAPE  C31016238   2.542   6.052   8.116  0.2171  0.4633  0.9615
  147SAPE  H10X16239   2.595   6.094   8.204  0.7381  1.9203 -0.0316
  147SAPE  H10Y16240   2.588   5.951   8.106 -2.6385 -0.8956  1.1148
  147SAPE  C31116241   2.392   6.041   8.129  0.6540 -0.6294  0.6017
  147SAPE  H11X16242   2.355   6.005   8.031 -0.1020  0.3469  0.5220
  147SAPE  H11Y16243   2.358   6.147   8.129  0.0593 -0.8068 -1.7545
  147SAPE  C31216244   2.354   5.963   8.253 -0.1534 -0.8790 -0.5612
  147SAPE  H12X16245   2.246   5.982   8.273  0.0357 -1.5044  1.1322
  147SAPE  H12Y16246   2.406   6.016   8.335  1.0909 -1.8037 -0.7347
  147SAPE  C31316247   2.377   5.811   8.252  0.2232  0.3912  0.0500
  147SAPE  H13X16248   2.479   5.780   8.284 -0.3642 -1.7039 -0.0636
  147SAPE  H13Y16249   2.372   5.786   8.144  0.8550  1.3569 -0.2103
  147SAPE  C31416250   2.278   5.728   8.337 -0.3595 -0.3910 -0.6169
  147SAPE  H14X16251   2.306   5.621   8.327  1.1125 -0.1714  0.8082
  147SAPE  H14Y16252   2.173   5.726   8.303 -0.8240 -0.7626  0.8079
  147SAPE  C31516253   2.297   5.751   8.490  0.3354  1.0536 -0.1952
  147SAPE  H15X16254   2.226   5.693   8.553  1.9463 -1.2865 -0.4575
  147SAPE  H15Y16255   2.293   5.858   8.521 -1.8229  0.4154  1.8937
  147SAPE  C31616256   2.436   5.700   8.541  0.0780 -1.0377  0.5229
  147SAPE  H16X16257   2.515   5.774   8.519  0.2827 -1.2327  0.5959
  147SAPE  H16Y16258   2.456   5.602   8.492 -1.5237 -1.1994  0.1754
  147SAPE  C31716259   2.451   5.664   8.693 -0.0823 -0.1382 -0.1481
  147SAPE  H17X16260   2.545   5.605   8.700 -0.4964 -0.5543  2.3421
  147SAPE  H17Y16261   2.368   5.594   8.716  0.3161 -1.2457 -1.9421
  147SAPE  C31816262   2.446   5.783   8.793  0.5228 -0.3025 -0.2066
  147SAPE  H18X16263   2.394   5.755   8.887  1.6946 -2.0030 -0.0353
  147SAPE  H18Y16264   2.396   5.872   8.750 -1.7252 -1.6246 -0.4244
  147SAPE  H18Z16265   2.553   5.800   8.817  0.7535 -2.9126  0.8252
  148SAPE     N16266   1.171   3.940   6.271  1.0821  0.3791 -0.1058
  148SAPE   HN116267   1.259   3.907   6.228 -0.3081  0.8653 -3.4539
  148SAPE   HN216268   1.130   3.993   6.192 -0.5793  0.0122  0.4777
  148SAPE   HN316269   1.192   4.003   6.351  0.7761  0.7053 -0.2815
  148SAPE   C1216270   1.084   3.834   6.332 -0.0025  0.0258 -0.5437
  148SAPE  H12A16271   1.095   3.747   6.263 -0.1596 -0.1516 -0.3461
  148SAPE  H12B16272   0.977   3.866   6.332 -0.1825 -0.5544 -0.0798
  148SAPE   C1116273   1.132   3.788   6.471 -0.0688 -0.0241  0.1288
  148SAPE  H11A16274   1.061   3.712   6.511 -0.6797  1.4055  1.8498
  148SAPE  H11B16275   1.126   3.876   6.538 -0.2568  1.4634 -1.7724
  148SAPE     P16276   1.368   3.761   6.583 -0.0196  0.3787 -0.0384
  148SAPE   O1316277   1.320   3.683   6.698 -0.0639  0.0311 -0.2768
  148SAPE   O1416278   1.505   3.726   6.551  0.4026 -0.6935  0.1126
  148SAPE   O1216279   1.265   3.740   6.463 -0.2191  0.3770 -0.2857
  148SAPE   O1116280   1.348   3.906   6.629 -0.0235 -0.1349 -0.1905
  148SAPE    C116281   1.419   4.015   6.571  0.1616  0.5937  0.2984
  148SAPE    HA16282   1.513   3.981   6.523 -0.8464  3.1217 -3.7682
  148SAPE    HB16283   1.357   4.053   6.486 -1.0418 -2.0919 -0.0693
  148SAPE    C216284   1.479   4.110   6.677 -0.3509  0.2874 -0.3652
  148SAPE    HS16285   1.561   4.171   6.634 -0.0868  1.8718  2.2460
  148SAPE   O2116286   1.511   4.044   6.797 -0.1262  0.1868 -0.1739
  148SAPE   C2116287   1.637   3.986   6.793  0.3953 -0.2915  0.5076
  148SAPE   O2216288   1.712   4.004   6.701  0.5377  0.4839 -0.0728
  148SAPE   C2216289   1.660   3.908   6.925  0.8960 -0.7124  0.2782
  148SAPE   H2R16290   1.626   3.977   7.006 -1.2354 -1.3259 -0.0737
  148SAPE   H2S16291   1.577   3.835   6.923 -1.6092  2.0196  0.5421
  148SAPE    C316292   1.368   4.212   6.727  0.1671 -0.1143 -0.0478
  148SAPE    HX16293   1.282   4.148   6.755 -1.0022  1.4457  0.0125
  148SAPE    HY16294   1.335   4.273   6.640  0.2046 -1.4356 -0.9998
  148SAPE   O3116295   1.404   4.298   6.837  0.0114  0.5345 -0.1311
  148SAPE   C3116296   1.455   4.414   6.827 -0.1009 -0.2724 -0.5635
  148SAPE   O3216297   1.471   4.481   6.725 -0.0818 -0.7587  0.4132
  148SAPE   C3216298   1.508   4.446   6.966 -0.0320  0.3667  0.4014
  148SAPE   H2X16299   1.606   4.394   6.973  0.4600  1.3448  0.7934
  148SAPE   H2Y16300   1.438   4.415   7.047 -0.0853  1.1431  0.6550
  148SAPE   C2316301   1.803   3.841   6.951  0.5742  0.3632  0.5121
  148SAPE   H3R16302   1.881   3.921   6.954 -0.2505  1.2206 -0.3624
  148SAPE   H3S16303   1.823   3.775   6.864 -1.1422  0.0141  0.3636
  148SAPE   C2416304   1.789   3.763   7.084  0.6938 -0.2535  0.5367
  148SAPE   H4R16305   1.890   3.723   7.106  0.0826 -1.5431  1.0650
  148SAPE   H4S16306   1.722   3.676   7.072 -0.3565  0.8455 -1.7811
  148SAPE   C2516307   1.755   3.843   7.208  0.0888 -0.4047 -0.5821
  148SAPE   H5R16308   1.658   3.894   7.206  0.1452 -0.3051 -0.7332
  148SAPE   C2616309   1.814   3.848   7.330 -0.4507 -0.6331  0.1159
  148SAPE   H6R16310   1.771   3.920   7.400  0.0558 -1.4294  1.2543
  148SAPE   C2716311   1.939   3.776   7.375  0.5969 -0.0634 -0.0431
  148SAPE   H7R16312   2.014   3.853   7.405 -0.3243  0.7142  0.2763
  148SAPE   H7S16313   1.988   3.715   7.295  1.6086  1.1224 -0.3518
  148SAPE   C2816314   1.897   3.686   7.489  0.3430  0.3986  0.6073
  148SAPE   H8R16315   1.814   3.620   7.458  0.7085 -0.7236  1.9648
  148SAPE   C2916316   1.921   3.710   7.615 -0.1557 -0.1353  0.0791
  148SAPE   H9R16317   1.894   3.627   7.682  1.7115 -0.4260  0.5108
  148SAPE  C21016318   1.993   3.826   7.681  0.3472  0.9924 -0.0245
  148SAPE  H10R16319   2.040   3.899   7.611 -1.8216  1.7586 -0.7469
  148SAPE  H10S16320   2.081   3.780   7.730  0.8357  0.8012 -1.0516
  148SAPE  C21116321   1.889   3.889   7.772  0.1529 -0.0040  0.2287
  148SAPE  H11R16322   1.806   3.942   7.722  0.2568  0.5665  0.6530
  148SAPE  C21216323   1.884   3.875   7.911  0.4393  0.1403  0.3880
  148SAPE  H12R16324   1.806   3.939   7.954 -0.7032  0.0427 -1.4887
  148SAPE  C21316325   1.977   3.798   8.011  0.6921  0.0580  0.2222
  148SAPE  H13R16326   2.043   3.730   7.954  0.3234 -0.5724  0.5407
  148SAPE  H13S16327   1.914   3.728   8.070 -0.0370  0.3094 -0.2587
  148SAPE  C21416328   2.048   3.898   8.086  1.0857  0.5904 -0.1685
  148SAPE  H14R16329   2.084   3.977   8.019  0.9072 -0.4990 -1.5613
  148SAPE  C21516330   2.075   3.893   8.214 -0.2807  0.4921  0.3710
  148SAPE  H15R16331   2.124   3.977   8.265  1.9646 -0.4199 -0.2000
  148SAPE  C21616332   2.031   3.781   8.309 -0.0197 -0.0624  0.0739
  148SAPE  H16R16333   1.985   3.697   8.252 -0.2309 -0.4045  0.7440
  148SAPE  H16S16334   1.955   3.826   8.376 -0.5726 -0.5596 -0.2063
  148SAPE  C21716335   2.149   3.705   8.378 -0.6084  0.0971 -0.9318
  148SAPE  H17R16336   2.222   3.677   8.299 -0.4156  1.4351 -1.2392
  148SAPE  H17S16337   2.106   3.609   8.413 -0.7134  0.0714 -1.1280
  148SAPE  C21816338   2.210   3.779   8.491 -0.0814  0.2727 -0.8307
  148SAPE  H18R16339   2.142   3.770   8.578  3.2563 -0.4363  1.8047
  148SAPE  H18S16340   2.231   3.887   8.478  2.2081  0.2595  2.2311
  148SAPE  C21916341   2.340   3.718   8.539 -0.0247  0.4627 -0.0094
  148SAPE  H19R16342   2.423   3.737   8.468 -0.6023 -1.7685 -1.3503
  148SAPE  H19S16343   2.326   3.610   8.559  2.3339  0.4031  1.4815
  148SAPE  C22016344   2.378   3.770   8.682  0.5007 -0.9497 -0.1368
  148SAPE  H20R16345   2.305   3.751   8.763  1.2632 -0.5486  0.6543
  148SAPE  H20S16346   2.383   3.881   8.682  0.9409 -0.9689 -0.2706
  148SAPE  H20T16347   2.477   3.728   8.710  0.9935  0.3515  0.0744
  148SAPE   C3316348   1.540   4.599   6.988  0.3439  0.3465 -0.1952
  148SAPE   H3X16349   1.445   4.649   6.963 -0.2682 -0.6607  0.0841
  148SAPE   H3Y16350   1.615   4.629   6.911 -2.1897  2.0011 -2.0657
  148SAPE   C3416351   1.577   4.634   7.132  0.4107 -1.0390  0.1705
  148SAPE   H4X16352   1.618   4.735   7.153  2.5231 -1.1321 -3.0953
  148SAPE   H4Y16353   1.663   4.567   7.154  1.8848  0.1514 -1.7759
  148SAPE   C3516354   1.459   4.616   7.242  0.4138 -0.4882 -0.5953
  148SAPE   H5X16355   1.438   4.508   7.250  0.2400 -0.5128 -1.3226
  148SAPE   H5Y16356   1.366   4.660   7.201  1.0775  1.7549  0.2181
  148SAPE   C3616357   1.489   4.695   7.376  0.2443 -0.2984 -0.1670
  148SAPE   H6X16358   1.387   4.717   7.413 -0.3215 -1.3838 -1.0320
  148SAPE   H6Y16359   1.544   4.790   7.360  1.8778 -1.6908 -3.4974
  148SAPE   C3716360   1.560   4.613   7.492  0.6198  0.7585  0.7808
  148SAPE   H7X16361   1.667   4.607   7.462  0.0725  1.7046 -1.4159
  148SAPE   H7Y16362   1.517   4.510   7.491  0.5195  0.8050  0.4472
  148SAPE   C3816363   1.530   4.665   7.634 -0.2018  0.0609  0.2677
  148SAPE   H8X16364   1.421   4.683   7.643 -0.4600 -0.7234 -1.1774
  148SAPE   H8Y16365   1.583   4.763   7.636 -2.3816  1.2521  0.3802
  148SAPE   C3916366   1.600   4.590   7.744  0.2257  0.1680  0.2895
  148SAPE   H9X16367   1.710   4.605   7.736  0.4297 -1.0083  0.6915
  148SAPE   H9Y16368   1.588   4.479   7.743 -2.3246  0.4276 -0.8920
  148SAPE  C31016369   1.563   4.636   7.886  0.2922 -0.6668  0.6352
  148SAPE  H10X16370   1.459   4.606   7.910  1.3102 -2.4533  2.9808
  148SAPE  H10Y16371   1.584   4.745   7.901 -0.3190 -0.5722  0.8077
  148SAPE  C31116372   1.641   4.555   7.995  0.0876 -0.6361 -0.0568
  148SAPE  H11X16373   1.744   4.565   7.956  1.5954 -1.1404  3.5358
  148SAPE  H11Y16374   1.618   4.448   8.012 -0.2303 -0.6934 -0.8284
  148SAPE  C31216375   1.640   4.609   8.138  0.3853  0.2547 -0.5037
  148SAPE  H12X16376   1.542   4.635   8.184 -0.6911  0.1461 -2.6739
  148SAPE  H12Y16377   1.679   4.713   8.137  2.6090 -0.4450  3.9190
  148SAPE  C31316378   1.716   4.526   8.239 -0.2598  0.0183  0.3244
  148SAPE  H13X16379   1.813   4.486   8.204 -1.7111 -2.0783 -1.4407
  148SAPE  H13Y16380   1.649   4.440   8.262  1.4980 -1.1715  1.0634
  148SAPE  C31416381   1.747   4.612   8.366  0.1296  0.4279  0.1082
  148SAPE  H14X16382   1.651   4.647   8.410  0.9284  0.9060  1.5035
  148SAPE  H14Y16383   1.805   4.698   8.325 -1.0482  2.0999  1.8963
  148SAPE  C31516384   1.820   4.530   8.467 -0.2290 -1.1766  0.0585
  148SAPE  H15X16385   1.924   4.514   8.430  0.0436 -0.2724  0.4221
  148SAPE  H15Y16386   1.780   4.426   8.474  0.6303 -1.6808 -2.3577
  148SAPE  C31616387   1.835   4.615   8.597  0.2400 -0.0472 -0.4846
  148SAPE  H16X16388   1.740   4.659   8.634 -0.4233  0.8247 -3.1297
  148SAPE  H16Y16389   1.899   4.700   8.567  2.5282 -1.0399  1.3671
  148SAPE  C31716390   1.927   4.546   8.697  0.2327 -0.6058 -0.7021
  148SAPE  H17X16391   2.018   4.523   8.638  0.2667 -1.1145 -0.4509
  148SAPE  H17Y16392   1.891   4.443   8.716  0.5779 -0.7208 -0.6751
  148SAPE  C31816393   1.957   4.621   8.827  0.2691  0.0487  0.3916
  148SAPE  H18X16394   1.864   4.648   8.881 -1.2693 -1.5391 -1.3575
  148SAPE  H18Y16395   1.996   4.719   8.792 -1.1733  0.4932 -0.0324
  148SAPE  H18Z16396   2.032   4.565   8.886 -0.6354 -1.8808 -0.2410
  149SAPE     N16397   1.406   4.580   6.484  0.5464 -0.0597 -0.0596
  149SAPE   HN116398   1.431   4.545   6.578 -3.0131 -0.8576  0.6918
  149SAPE   HN216399   1.425   4.502   6.418  2.5489  0.7192 -0.4142
  149SAPE   HN316400   1.467   4.659   6.455  0.7967 -0.7419 -1.4493
  149SAPE   C1216401   1.273   4.649   6.469 -0.5234  0.5680 -0.4375
  149SAPE  H12A16402   1.268   4.681   6.362  0.1876  0.7118 -0.4243
  149SAPE  H12B16403   1.273   4.749   6.517 -1.7637  0.3645  0.0228
  149SAPE   C1116404   1.154   4.550   6.509 -0.2360  0.2691 -0.3762
  149SAPE  H11A16405   1.058   4.604   6.496 -0.8357 -0.8367 -0.6322
  149SAPE  H11B16406   1.166   4.515   6.614 -3.3579 -2.2195 -0.7845
  149SAPE     P16407   1.088   4.295   6.450  0.2875  0.2994  0.4903
  149SAPE   O1316408   0.953   4.291   6.400  0.0651  0.2013  0.2027
  149SAPE   O1416409   1.179   4.179   6.417  0.5615  0.0587 -0.0818
  149SAPE   O1216410   1.161   4.436   6.413  0.0819 -0.3428  0.4085
  149SAPE   O1116411   1.091   4.305   6.609 -0.4566  0.2323 -0.5884
  149SAPE    C116412   0.958   4.333   6.673  0.6741  0.0875 -0.3906
  149SAPE    HA16413   0.890   4.400   6.617  0.4065  0.2066  0.0777
  149SAPE    HB16414   0.907   4.235   6.683  1.7820 -0.5161 -0.5200
  149SAPE    C216415   0.965   4.396   6.809  0.0052 -0.5972 -0.2744
  149SAPE    HS16416   0.869   4.397   6.864  1.0428 -1.1980  1.6258
  149SAPE   O2116417   1.020   4.528   6.816  0.5506 -0.4612 -0.2496
  149SAPE   C2116418   0.939   4.626   6.767 -0.6595 -0.2625 -0.1726
  149SAPE   O2216419   0.830   4.609   6.719 -0.1682  0.7835 -0.8061
  149SAPE   C2216420   1.003   4.763   6.790  0.1250 -0.3291  0.8729
  149SAPE   H2R16421   1.002   4.814   6.691  1.2041 -1.0209  0.4922
  149SAPE   H2S16422   0.940   4.831   6.852 -0.2803  0.0819  0.0248
  149SAPE    C316423   1.062   4.306   6.893 -0.3655 -0.8227  0.6258
  149SAPE    HX16424   1.170   4.326   6.880 -0.3113 -0.0565  2.0829
  149SAPE    HY16425   1.039   4.201   6.867 -0.2552 -0.9453  1.0106
  149SAPE   O3116426   1.026   4.302   7.032 -0.1947 -0.3085 -0.2249
  149SAPE   C3116427   1.110   4.369   7.110  0.5680  0.3015 -0.9431
  149SAPE   O3216428   1.203   4.442   7.071  0.6887 -0.3645  0.2437
  149SAPE   C3216429   1.071   4.341   7.256 -0.0993  0.1393  0.3833
  149SAPE   H2X16430   1.096   4.234   7.273 -1.5294  0.0071  1.7614
  149SAPE   H2Y16431   0.960   4.345   7.260 -0.4587 -3.1041 -3.6303
  149SAPE   C2316432   1.154   4.765   6.833 -0.7241  0.3491 -0.3855
  149SAPE   H3R16433   1.219   4.715   6.757  0.7669  0.7918  0.5690
  149SAPE   H3S16434   1.168   4.703   6.924  1.6902  1.8202  0.3080
  149SAPE   C2416435   1.196   4.910   6.874 -0.2122 -0.3361 -0.6126
  149SAPE   H4R16436   1.107   4.958   6.921  1.3007 -0.1651  2.1866
  149SAPE   H4S16437   1.225   4.962   6.780  2.8583 -3.1091 -1.2730
  149SAPE   C2516438   1.310   4.925   6.970 -0.6254  0.5667  0.2830
  149SAPE   H5R16439   1.402   4.908   6.912 -1.3394 -1.4851 -0.2726
  149SAPE   C2616440   1.308   4.944   7.106  0.8061 -0.0761  0.1672
  149SAPE   H6R16441   1.401   4.955   7.163 -0.8623  2.2973  2.5617
  149SAPE   C2716442   1.182   4.958   7.189  0.3074  0.3391 -0.8645
  149SAPE   H7R16443   1.189   4.875   7.263  1.1353  0.2164 -1.0704
  149SAPE   H7S16444   1.088   4.948   7.132 -0.0684  0.2895 -0.2327
  149SAPE   C2816445   1.170   5.096   7.256  0.5520 -0.7020  0.1955
  149SAPE   H8R16446   1.198   5.187   7.201  2.2319 -1.3782 -0.1011
  149SAPE   C2916447   1.158   5.133   7.383  0.5440 -0.0647 -0.1289
  149SAPE   H9R16448   1.126   5.237   7.398 -1.4778 -0.6792  0.0649
  149SAPE  C21016449   1.146   5.031   7.498  0.1222  0.4505  0.3696
  149SAPE  H10R16450   1.220   4.948   7.494 -1.3465 -0.9268  0.8658
  149SAPE  H10S16451   1.046   4.985   7.484  1.1214 -1.7679  0.3559
  149SAPE  C21116452   1.145   5.099   7.632 -0.0940 -0.3287  0.1125
  149SAPE  H11R16453   1.100   5.199   7.629  1.2471  0.3261  1.4005
  149SAPE  C21216454   1.165   5.036   7.747 -0.7571  0.0849 -0.0261
  149SAPE  H12R16455   1.140   5.094   7.837 -0.1054  0.0959  0.1459
  149SAPE  C21316456   1.197   4.891   7.772  0.1614 -0.4901  0.3950
  149SAPE  H13R16457   1.212   4.837   7.677 -0.3664 -1.9596  1.1374
  149SAPE  H13S16458   1.109   4.833   7.808  0.3070 -0.6874  0.4320
  149SAPE  C21416459   1.317   4.876   7.859 -0.2345 -0.4093 -0.0876
  149SAPE  H14R16460   1.408   4.897   7.801 -2.4567  0.7272 -3.2969
  149SAPE  C21516461   1.317   4.840   7.986 -0.4344  0.7189 -0.1133
  149SAPE  H15R16462   1.413   4.828   8.038 -0.6094  2.7225  0.7273
  149SAPE  C21616463   1.196   4.818   8.070 -0.7858 -0.0493  0.8008
  149SAPE  H16R16464   1.136   4.732   8.036 -0.2528 -0.6208  1.2944
  149SAPE  H16S16465   1.124   4.902   8.056 -2.6125 -2.0320 -2.0758
  149SAPE  C21716466   1.233   4.810   8.216  0.0063 -0.2727  0.3773
  149SAPE  H17R16467   1.310   4.730   8.220 -0.8874 -1.2026 -0.5744
  149SAPE  H17S16468   1.153   4.772   8.282  0.3559  0.6124  1.3147
  149SAPE  C21816469   1.280   4.948   8.277  0.1952  0.7907  0.3778
  149SAPE  H18R16470   1.353   5.007   8.216  0.2004  1.4158  0.9799
  149SAPE  H18S16471   1.347   4.919   8.360  1.7715 -0.2218 -1.2045
  149SAPE  C21916472   1.165   5.037   8.311 -0.0800 -0.1435 -0.0011
  149SAPE  H19R16473   1.095   4.982   8.378  2.9064 -0.8308  2.6914
  149SAPE  H19S16474   1.107   5.065   8.221 -2.4123 -3.2836  0.4236
  149SAPE  C22016475   1.214   5.159   8.388  0.2683 -0.5070 -0.4087
  149SAPE  H20R16476   1.240   5.142   8.495  1.2206 -0.2553 -0.5890
  149SAPE  H20S16477   1.139   5.239   8.375  0.5500  0.0592  1.2207
  149SAPE  H20T16478   1.309   5.195   8.342 -0.0645 -0.8587 -1.3789
  149SAPE   C3316479   1.141   4.439   7.353 -0.4435  0.6763  0.5716
  149SAPE   H3X16480   1.128   4.546   7.326  0.3218  0.4649 -0.6749
  149SAPE   H3Y16481   1.251   4.428   7.340 -0.5001 -1.3983  1.6810
  149SAPE   C3416482   1.122   4.420   7.502  0.2017  0.2484  0.4670
  149SAPE   H4X16483   1.127   4.311   7.521  0.9292  0.1991  0.0113
  149SAPE   H4Y16484   1.033   4.469   7.547  0.3883  1.7884 -0.7617
  149SAPE   C3516485   1.235   4.490   7.577  0.0775 -0.2586  1.2472
  149SAPE   H5X16486   1.217   4.599   7.578 -1.5202 -0.5203  2.5935
  149SAPE   H5Y16487   1.323   4.465   7.513 -1.0639  0.7052 -0.7391
  149SAPE   C3616488   1.242   4.426   7.718  0.5294 -0.1904  0.1940
  149SAPE   H6X16489   1.338   4.448   7.769  0.4197  1.4360 -0.2850
  149SAPE   H6Y16490   1.245   4.316   7.703 -0.3801 -0.2373  0.3434
  149SAPE   C3716491   1.132   4.476   7.816 -0.5339 -0.2225  0.5933
  149SAPE   H7X16492   1.042   4.415   7.790 -0.7819 -0.3307  1.7146
  149SAPE   H7Y16493   1.101   4.578   7.784  0.2832 -0.1894 -0.1281
  149SAPE   C3816494   1.177   4.471   7.958  0.7371 -0.1698  0.4057
  149SAPE   H8X16495   1.098   4.522   8.017  0.3115  2.2656 -2.1580
  149SAPE   H8Y16496   1.275   4.517   7.982  0.6049 -0.1146  0.8346
  149SAPE   C3916497   1.185   4.323   8.005  0.2167  0.7913  0.3299
  149SAPE   H9X16498   1.266   4.266   7.953 -0.6958  0.1615 -0.4137
  149SAPE   H9Y16499   1.098   4.270   7.961 -1.8521  1.5993  3.2801
  149SAPE  C31016500   1.191   4.296   8.163  0.2203 -0.0676  0.2740
  149SAPE  H10X16501   1.185   4.186   8.178 -0.1552  0.0095  0.6818
  149SAPE  H10Y16502   1.095   4.337   8.202  0.0731  0.1433 -0.3026
  149SAPE  C31116503   1.309   4.361   8.234 -0.1606  0.1636 -0.1398
  149SAPE  H11X16504   1.294   4.471   8.232 -0.7297  0.0799 -0.5198
  149SAPE  H11Y16505   1.395   4.342   8.166 -0.2318 -1.0715  0.0903
  149SAPE  C31216506   1.311   4.325   8.387 -0.8954 -0.0772  0.1681
  149SAPE  H12X16507   1.352   4.223   8.401 -1.6747 -0.3110  0.7938
  149SAPE  H12Y16508   1.206   4.328   8.423 -1.5345  0.7285 -1.7369
  149SAPE  C31316509   1.390   4.427   8.465  0.4255  0.6056  0.5915
  149SAPE  H13X16510   1.318   4.511   8.473 -0.4342  0.0629 -1.1886
  149SAPE  H13Y16511   1.479   4.463   8.409 -0.4160 -0.8067 -1.7396
  149SAPE  C31416512   1.442   4.395   8.599  0.3452 -0.3308 -0.5890
  149SAPE  H14X16513   1.453   4.491   8.653 -1.2690 -1.0559  1.0862
  149SAPE  H14Y16514   1.542   4.348   8.591  0.6768  0.7774 -3.5056
  149SAPE  C31516515   1.352   4.318   8.691 -0.1718 -0.4132 -0.3191
  149SAPE  H15X16516   1.306   4.232   8.637  0.6325 -0.6211 -0.6760
  149SAPE  H15Y16517   1.272   4.379   8.738  0.8402 -0.4343  1.4742
  149SAPE  C31616518   1.426   4.259   8.812  0.0470  0.7034  0.2426
  149SAPE  H16X16519   1.450   4.351   8.870  2.3790 -0.8016  1.7590
  149SAPE  H16Y16520   1.526   4.225   8.779  0.3419  2.0346 -0.2623
  149SAPE  C31716521   1.343   4.158   8.885 -0.0393 -0.3061 -0.2651
  149SAPE  H17X16522   1.246   4.205   8.912  0.2178 -0.1689  0.4311
  149SAPE  H17Y16523   1.392   4.147   8.984  0.5522 -0.2974 -0.5566
  149SAPE  C31816524   1.334   4.021   8.819  0.9921 -0.1925 -0.2630
  149SAPE  H18X16525   1.436   3.976   8.814  1.0551 -0.1932  0.8983
  149SAPE  H18Y16526   1.295   4.034   8.716  0.6185  1.5551  0.0944
  149SAPE  H18Z16527   1.279   3.946   8.880  2.0437 -1.3802 -0.7359
  150SAPE     N16528   0.315   6.566   6.317  0.2338  0.3596  0.6178
  150SAPE   HN116529   0.396   6.588   6.255  1.5940 -4.7590  0.3795
  150SAPE   HN216530   0.258   6.488   6.279  2.4977 -0.1288 -1.9937
  150SAPE   HN316531   0.246   6.640   6.341 -0.6033 -0.4663  0.8073
  150SAPE   C1216532   0.365   6.519   6.447 -0.0250  0.6346 -0.4472
  150SAPE  H12A16533   0.274   6.520   6.510 -1.5388  0.6190 -2.6097
  150SAPE  H12B16534   0.427   6.595   6.499 -0.1679  1.2533 -1.1778
  150SAPE   C1116535   0.438   6.381   6.443 -0.3983 -0.3141 -0.6112
  150SAPE  H11A16536   0.495   6.359   6.535 -3.0130  5.1996  2.5837
  150SAPE  H11B16537   0.514   6.386   6.363 -1.5373 -0.4022 -1.7257
  150SAPE     P16538   0.371   6.126   6.431 -0.3752 -0.0782 -0.0035
  150SAPE   O1316539   0.243   6.054   6.427 -0.3512  0.4564 -0.1314
  150SAPE   O1416540   0.472   6.081   6.330 -0.0909  0.3978 -0.9038
  150SAPE   O1216541   0.340   6.279   6.412  0.2995  0.2372  0.3803
  150SAPE   O1116542   0.434   6.123   6.577 -0.4931 -0.0122  0.5735
  150SAPE    C116543   0.365   6.180   6.687  0.1203 -0.4793 -0.1217
  150SAPE    HA16544   0.352   6.291   6.685  0.0773 -0.4604  1.1138
  150SAPE    HB16545   0.261   6.141   6.695  0.0298 -0.5183 -1.2842
  150SAPE    C216546   0.442   6.157   6.823 -0.3496 -0.1387 -0.1270
  150SAPE    HS16547   0.391   6.216   6.902 -2.1220 -0.7061 -0.8282
  150SAPE   O2116548   0.578   6.194   6.804 -0.0735  0.4189  0.1679
  150SAPE   C2116549   0.608   6.320   6.817 -0.2804  0.1952  0.1455
  150SAPE   O2216550   0.529   6.411   6.841  0.0634  0.2517 -0.0100
  150SAPE   C2216551   0.765   6.336   6.812 -0.1052 -0.2476  0.7684
  150SAPE   H2R16552   0.828   6.253   6.850 -0.9471 -0.1547  2.4158
  150SAPE   H2S16553   0.789   6.355   6.705 -0.9362  1.1558  0.8237
  150SAPE    C316554   0.446   6.009   6.872 -0.3840 -0.1648 -0.5942
  150SAPE    HX16555   0.481   5.939   6.793 -0.9077 -0.1753 -0.8169
  150SAPE    HY16556   0.339   5.981   6.883 -0.5689  0.7871  0.0397
  150SAPE   O3116557   0.503   5.998   7.004 -0.0582  0.7216 -0.4126
  150SAPE   C3116558   0.630   5.962   7.012 -0.0593 -0.1901  0.2144
  150SAPE   O3216559   0.708   5.940   6.914  0.5149  0.1773  0.6240
  150SAPE   C3216560   0.679   5.948   7.156  0.3028  0.3459  0.9458
  150SAPE   H2X16561   0.722   6.043   7.194 -0.4881  0.8050  0.6849
  150SAPE   H2Y16562   0.763   5.874   7.155  2.3048  2.5564 -1.6757
  150SAPE   C2316563   0.810   6.467   6.879  0.7058  0.6496 -0.0024
  150SAPE   H3R16564   0.770   6.562   6.836 -1.2661  1.0339  2.5493
  150SAPE   H3S16565   0.919   6.471   6.856  0.8713 -0.1747  0.6330
  150SAPE   C2416566   0.789   6.492   7.025 -0.9738 -0.0351  0.1719
  150SAPE   H4R16567   0.679   6.506   7.038 -0.8095  0.2301  1.3017
  150SAPE   H4S16568   0.832   6.593   7.038  0.1492 -0.3801 -0.8132
  150SAPE   C2516569   0.851   6.377   7.100  0.2845 -0.1856  0.3734
  150SAPE   H5R16570   0.949   6.352   7.058 -0.2258  0.2506 -1.0997
  150SAPE   C2616571   0.806   6.302   7.208 -0.4190 -0.0977 -0.1430
  150SAPE   H6R16572   0.869   6.232   7.266 -1.8110  0.6750  2.4096
  150SAPE   C2716573   0.670   6.325   7.264  0.2065  0.0336 -0.0086
  150SAPE   H7R16574   0.630   6.228   7.299 -0.2005  0.0261 -0.4829
  150SAPE   H7S16575   0.600   6.343   7.180  2.0301  0.5052 -1.4872
  150SAPE   C2816576   0.644   6.428   7.374 -0.0845 -0.2346 -0.1685
  150SAPE   H8R16577   0.642   6.529   7.330  0.7058 -0.6057 -1.0965
  150SAPE   C2916578   0.609   6.400   7.505  0.6017 -0.5741 -0.8037
  150SAPE   H9R16579   0.601   6.478   7.582  0.4480 -1.0108 -0.3726
  150SAPE  C21016580   0.601   6.263   7.572 -0.8868  0.6028 -0.4106
  150SAPE  H10R16581   0.581   6.186   7.495  0.8082 -1.1374  0.8274
  150SAPE  H10S16582   0.519   6.241   7.643 -0.7234 -3.1951 -1.2797
  150SAPE  C21116583   0.732   6.222   7.640 -0.0683 -0.2889  0.2764
  150SAPE  H11R16584   0.810   6.184   7.572  0.0036  0.6285 -0.1546
  150SAPE  C21216585   0.741   6.214   7.774  0.6295 -0.6808  0.1761
  150SAPE  H12R16586   0.840   6.190   7.816 -0.3531 -1.1675  2.2846
  150SAPE  C21316587   0.637   6.238   7.877  0.3084  0.3418  0.3526
  150SAPE  H13R16588   0.543   6.276   7.833  1.5322  1.3709 -1.4402
  150SAPE  H13S16589   0.670   6.320   7.944  2.0587 -0.3556  0.3694
  150SAPE  C21416590   0.609   6.113   7.964  0.9072 -0.0570  0.2883
  150SAPE  H14R16591   0.508   6.072   7.949  0.8476 -0.2509  1.1983
  150SAPE  C21516592   0.690   6.068   8.063 -0.5111 -0.1318 -0.1606
  150SAPE  H15R16593   0.660   5.982   8.125 -0.1231  0.5175  0.9404
  150SAPE  C21616594   0.815   6.142   8.107  0.7448 -0.9199 -0.2144
  150SAPE  H16R16595   0.801   6.252   8.108  2.0602 -0.7575  1.9929
  150SAPE  H16S16596   0.887   6.118   8.026  1.2800 -3.3801  0.9422
  150SAPE  C21716597   0.875   6.089   8.237 -0.2824  0.5470  0.0726
  150SAPE  H17R16598   0.874   5.979   8.223 -0.0726  0.6452 -0.7873
  150SAPE  H17S16599   0.802   6.111   8.317 -2.1664 -1.0971 -1.1399
  150SAPE  C21816600   1.020   6.134   8.259  0.1360  0.6225  0.2578
  150SAPE  H18R16601   1.026   6.132   8.370  0.1077 -1.1690  0.2307
  150SAPE  H18S16602   1.025   6.239   8.222  0.8124 -0.0079 -1.4986
  150SAPE  C21916603   1.128   6.044   8.186 -0.4153  0.5390  1.0327
  150SAPE  H19R16604   1.226   6.092   8.205  0.2464 -0.3292 -0.1122
  150SAPE  H19S16605   1.107   6.038   8.077  1.8002  1.6338  0.5112
  150SAPE  C22016606   1.141   5.898   8.247  0.7169  0.2209  0.7046
  150SAPE  H20R16607   1.224   5.849   8.191  0.2602  0.0598  0.1541
  150SAPE  H20S16608   1.044   5.843   8.239  0.7629  0.3446 -0.8438
  150SAPE  H20T16609   1.165   5.908   8.355 -1.6997  0.7176  1.2444
  150SAPE   C3316610   0.578   5.900   7.260  0.4366  0.6063  0.4175
  150SAPE   H3X16611   0.544   5.799   7.230 -3.6856  1.4639  1.9004
  150SAPE   H3Y16612   0.493   5.972   7.263 -0.2978 -0.2203 -0.2712
  150SAPE   C3416613   0.635   5.885   7.402 -0.2846  0.1274  0.1086
  150SAPE   H4X16614   0.679   5.979   7.442 -1.1686  0.7136 -0.2865
  150SAPE   H4Y16615   0.698   5.793   7.404 -1.9668 -1.0496 -0.3789
  150SAPE   C3516616   0.535   5.848   7.513 -0.7544 -1.2830 -0.3685
  150SAPE   H5X16617   0.465   5.773   7.471 -3.4886  2.0563 -2.0457
  150SAPE   H5Y16618   0.467   5.931   7.546 -3.2053 -2.6816 -1.7694
  150SAPE   C3616619   0.595   5.806   7.643  0.1827  0.0492 -0.1031
  150SAPE   H6X16620   0.644   5.896   7.687 -0.4094  0.1865  0.2878
  150SAPE   H6Y16621   0.682   5.739   7.628  1.4986  1.2985  1.6613
  150SAPE   C3716622   0.489   5.747   7.737 -0.1172 -0.4166 -0.4938
  150SAPE   H7X16623   0.440   5.659   7.689 -2.4870  0.6144 -0.0744
  150SAPE   H7Y16624   0.406   5.822   7.732 -0.7399 -1.0568  0.1775
  150SAPE   C3816625   0.534   5.737   7.890 -0.2076  0.2167  0.3679
  150SAPE   H8X16626   0.564   5.841   7.917  0.1122  0.5631 -1.2102
  150SAPE   H8Y16627   0.623   5.671   7.898 -0.0256  0.5925  1.5351
  150SAPE   C3916628   0.419   5.690   7.984  0.0782 -0.7024 -0.5046
  150SAPE   H9X16629   0.374   5.594   7.951 -2.4084  1.0561 -2.4056
  150SAPE   H9Y16630   0.332   5.759   7.981 -0.2340 -1.1290 -1.7778
  150SAPE  C31016631   0.465   5.690   8.139 -0.2377 -0.2889  0.1682
  150SAPE  H10X16632   0.494   5.797   8.155  2.0452 -1.0452  1.3090
  150SAPE  H10Y16633   0.544   5.616   8.164  0.3010  0.4023  0.5548
  150SAPE  C31116634   0.349   5.659   8.233  0.3194  0.3058  0.2232
  150SAPE  H11X16635   0.302   5.563   8.203  2.7509 -1.6786  2.5757
  150SAPE  H11Y16636   0.276   5.739   8.212  1.9506  1.2013 -2.3311
  150SAPE  C31216637   0.381   5.659   8.386 -0.2696  0.1040 -0.0119
  150SAPE  H12X16638   0.295   5.706   8.440  1.9576  1.7917  2.1481
  150SAPE  H12Y16639   0.475   5.713   8.410  0.7390 -1.8669  0.4893
  150SAPE  C31316640   0.399   5.516   8.449  0.2740  0.2126 -0.6198
  150SAPE  H13X16641   0.495   5.479   8.408  0.6633  1.4084 -0.8278
  150SAPE  H13Y16642   0.321   5.448   8.410  1.5535 -1.7269  0.1457
  150SAPE  C31416643   0.393   5.525   8.605 -0.2101  0.2865 -0.2825
  150SAPE  H14X16644   0.334   5.617   8.622  0.0632  0.3976  0.0743
  150SAPE  H14Y16645   0.494   5.557   8.640 -0.5632  2.6001 -1.2848
  150SAPE  C31516646   0.341   5.401   8.677 -0.5377  0.3990 -0.3159
  150SAPE  H15X16647   0.234   5.417   8.703 -0.3713  0.9559  0.0328
  150SAPE  H15Y16648   0.386   5.381   8.776  2.1451 -1.8369 -1.9169
  150SAPE  C31616649   0.363   5.262   8.615  0.7950 -0.0167  0.7509
  150SAPE  H16X16650   0.468   5.249   8.582  0.3557  0.6562 -0.9745
  150SAPE  H16Y16651   0.301   5.265   8.523  0.6894  0.5673  0.8399
  150SAPE  C31716652   0.316   5.155   8.713  0.2629  0.3724 -0.3438
  150SAPE  H17X16653   0.219   5.181   8.759  0.1078 -1.4119  0.3692
  150SAPE  H17Y16654   0.379   5.145   8.805 -1.6071  4.6408  1.5690
  150SAPE  C31816655   0.293   5.018   8.646  0.0781  0.2678 -0.4253
  150SAPE  H18X16656   0.249   4.954   8.725  2.1359 -0.1641  0.3966
  150SAPE  H18Y16657   0.388   4.966   8.624 -0.5888 -0.5845 -1.3075
  150SAPE  H18Z16658   0.220   5.019   8.562 -0.0032  0.5460 -0.3522
  151SAPE     N16659   2.775   3.234   6.513 -0.2264 -0.2287 -0.7848
  151SAPE   HN116660   2.778   3.323   6.567  1.8982 -0.7018 -0.0844
  151SAPE   HN216661   2.680   3.207   6.481 -0.7073  1.5901 -0.9388
  151SAPE   HN316662   2.813   3.157   6.571  1.1868  0.5817 -0.6027
  151SAPE   C1216663   2.868   3.249   6.395  0.0019  0.3691 -0.0387
  151SAPE  H12A16664   2.880   3.148   6.350  4.0441  0.7716 -0.1283
  151SAPE  H12B16665   2.965   3.281   6.440 -0.4837  0.8826  0.6511
  151SAPE   C1116666   2.804   3.361   6.302 -0.0227  0.2799 -0.3742
  151SAPE  H11A16667   2.710   3.329   6.252 -0.3494 -0.9174  0.9879
  151SAPE  H11B16668   2.883   3.388   6.228 -0.0620  1.3364 -0.0494
  151SAPE     P16669   2.734   3.603   6.291  0.1989 -0.0130 -0.3630
  151SAPE   O1316670   2.852   3.626   6.204 -0.4753 -0.5185 -0.3394
  151SAPE   O1416671   2.596   3.584   6.239 -0.1552 -0.5374 -0.0329
  151SAPE   O1216672   2.777   3.481   6.382 -0.6028  0.4482  0.3353
  151SAPE   O1116673   2.731   3.718   6.399  0.3494 -0.1503  0.3132
  151SAPE    C116674   2.831   3.713   6.501  0.5353 -0.4079  0.0827
  151SAPE    HA16675   2.818   3.629   6.572 -0.0176 -0.7742 -0.4477
  151SAPE    HB16676   2.933   3.704   6.458  0.8182 -3.3989  1.2470
  151SAPE    C216677   2.833   3.841   6.588 -0.4517 -0.5734 -0.1063
  151SAPE    HS16678   2.936   3.857   6.626 -0.2217 -1.2472 -0.4358
  151SAPE   O2116679   2.749   3.831   6.707  0.0444 -0.0403  0.5180
  151SAPE   C2116680   2.792   3.751   6.795 -0.2311 -0.2389  0.1371
  151SAPE   O2216681   2.892   3.687   6.800  0.0225  0.1173 -0.2400
  151SAPE   C2216682   2.684   3.744   6.908 -0.0913 -0.2382  0.4996
  151SAPE   H2R16683   2.698   3.847   6.947 -1.8475  0.6183 -1.0383
  151SAPE   H2S16684   2.586   3.739   6.857 -0.5108  1.5473  1.0945
  151SAPE    C316685   2.792   3.968   6.510  0.6847  0.3727  0.3524
  151SAPE    HX16686   2.695   3.953   6.458  0.9067 -1.3608  0.4156
  151SAPE    HY16687   2.868   3.975   6.429 -0.2339 -0.4630 -0.6117
  151SAPE   O3116688   2.798   4.090   6.597  0.3047  0.2747 -0.0154
  151SAPE   C3116689   2.681   4.114   6.656  0.0794 -0.2060 -0.0890
  151SAPE   O3216690   2.573   4.056   6.633 -0.5340  0.2278  0.0996
  151SAPE   C3216691   2.704   4.208   6.771  0.2625 -0.7856  0.0743
  151SAPE   H2X16692   2.612   4.270   6.763  1.6735  1.3104 -0.2487
  151SAPE   H2Y16693   2.790   4.276   6.752 -1.3139  0.4970 -2.6812
  151SAPE   C2316694   2.703   3.623   7.001 -0.0478 -0.1643  0.1170
  151SAPE   H3R16695   2.789   3.639   7.070  0.0379  3.5641 -0.7366
  151SAPE   H3S16696   2.735   3.531   6.948 -0.3239  1.2163 -2.5125
  151SAPE   C2416697   2.576   3.597   7.092  0.8018 -0.3947  0.0163
  151SAPE   H4R16698   2.607   3.510   7.155  2.2412 -0.3105 -0.5630
  151SAPE   H4S16699   2.487   3.565   7.033 -1.6099  0.2187  3.1695
  151SAPE   C2516700   2.538   3.713   7.179  0.0984  0.0298 -0.5541
  151SAPE   H5R16701   2.522   3.801   7.116 -1.3333  1.0745  1.2263
  151SAPE   C2616702   2.534   3.709   7.316 -0.7241  0.4897  0.6746
  151SAPE   H6R16703   2.500   3.798   7.371 -2.2449  1.9038 -2.4610
  151SAPE   C2716704   2.579   3.593   7.398 -0.0752 -0.1035 -0.8155
  151SAPE   H7R16705   2.588   3.493   7.352  0.6747 -0.5871  0.3862
  151SAPE   H7S16706   2.502   3.572   7.476  0.1120 -0.0467 -0.6152
  151SAPE   C2816707   2.708   3.625   7.469 -0.4035  0.3355  0.0583
  151SAPE   H8R16708   2.789   3.676   7.413  2.5752 -1.0596  2.9120
  151SAPE   C2916709   2.735   3.613   7.603 -0.7265  0.2792  0.0279
  151SAPE   H9R16710   2.826   3.656   7.648  0.6333 -1.2212 -1.2597
  151SAPE  C21016711   2.640   3.563   7.709 -0.5693 -0.1414 -0.2262
  151SAPE  H10R16712   2.704   3.500   7.776 -0.3634  0.6976  0.3712
  151SAPE  H10S16713   2.567   3.492   7.663  1.2364 -0.5392 -2.5494
  151SAPE  C21116714   2.571   3.673   7.778 -0.7490 -0.1588 -0.4819
  151SAPE  H11R16715   2.499   3.721   7.709 -1.1915  0.3278  0.3126
  151SAPE  C21216716   2.573   3.718   7.909 -0.2331  0.6545  0.2974
  151SAPE  H12R16717   2.517   3.810   7.934 -2.3284 -0.5969  0.2996
  151SAPE  C21316718   2.657   3.658   8.023  0.0452 -0.1364 -0.6867
  151SAPE  H13R16719   2.756   3.708   8.010  0.6016 -0.7970  0.8721
  151SAPE  H13S16720   2.695   3.562   7.983  1.3625  0.7735 -1.6765
  151SAPE  C21416721   2.599   3.665   8.155 -0.0455 -0.4619 -1.1031
  151SAPE  H14R16722   2.532   3.582   8.183  0.4507 -0.0180  1.5420
  151SAPE  C21516723   2.631   3.748   8.256  0.0708  0.8349  0.2347
  151SAPE  H15R16724   2.574   3.755   8.350 -0.7588 -0.6124 -0.1579
  151SAPE  C21616725   2.731   3.859   8.249  0.1514 -0.4166 -0.0363
  151SAPE  H16R16726   2.755   3.898   8.148 -2.1500  0.6487 -0.2128
  151SAPE  H16S16727   2.824   3.820   8.295  0.6258 -0.2406 -0.8327
  151SAPE  C21716728   2.670   3.972   8.339 -0.3366 -0.5621 -0.0345
  151SAPE  H17R16729   2.751   4.048   8.342  1.9090 -2.9422  1.9316
  151SAPE  H17S16730   2.651   3.940   8.444 -0.4973  0.1557  0.1584
  151SAPE  C21816731   2.539   4.030   8.287 -0.0898  0.1248 -0.2875
  151SAPE  H18R16732   2.526   4.130   8.334 -2.0806  0.1037 -0.7573
  151SAPE  H18S16733   2.458   3.960   8.317  0.5705 -1.1896 -1.5163
  151SAPE  C21916734   2.539   4.052   8.136 -0.8019  0.1182 -0.5524
  151SAPE  H19R16735   2.572   3.966   8.074  0.1116  1.5576 -2.1287
  151SAPE  H19S16736   2.608   4.138   8.121  0.0653 -0.8280 -2.2286
  151SAPE  C22016737   2.395   4.082   8.082  0.2183  0.3540 -0.5024
  151SAPE  H20R16738   2.320   4.015   8.128  0.3615  1.4059  1.3253
  151SAPE  H20S16739   2.362   4.182   8.117  1.1907  0.4664  0.1341
  151SAPE  H20T16740   2.391   4.094   7.972 -1.9562  1.2455 -0.3506
  151SAPE   C3316741   2.720   4.136   6.908  0.2454 -0.5084 -0.0048
  151SAPE   H3X16742   2.813   4.076   6.917 -0.0233 -0.8837  0.3158
  151SAPE   H3Y16743   2.633   4.067   6.915 -0.0861 -0.2362 -1.2488
  151SAPE   C3416744   2.717   4.219   7.033  0.3206 -0.7816 -0.2635
  151SAPE   H4X16745   2.612   4.242   7.060  0.7631  2.1001 -0.8037
  151SAPE   H4Y16746   2.775   4.314   7.024  0.7556 -1.0657 -0.4629
  151SAPE   C3516747   2.784   4.150   7.152 -0.1402 -0.1217  0.2585
  151SAPE   H5X16748   2.884   4.107   7.129  0.7259  2.0579 -0.2202
  151SAPE   H5Y16749   2.724   4.064   7.188  1.3959 -1.6351 -0.7055
  151SAPE   C3616750   2.792   4.244   7.275  0.0965  0.2522 -0.0460
  151SAPE   H6X16751   2.691   4.292   7.274 -0.1470 -0.2298  0.5219
  151SAPE   H6Y16752   2.863   4.329   7.281  0.1796  0.1420  0.6374
  151SAPE   C3716753   2.822   4.174   7.408 -0.2473 -0.2091 -0.4604
  151SAPE   H7X16754   2.923   4.127   7.403 -0.5666 -1.2801  2.1361
  151SAPE   H7Y16755   2.745   4.096   7.422 -0.5209 -0.3778 -2.7372
  151SAPE   C3816756   2.817   4.269   7.531  0.0265 -0.9111  0.0785
  151SAPE   H8X16757   2.710   4.290   7.554  0.3070 -0.7287  1.2504
  151SAPE   H8Y16758   2.877   4.362   7.521 -1.3552  0.3760  3.1457
  151SAPE   C3916759   2.874   4.209   7.661  0.4182 -0.2785 -0.4604
  151SAPE   H9X16760   2.893   4.292   7.731 -1.8353  0.7893 -1.0754
  151SAPE   H9Y16761   2.968   4.157   7.632  0.3047  0.8355 -2.9785
  151SAPE  C31016762   2.788   4.098   7.722 -0.2154  0.3823 -1.1574
  151SAPE  H10X16763   2.755   4.027   7.644  0.3594 -0.1043 -0.9633
  151SAPE  H10Y16764   2.702   4.147   7.773  2.0012  2.4697  0.6881
  151SAPE  C31116765   2.854   4.014   7.829 -0.7725 -0.1817 -0.3127
  151SAPE  H11X16766   2.786   3.958   7.897 -1.9769 -0.5123 -1.7497
  151SAPE  H11Y16767   2.917   4.081   7.891 -1.4667  0.6647 -0.5108
  151SAPE  C31216768   2.939   3.904   7.762 -0.2448  0.1839  0.3171
  151SAPE  H12X16769   3.023   3.945   7.702 -1.6518  1.1145 -1.0524
  151SAPE  H12Y16770   2.869   3.843   7.701  1.2243 -1.6835  0.4412
  151SAPE  C31316771   3.008   3.808   7.858 -0.4691  0.5048  0.5999
  151SAPE  H13X16772   3.081   3.757   7.791 -0.8935  0.3602  0.2439
  151SAPE  H13Y16773   2.927   3.741   7.896 -0.6159 -0.2374 -1.0136
  151SAPE  C31416774   3.092   3.875   7.967 -0.1455  0.2359 -0.5850
  151SAPE  H14X16775   3.024   3.922   8.041 -1.7264 -0.6745 -1.4310
  151SAPE  H14Y16776   3.156   3.952   7.919 -0.4107  0.5198 -0.4796
  151SAPE  C31516777   3.181   3.765   8.027  0.1280  1.2938  0.7722
  151SAPE  H15X16778   3.253   3.723   7.953 -0.8374  0.0192  0.5468
  151SAPE  H15Y16779   3.121   3.677   8.059 -0.4078  0.5560 -2.1068
  151SAPE  C31616780   3.262   3.810   8.146 -0.7891 -0.5859 -0.2319
  151SAPE  H16X16781   3.320   3.900   8.119  0.7117 -2.0419 -1.9633
  151SAPE  H16Y16782   3.336   3.728   8.155 -0.2746 -0.2175 -1.1031
  151SAPE  C31716783   3.175   3.816   8.266 -0.3258 -0.2076 -0.4008
  151SAPE  H17X16784   3.134   3.713   8.277  3.0480 -1.5391  0.1623
  151SAPE  H17Y16785   3.090   3.886   8.250 -0.2475 -0.5038 -2.2285
  151SAPE  C31816786   3.245   3.861   8.390 -0.4403  0.1544 -0.2992
  151SAPE  H18X16787   3.297   3.959   8.380  0.0410 -0.1432 -0.7685
  151SAPE  H18Y16788   3.313   3.780   8.424 -0.6575 -0.1591 -0.6096
  151SAPE  H18Z16789   3.171   3.878   8.470 -0.8267 -0.9671 -0.4117
  152SAPE     N16790   0.285   0.770   6.297 -0.4898 -0.3994 -0.8415
  152SAPE   HN116791   0.302   0.804   6.394  0.9921 -0.3733 -1.1053
  152SAPE   HN216792   0.307   0.844   6.227 -0.6868 -0.9988 -1.5376
  152SAPE   HN316793   0.183   0.747   6.305 -0.8267  1.6146  0.9472
  152SAPE   C1216794   0.356   0.641   6.272 -0.1163 -0.4541  0.1353
  152SAPE  H12A16795   0.466   0.647   6.285 -0.2512  2.2054  0.2124
  152SAPE  H12B16796   0.343   0.618   6.164 -0.9049  0.6293 -0.0016
  152SAPE   C1116797   0.295   0.525   6.355  0.5417 -0.2207  0.3195
  152SAPE  H11A16798   0.289   0.562   6.460 -4.4891  0.1448  0.0030
  152SAPE  H11B16799   0.356   0.433   6.341  2.2289  0.9055  0.1690
  152SAPE     P16800   0.096   0.363   6.359 -0.2563 -0.3171  0.0237
  152SAPE   O1316801  -0.043   0.360   6.312 -1.3604  0.1085  0.3646
  152SAPE   O1416802   0.179   0.243   6.321 -0.1674 -0.0361  0.3043
  152SAPE   O1216803   0.161   0.499   6.309  0.4637  0.4347  0.0658
  152SAPE   O1116804   0.109   0.377   6.512  0.4091 -0.0512 -0.3084
  152SAPE    C116805   0.039   0.470   6.594  0.6038 -0.2216 -0.2916
  152SAPE    HA16806   0.102   0.558   6.619 -0.0540 -0.0170  0.6948
  152SAPE    HB16807  -0.061   0.494   6.551  0.3575 -0.3829  0.1841
  152SAPE    C216808  -0.007   0.405   6.730  0.1716  0.2923  0.0718
  152SAPE    HS16809  -0.058   0.486   6.787  1.8748  1.6506 -0.3008
  152SAPE   O2116810   0.106   0.356   6.812  0.2610 -0.6666  0.0698
  152SAPE   C2116811   0.178   0.439   6.885 -0.7628 -0.2302 -0.0810
  152SAPE   O2216812   0.177   0.561   6.876  0.0273 -0.2540 -0.3877
  152SAPE   C2216813   0.265   0.355   6.979 -0.3325 -0.7393  0.6019
  152SAPE   H2R16814   0.207   0.338   7.073 -0.6073  2.0511  1.0068
  152SAPE   H2S16815   0.274   0.257   6.928 -0.5644  0.4831 -1.8657
  152SAPE    C316816  -0.105   0.287   6.699 -0.5643 -0.5682  0.5099
  152SAPE    HX16817  -0.036   0.214   6.653 -0.4814  0.0683 -0.3814
  152SAPE    HY16818  -0.179   0.326   6.625  0.5916 -0.6233 -0.6815
  152SAPE   O3116819  -0.177   0.243   6.823  0.4071 -0.0402  0.1107
  152SAPE   C3116820  -0.216   0.116   6.814  0.0522 -0.5952  0.1474
  152SAPE   O3216821  -0.217   0.054   6.709 -0.0253  0.4720  0.0372
  152SAPE   C3216822  -0.266   0.060   6.948 -0.1988 -0.4004 -0.2852
  152SAPE   H2X16823  -0.368   0.101   6.966 -1.0096 -1.5848 -1.9773
  152SAPE   H2Y16824  -0.199   0.083   7.034  0.3536  0.6182 -0.9894
  152SAPE   C2316825   0.385   0.436   7.002 -0.1351 -0.3284 -0.1576
  152SAPE   H3R16826   0.361   0.536   7.043  1.0053  0.3773 -1.1777
  152SAPE   H3S16827   0.438   0.466   6.909  1.0344 -0.6899  0.3889
  152SAPE   C2416828   0.500   0.373   7.086  0.9925 -0.0350  0.3077
  152SAPE   H4R16829   0.578   0.451   7.096 -1.5090  2.3996  1.7182
  152SAPE   H4S16830   0.554   0.291   7.033  2.8197  1.0405  0.4737
  152SAPE   C2516831   0.448   0.342   7.223 -1.1110 -0.2267 -0.9150
  152SAPE   H5R16832   0.351   0.290   7.231 -0.5274 -0.8817  2.8872
  152SAPE   C2616833   0.491   0.390   7.344  0.0688 -0.4452 -0.7606
  152SAPE   H6R16834   0.447   0.348   7.436 -0.3474  1.1712 -0.2048
  152SAPE   C2716835   0.594   0.490   7.375  0.2771 -0.1027  0.1321
  152SAPE   H7R16836   0.631   0.553   7.291  1.6373  0.3526  1.0478
  152SAPE   H7S16837   0.688   0.442   7.410  0.7449  0.6694 -0.0483
  152SAPE   C2816838   0.546   0.590   7.480 -0.4613 -1.4648 -0.5400
  152SAPE   H8R16839   0.506   0.688   7.448 -0.6253 -0.8796  1.3876
  152SAPE   C2916840   0.542   0.567   7.615 -0.2089  0.5397 -0.6715
  152SAPE   H9R16841   0.504   0.635   7.692 -1.0334  1.5537 -1.9599
  152SAPE  C21016842   0.585   0.432   7.675  0.3269  0.3632  1.4041
  152SAPE  H10R16843   0.685   0.405   7.637 -0.9891 -2.0116 -0.4793
  152SAPE  H10S16844   0.516   0.356   7.635 -0.1521  0.6206  1.7271
  152SAPE  C21116845   0.586   0.419   7.827  0.1765 -0.3024  0.4905
  152SAPE  H11R16846   0.678   0.460   7.872  0.7013  0.4916 -1.2306
  152SAPE  C21216847   0.503   0.357   7.915  0.1103 -0.2160 -0.3727
  152SAPE  H12R16848   0.518   0.355   8.024 -4.1926  2.1227  0.3916
  152SAPE  C21316849   0.376   0.294   7.867 -0.0343  0.2678  0.4971
  152SAPE  H13R16850   0.325   0.352   7.787 -2.0053 -1.3812  0.5178
  152SAPE  H13S16851   0.296   0.296   7.945 -0.7078 -0.6602 -0.1515
  152SAPE  C21416852   0.386   0.153   7.810 -0.5423  0.0631  0.2684
  152SAPE  H14R16853   0.478   0.102   7.841 -0.8401 -0.9971 -0.5614
  152SAPE  C21516854   0.296   0.085   7.729  0.6062 -0.3791  0.7260
  152SAPE  H15R16855   0.331  -0.009   7.685 -0.2145 -0.1536 -0.4193
  152SAPE  C21616856   0.170   0.151   7.686  0.2265  0.0035  0.0744
  152SAPE  H16R16857   0.149   0.255   7.719 -1.6623  0.0127 -1.0976
  152SAPE  H16S16858   0.084   0.090   7.722 -0.2125 -0.3411 -1.4835
  152SAPE  C21716859   0.163   0.164   7.533 -0.1863 -0.3213 -0.3503
  152SAPE  H17R16860   0.206   0.071   7.488  0.9337 -0.1994  0.4625
  152SAPE  H17S16861   0.225   0.244   7.489  0.4197 -1.2056 -1.1386
  152SAPE  C21816862   0.008   0.169   7.499 -1.0601  0.5806 -0.6637
  152SAPE  H18R16863  -0.025   0.269   7.535 -0.1127  0.7554 -0.2716
  152SAPE  H18S16864  -0.048   0.089   7.551 -2.3894  0.7230 -1.8351
  152SAPE  C21916865  -0.036   0.153   7.351  0.2597 -0.3909 -0.1572
  152SAPE  H19R16866  -0.147   0.164   7.349  0.1156 -1.7613 -0.1258
  152SAPE  H19S16867  -0.016   0.046   7.333  1.0148 -0.2609 -0.1105
  152SAPE  C22016868   0.051   0.227   7.240 -0.3851  0.0451 -1.1756
  152SAPE  H20R16869   0.060   0.334   7.266  2.4371 -0.5788  0.7241
  152SAPE  H20S16870   0.003   0.224   7.139  1.2933 -0.7840 -1.9779
  152SAPE  H20T16871   0.153   0.183   7.237 -0.4226 -0.1630  0.4244
  152SAPE   C3316872  -0.271  -0.095   6.929 -0.0290 -0.2156  0.2683
  152SAPE   H3X16873  -0.169  -0.128   6.901 -0.0838 -0.8623  0.8039
  152SAPE   H3Y16874  -0.330  -0.123   6.839  1.1269 -0.5289 -0.3993
  152SAPE   C3416875  -0.317  -0.167   7.055 -0.0793 -0.1433  0.6510
  152SAPE   H4X16876  -0.297  -0.274   7.032  1.2605  0.3095 -0.3455
  152SAPE   H4Y16877  -0.426  -0.158   7.070 -0.4332  0.0844 -1.8504
  152SAPE   C3516878  -0.239  -0.131   7.182  0.3169  0.2343  1.1294
  152SAPE   H5X16879  -0.257  -0.029   7.222  0.8596  1.4961 -1.7443
  152SAPE   H5Y16880  -0.132  -0.147   7.153 -0.2502 -0.2817 -0.7356
  152SAPE   C3616881  -0.271  -0.243   7.287 -0.1107 -0.2418  0.4162
  152SAPE   H6X16882  -0.218  -0.335   7.253  0.8063  0.4394 -0.0220
  152SAPE   H6Y16883  -0.380  -0.259   7.269  0.4811 -1.6568 -2.1081
  152SAPE   C3716884  -0.267  -0.208   7.437  1.2328  0.3119 -0.3108
  152SAPE   H7X16885  -0.329  -0.118   7.454 -1.0600 -0.9843 -1.6056
  152SAPE   H7Y16886  -0.165  -0.173   7.463  0.1645  2.7347  0.6718
  152SAPE   C3816887  -0.314  -0.308   7.546  0.5095  0.6871  0.0787
  152SAPE   H8X16888  -0.258  -0.404   7.542 -0.1745  0.2875 -0.1070
  152SAPE   H8Y16889  -0.417  -0.328   7.511 -0.2952  0.8126  2.2460
  152SAPE   C3916890  -0.307  -0.240   7.690 -0.1192 -0.0765  0.1205
  152SAPE   H9X16891  -0.385  -0.161   7.692  0.4134  0.4768 -0.9973
  152SAPE   H9Y16892  -0.210  -0.188   7.705  0.8685 -1.9062  0.2475
  152SAPE  C31016893  -0.320  -0.344   7.795 -0.3739  0.1242  1.0342
  152SAPE  H10X16894  -0.240  -0.419   7.776 -1.6986 -0.8038 -0.9887
  152SAPE  H10Y16895  -0.415  -0.401   7.799 -1.2989  1.6800  1.3865
  152SAPE  C31116896  -0.291  -0.287   7.936  0.1231 -0.5689  0.6597
  152SAPE  H11X16897  -0.380  -0.232   7.975  0.8282  0.0262  1.4464
  152SAPE  H11Y16898  -0.208  -0.215   7.923  2.0378 -3.0022 -0.8199
  152SAPE  C31216899  -0.239  -0.385   8.044 -0.5801  0.2146 -0.1273
  152SAPE  H12X16900  -0.154  -0.447   8.009 -0.9136 -1.0137  1.2106
  152SAPE  H12Y16901  -0.319  -0.458   8.069 -2.9486  2.0070 -2.0971
  152SAPE  C31316902  -0.191  -0.294   8.159  0.9202 -0.5849  0.7893
  152SAPE  H13X16903  -0.272  -0.236   8.209  1.4689 -0.4759  1.5466
  152SAPE  H13Y16904  -0.114  -0.218   8.135 -0.6926  0.4443 -1.3782
  152SAPE  C31416905  -0.123  -0.383   8.269 -0.3896 -0.1976 -0.1626
  152SAPE  H14X16906  -0.045  -0.453   8.233  0.4780  1.7491 -2.1890
  152SAPE  H14Y16907  -0.210  -0.435   8.313 -1.7872  0.7327 -1.7483
  152SAPE  C31516908  -0.035  -0.309   8.372  0.2850 -0.2157  0.0300
  152SAPE  H15X16909  -0.109  -0.243   8.424  1.6920 -0.1822  2.0567
  152SAPE  H15Y16910   0.033  -0.234   8.327 -0.0901 -0.0413 -0.2507
  152SAPE  C31616911   0.036  -0.394   8.472  0.4341 -0.5397 -0.8784
  152SAPE  H16X16912   0.104  -0.458   8.412  0.7656 -0.5752 -0.4605
  152SAPE  H16Y16913  -0.035  -0.462   8.523  0.4382 -0.5511 -0.8878
  152SAPE  C31716914   0.134  -0.328   8.574  0.2234  0.3186 -0.1590
  152SAPE  H17X16915   0.185  -0.243   8.524 -0.5492 -0.1444 -1.7796
  152SAPE  H17Y16916   0.210  -0.399   8.612  0.0642 -0.2502 -0.8722
  152SAPE  C31816917   0.052  -0.268   8.688  0.1419  0.1413 -0.3468
  152SAPE  H18X16918  -0.007  -0.179   8.656  0.1825 -0.4090 -2.0240
  152SAPE  H18Y16919   0.117  -0.240   8.774 -0.5107 -1.5320  0.7151
  152SAPE  H18Z16920  -0.022  -0.345   8.717  0.0657  0.8182  1.2904
  153SAPE     N16921   3.103   6.743   6.231 -0.7614  0.3269 -0.0710
  153SAPE   HN116922   3.044   6.775   6.151 -0.6848  1.5499  0.3522
  153SAPE   HN216923   3.199   6.731   6.191 -1.0490  0.3501 -0.7774
  153SAPE   HN316924   3.066   6.657   6.276  1.0576 -1.1726 -1.3396
  153SAPE   C1216925   3.118   6.856   6.334 -0.4532  0.1786  0.4187
  153SAPE  H12A16926   3.018   6.888   6.368 -0.2974  1.3238 -0.1747
  153SAPE  H12B16927   3.179   6.930   6.278  0.9958 -1.2875 -0.0034
  153SAPE   C1116928   3.211   6.820   6.451  0.0271 -0.5218 -0.5329
  153SAPE  H11A16929   3.164   6.744   6.518  1.3371 -0.4394  0.4957
  153SAPE  H11B16930   3.234   6.914   6.505 -1.0782  0.1507 -1.1981
  153SAPE     P16931   3.447   6.730   6.478  0.1360 -0.1139  0.1108
  153SAPE   O1316932   3.410   6.619   6.567 -0.1181 -0.0762  0.1301
  153SAPE   O1416933   3.558   6.705   6.383 -0.2160 -0.2529 -0.2143
  153SAPE   O1216934   3.334   6.779   6.398  0.6641  0.1572  0.6346
  153SAPE   O1116935   3.476   6.855   6.561  0.5139  0.0032  0.1524
  153SAPE    C116936   3.529   6.978   6.496 -0.0389  0.6085 -0.2336
  153SAPE    HA16937   3.639   6.967   6.487  0.1491 -0.7880  2.9963
  153SAPE    HB16938   3.495   6.995   6.392 -0.1143  0.6230 -0.2074
  153SAPE    C216939   3.511   7.106   6.581 -0.1654 -0.6580  0.7245
  153SAPE    HS16940   3.555   7.186   6.519 -0.0711 -0.5435  0.9385
  153SAPE   O2116941   3.582   7.086   6.703 -0.7029  0.1133  0.4599
  153SAPE   C2116942   3.645   7.203   6.747 -0.2562 -0.3432  0.7654
  153SAPE   O2216943   3.628   7.308   6.688 -0.2762 -0.5693 -0.0917
  153SAPE   C2216944   3.723   7.173   6.873 -0.2347 -0.0030 -0.2381
  153SAPE   H2R16945   3.734   7.063   6.873 -0.3329 -0.0138 -1.6516
  153SAPE   H2S16946   3.817   7.233   6.878 -1.3493  1.8468 -0.7503
  153SAPE    C316947   3.361   7.135   6.604 -0.3648 -0.0162 -0.0561
  153SAPE    HX16948   3.311   7.050   6.654 -2.2124  1.6075  0.9538
  153SAPE    HY16949   3.310   7.155   6.508  1.4885 -0.8909 -1.2526
  153SAPE   O3116950   3.343   7.248   6.689  0.0089  0.5069 -0.5822
  153SAPE   C3116951   3.220   7.285   6.698  0.7993 -0.5265 -0.8110
  153SAPE   O3216952   3.127   7.217   6.655  1.1588  0.5168  0.5316
  153SAPE   C3216953   3.204   7.421   6.777  0.6857 -0.1432 -0.3306
  153SAPE   H2X16954   3.161   7.500   6.711  1.2880  1.5496  1.2670
  153SAPE   H2Y16955   3.304   7.457   6.809  1.1879 -1.9612  0.1762
  153SAPE   C2316956   3.646   7.205   7.011 -0.4191  0.0134  0.3639
  153SAPE   H3R16957   3.699   7.146   7.089 -1.1431  0.4320  1.1836
  153SAPE   H3S16958   3.541   7.170   6.998 -0.8212  0.9264  1.0382
  153SAPE   C2416959   3.654   7.356   7.053  0.6581  0.0433 -0.6754
  153SAPE   H4R16960   3.615   7.406   6.962  1.9030  0.7485 -0.8389
  153SAPE   H4S16961   3.756   7.388   7.086  1.6393 -1.5347 -2.0891
  153SAPE   C2516962   3.564   7.381   7.167  0.3188  0.1999 -0.0149
  153SAPE   H5R16963   3.466   7.331   7.156  0.5478 -0.2482 -0.0389
  153SAPE   C2616964   3.594   7.436   7.286  0.4598  0.6677 -0.1126
  153SAPE   H6R16965   3.511   7.441   7.358  0.0709  1.6549 -0.6123
  153SAPE   C2716966   3.726   7.497   7.319  0.3365  0.1368 -0.7118
  153SAPE   H7R16967   3.697   7.601   7.349 -0.7646  0.3396 -2.4233
  153SAPE   H7S16968   3.796   7.511   7.234  0.2218  2.6410 -0.4471
  153SAPE   C2816969   3.804   7.425   7.419  0.5046  0.6913 -0.3493
  153SAPE   H8R16970   3.840   7.337   7.364  2.0854  1.4029 -0.4588
  153SAPE   C2916971   3.819   7.439   7.549  0.8512 -0.3840 -0.3634
  153SAPE   H9R16972   3.877   7.366   7.607 -0.0978 -3.1596 -2.8180
  153SAPE  C21016973   3.761   7.559   7.634 -0.0329 -0.8149  0.3584
  153SAPE  H10R16974   3.772   7.660   7.588 -1.1021 -1.6062 -1.7057
  153SAPE  H10S16975   3.817   7.549   7.730  0.3894  1.5255  0.3898
  153SAPE  C21116976   3.613   7.559   7.663 -0.1130 -0.4213  0.0098
  153SAPE  H11R16977   3.563   7.510   7.578 -0.8264 -1.8115  1.2170
  153SAPE  C21216978   3.549   7.600   7.771  0.6196  0.8256  0.0021
  153SAPE  H12R16979   3.439   7.591   7.772  0.6089  1.0019  0.2792
  153SAPE  C21316980   3.626   7.658   7.884  0.3089  0.6976  0.0846
  153SAPE  H13R16981   3.660   7.758   7.852  1.5703  0.1465 -0.3264
  153SAPE  H13S16982   3.719   7.602   7.909 -0.5742 -1.3308 -1.0389
  153SAPE  C21416983   3.543   7.661   8.011 -0.3593  0.0995 -0.4064
  153SAPE  H14R16984   3.435   7.645   8.009 -0.3808  0.2647 -0.5993
  153SAPE  C21516985   3.596   7.680   8.132  0.8355  0.4150  0.0537
  153SAPE  H15R16986   3.526   7.680   8.216 -0.0594  3.0697 -0.6455
  153SAPE  C21616987   3.740   7.702   8.168 -0.2585  0.9318 -0.6946
  153SAPE  H16R16988   3.810   7.676   8.085  0.5612 -0.2415  0.3359
  153SAPE  H16S16989   3.781   7.637   8.248  1.5253 -0.8893 -2.9843
  153SAPE  C21716990   3.773   7.845   8.206  0.0466  0.1275 -0.4530
  153SAPE  H17R16991   3.726   7.908   8.127 -2.3125 -0.9597  0.0260
  153SAPE  H17S16992   3.882   7.866   8.200 -0.5355  2.7871 -2.4204
  153SAPE  C21816993   3.722   7.889   8.353 -0.1296 -0.0698  0.4442
  153SAPE  H18R16994   3.612   7.883   8.333  0.1896  0.4414 -1.5164
  153SAPE  H18S16995   3.752   7.995   8.365  0.3362 -0.1520 -0.0178
  153SAPE  C21916996   3.768   7.807   8.466 -0.0404  0.1592 -0.0743
  153SAPE  H19R16997   3.745   7.698   8.468  2.4650 -0.3909  0.1977
  153SAPE  H19S16998   3.722   7.855   8.555 -2.8917 -0.1409 -1.3232
  153SAPE  C22016999   3.917   7.814   8.486  0.0777 -0.2016  0.1045
  153SAPE  H20R17000   3.956   7.780   8.584  2.9635  2.0672 -0.1884
  153SAPE  H20S17001   3.948   7.920   8.487  2.1405 -0.7734  1.9507
  153SAPE  H20T17002   3.974   7.761   8.407  2.2373 -1.7019  2.6041
  153SAPE   C3317003   3.115   7.408   6.903 -0.2722 -0.3566 -0.3172
  153SAPE   H3X17004   3.033   7.336   6.881 -0.0927 -0.5527 -0.3421
  153SAPE   H3Y17005   3.063   7.504   6.923 -1.3646 -0.6574 -1.6222
  153SAPE   C3417006   3.189   7.357   7.025 -0.0069 -0.8457 -0.0001
  153SAPE   H4X17007   3.285   7.412   7.013 -2.4401  3.6477  0.0987
  153SAPE   H4Y17008   3.221   7.251   7.012 -2.7247 -1.7066  0.1248
  153SAPE   C3517009   3.125   7.382   7.159  0.8634  0.6989  0.0406
  153SAPE   H5X17010   3.113   7.296   7.229  0.9535  0.6712  0.0224
  153SAPE   H5Y17011   3.018   7.409   7.153  0.8616  0.8153  0.5112
  153SAPE   C3617012   3.193   7.503   7.234 -0.7095 -0.0294 -0.3786
  153SAPE   H6X17013   3.187   7.597   7.175  3.3040  0.6799  0.2105
  153SAPE   H6Y17014   3.300   7.475   7.248 -0.9421  0.0133  1.6361
  153SAPE   C3717015   3.135   7.522   7.373  0.1103  0.6055  0.6134
  153SAPE   H7X17016   3.025   7.505   7.367  0.6529 -2.6459 -0.7576
  153SAPE   H7Y17017   3.156   7.620   7.421 -1.7017  1.7877 -0.8865
  153SAPE   C3817018   3.180   7.406   7.471 -0.3374 -0.4761  0.6113
  153SAPE   H8X17019   3.291   7.415   7.481 -0.1372  0.2237 -2.0200
  153SAPE   H8Y17020   3.157   7.306   7.429 -1.5396  0.0863 -0.0620
  153SAPE   C3917021   3.133   7.414   7.622  0.0268 -0.7799 -1.1988
  153SAPE   H9X17022   3.030   7.452   7.636 -0.0800 -0.8704 -1.7462
  153SAPE   H9Y17023   3.201   7.489   7.667 -1.3638 -0.1634 -0.0919
  153SAPE  C31017024   3.157   7.283   7.686  0.4605  0.2581 -0.1591
  153SAPE  H10X17025   3.258   7.241   7.705 -0.0841 -0.7451  0.6102
  153SAPE  H10Y17026   3.112   7.209   7.616 -1.2043  2.5380 -1.5559
  153SAPE  C31117027   3.070   7.258   7.810  0.0409 -0.2438 -0.2895
  153SAPE  H11X17028   3.103   7.158   7.845 -0.4092 -1.0241 -2.0473
  153SAPE  H11Y17029   2.960   7.253   7.790 -0.0459 -1.4206  0.4692
  153SAPE  C31217030   3.106   7.352   7.931 -0.4960 -0.5446 -0.8239
  153SAPE  H12X17031   3.072   7.455   7.907 -1.3787 -1.1191 -2.0911
  153SAPE  H12Y17032   3.215   7.362   7.950 -0.7663  3.2566 -0.7961
  153SAPE  C31317033   3.025   7.300   8.063  0.4431 -0.1052 -0.2182
  153SAPE  H13X17034   3.052   7.195   8.084  1.5019  0.4886  1.4266
  153SAPE  H13Y17035   2.917   7.310   8.035  0.0578  1.7975  1.8329
  153SAPE  C31417036   3.044   7.387   8.191 -0.4594  0.2438 -0.3629
  153SAPE  H14X17037   2.977   7.359   8.275 -1.3370  2.2850 -0.3479
  153SAPE  H14Y17038   3.022   7.495   8.177  3.0836  1.2536  1.2907
  153SAPE  C31517039   3.201   7.388   8.216  0.9748 -0.3204 -0.4574
  153SAPE  H15X17040   3.232   7.485   8.171 -1.3133  0.3237 -0.6850
  153SAPE  H15Y17041   3.245   7.299   8.166  1.1105 -0.2180 -0.5219
  153SAPE  C31617042   3.240   7.379   8.367 -0.0452 -0.7487 -0.4682
  153SAPE  H16X17043   3.350   7.367   8.375 -0.0450  0.3494  1.4480
  153SAPE  H16Y17044   3.177   7.294   8.402  0.2860 -0.5216  0.7153
  153SAPE  C31717045   3.201   7.502   8.452 -0.0693 -0.0377 -0.3812
  153SAPE  H17X17046   3.187   7.460   8.554 -0.8917  1.2308  0.0346
  153SAPE  H17Y17047   3.102   7.536   8.416 -0.9459 -0.9052  1.1463
  153SAPE  C31817048   3.300   7.623   8.450  0.4984  0.0580  0.2137
  153SAPE  H18X17049   3.313   7.673   8.351 -0.1762  1.4214  0.8015
  153SAPE  H18Y17050   3.399   7.585   8.483  0.7451 -0.0848 -0.6692
  153SAPE  H18Z17051   3.257   7.692   8.525  0.9788  2.1904 -1.4159
  154SAPE     N17052   1.847   6.792   5.917 -0.3925 -0.2417  0.8175
  154SAPE   HN117053   1.746   6.814   5.901 -0.7936 -1.9611  0.8989
  154SAPE   HN217054   1.913   6.864   5.879  0.4592 -2.1538 -1.4665
  154SAPE   HN317055   1.877   6.704   5.870  3.0186  1.8779 -1.1674
  154SAPE   C1217056   1.875   6.812   6.057  0.6927  0.4552 -0.5200
  154SAPE  H12A17057   1.850   6.917   6.080 -0.9704  0.7130 -3.3040
  154SAPE  H12B17058   1.984   6.795   6.069  0.5554  1.0235  1.6497
  154SAPE   C1117059   1.795   6.711   6.145 -0.2460  0.1653 -0.1495
  154SAPE  H11A17060   1.808   6.726   6.254  0.8581 -0.8566 -0.1302
  154SAPE  H11B17061   1.841   6.614   6.117  0.2122 -0.0468  1.3050
  154SAPE     P17062   1.547   6.795   6.175  0.1490 -0.3844  0.2567
  154SAPE   O1317063   1.602   6.930   6.168 -0.2842  0.0291  0.6629
  154SAPE   O1417064   1.420   6.771   6.100  0.0851  0.4866  0.2840
  154SAPE   O1217065   1.659   6.707   6.114 -0.3343  0.4401  0.2148
  154SAPE   O1117066   1.547   6.746   6.324  0.2107  0.5067  0.4781
  154SAPE    C117067   1.529   6.611   6.358  0.1278  0.4490  0.3572
  154SAPE    HA17068   1.454   6.561   6.293  0.0616  1.2070 -0.1567
  154SAPE    HB17069   1.621   6.552   6.342  0.7565  1.3248  0.7258
  154SAPE    C217070   1.495   6.591   6.504  0.2006 -0.0999  0.4346
  154SAPE    HS17071   1.392   6.627   6.523  0.3692  0.8824 -0.4769
  154SAPE   O2117072   1.586   6.669   6.586  0.1284  0.3087  0.1892
  154SAPE   C2117073   1.540   6.715   6.698  0.0545  1.0347  0.3396
  154SAPE   O2217074   1.428   6.722   6.731  0.4905 -0.4594  0.3335
  154SAPE   C2217075   1.664   6.741   6.792 -0.6701 -0.2763  0.0139
  154SAPE   H2R17076   1.658   6.849   6.819 -0.0910 -0.3204  0.3323
  154SAPE   H2S17077   1.647   6.679   6.883 -0.0172 -0.2012  0.1955
  154SAPE    C317078   1.476   6.442   6.547 -0.2864 -0.5080 -0.2039
  154SAPE    HX17079   1.572   6.394   6.517  1.2609  1.2318  1.7834
  154SAPE    HY17080   1.396   6.394   6.488 -1.8053  1.5485  0.1417
  154SAPE   O3117081   1.472   6.423   6.689  0.1088 -0.0553 -0.0065
  154SAPE   C3117082   1.355   6.387   6.731 -0.2663  0.2900  0.0222
  154SAPE   O3217083   1.246   6.403   6.676 -0.9859 -0.3449  0.4291
  154SAPE   C3217084   1.365   6.336   6.879  0.4226 -1.1399  0.0810
  154SAPE   H2X17085   1.388   6.425   6.942  0.8566 -0.5287 -0.9321
  154SAPE   H2Y17086   1.452   6.267   6.876  1.8569  0.6657 -0.5141
  154SAPE   C2317087   1.800   6.724   6.718  0.2915 -0.6658 -0.1484
  154SAPE   H3R17088   1.816   6.795   6.634  0.6803 -0.6958 -0.1019
  154SAPE   H3S17089   1.813   6.622   6.677  0.6854 -0.6826  0.0116
  154SAPE   C2417090   1.923   6.754   6.817  0.2847  0.4348  0.2363
  154SAPE   H4R17091   2.015   6.718   6.765  0.5407 -1.9782  2.2570
  154SAPE   H4S17092   1.912   6.692   6.908 -1.7265  1.4215  0.6955
  154SAPE   C2517093   1.925   6.901   6.849 -0.1157  0.1976 -0.1299
  154SAPE   H5R17094   1.953   6.966   6.765 -2.1843  0.7805 -0.3788
  154SAPE   C2617095   1.912   6.961   6.969  0.7565  0.2599  0.0004
  154SAPE   H6R17096   1.908   7.071   6.975 -1.0738  0.3288 -1.7259
  154SAPE   C2717097   1.880   6.895   7.105  0.0987 -0.2866 -0.2041
  154SAPE   H7R17098   1.964   6.918   7.173  0.1457  2.2181 -1.0711
  154SAPE   H7S17099   1.880   6.784   7.094 -0.6137 -0.2332 -0.8126
  154SAPE   C2817100   1.743   6.931   7.167  0.4235 -0.1664  0.2571
  154SAPE   H8R17101   1.669   6.987   7.109  0.3625 -0.2401  0.2638
  154SAPE   C2917102   1.701   6.895   7.292 -0.0586 -1.3979 -0.1653
  154SAPE   H9R17103   1.598   6.914   7.325 -0.4512 -0.1159 -2.0565
  154SAPE  C21017104   1.790   6.816   7.388  0.1335  0.0388  0.3754
  154SAPE  H10R17105   1.793   6.856   7.492  0.3550  1.3967 -0.1376
  154SAPE  H10S17106   1.895   6.840   7.359  0.8036 -2.7935  0.3597
  154SAPE  C21117107   1.773   6.669   7.390  0.9630 -0.1563 -0.2378
  154SAPE  H11R17108   1.752   6.618   7.295  0.7569 -2.3535  0.9696
  154SAPE  C21217109   1.780   6.591   7.496 -0.1235  0.3604 -0.7162
  154SAPE  H12R17110   1.756   6.485   7.481 -2.5059  0.8916 -0.9060
  154SAPE  C21317111   1.811   6.629   7.632  0.2875  0.1236  0.0204
  154SAPE  H13R17112   1.874   6.721   7.623 -1.4673  1.4490  0.9927
  154SAPE  H13S17113   1.870   6.547   7.678 -0.8784  0.2504  1.8020
  154SAPE  C21417114   1.714   6.672   7.732 -0.6072 -0.6378  0.2587
  154SAPE  H14R17115   1.680   6.774   7.712  1.7305 -0.4376 -3.0539
  154SAPE  C21517116   1.659   6.603   7.830  0.6425  0.5122 -0.1040
  154SAPE  H15R17117   1.577   6.655   7.881  0.7278  0.3962  0.1490
  154SAPE  C21617118   1.692   6.463   7.863 -0.7515 -0.4195 -0.2099
  154SAPE  H16R17119   1.800   6.458   7.887 -0.9333  2.1809  1.3693
  154SAPE  H16S17120   1.667   6.404   7.772 -0.2355 -0.5280 -0.2786
  154SAPE  C21717121   1.615   6.389   7.974  0.0766  0.3710 -0.2332
  154SAPE  H17R17122   1.619   6.279   7.962 -1.6615  0.1097  1.4288
  154SAPE  H17S17123   1.505   6.405   7.974 -0.4000 -2.7463 -0.8983
  154SAPE  C21817124   1.670   6.430   8.113  0.4648 -0.3071 -0.3743
  154SAPE  H18R17125   1.647   6.537   8.134  0.8978 -0.1973 -0.4381
  154SAPE  H18S17126   1.780   6.419   8.102  0.9230  2.7595  0.5816
  154SAPE  C21917127   1.610   6.346   8.227 -0.1756 -0.0307 -0.6773
  154SAPE  H19R17128   1.641   6.383   8.327  0.9780 -1.0774 -0.6381
  154SAPE  H19S17129   1.646   6.241   8.229  0.0110  0.0354 -0.5563
  154SAPE  C22017130   1.458   6.357   8.220 -0.0122 -0.2832  0.4986
  154SAPE  H20R17131   1.431   6.461   8.192  2.3207  0.0633 -0.5552
  154SAPE  H20S17132   1.414   6.331   8.318 -0.9489  2.0165  0.7205
  154SAPE  H20T17133   1.412   6.288   8.146  1.0166  0.9042 -1.3060
  154SAPE   C3317134   1.243   6.261   6.932 -0.0436  0.3531  0.7303
  154SAPE   H3X17135   1.227   6.168   6.873 -1.1292  1.1785 -0.3052
  154SAPE   H3Y17136   1.152   6.322   6.918  0.5034  0.9867 -0.1135
  154SAPE   C3417137   1.256   6.218   7.082  0.2229  0.3692  0.3703
  154SAPE   H4X17138   1.267   6.308   7.146  2.6212  0.1674  0.2713
  154SAPE   H4Y17139   1.351   6.161   7.084  0.4103  0.3464 -4.1618
  154SAPE   C3517140   1.148   6.124   7.143 -0.1944 -0.7555  0.0808
  154SAPE   H5X17141   1.164   6.028   7.088  0.9970 -1.1622  1.1118
  154SAPE   H5Y17142   1.041   6.144   7.122 -0.5404 -2.0437  0.5641
  154SAPE   C3617143   1.163   6.110   7.292 -0.2256  0.3739 -0.4506
  154SAPE   H6X17144   1.114   6.205   7.323 -1.5494  0.3144 -2.3293
  154SAPE   H6Y17145   1.267   6.113   7.330  0.2852 -0.4856 -1.7596
  154SAPE   C3717146   1.095   5.992   7.353  0.3221  0.3726 -0.3327
  154SAPE   H7X17147   1.141   5.897   7.321 -0.2190 -0.0330  0.0666
  154SAPE   H7Y17148   0.987   5.994   7.326  0.5930 -1.9276 -1.6728
  154SAPE   C3817149   1.102   5.994   7.502  0.5381  0.2967 -0.1241
  154SAPE   H8X17150   1.070   6.091   7.545 -1.9575 -0.5296 -0.0314
  154SAPE   H8Y17151   1.204   5.971   7.542 -1.3322 -3.1674  3.0033
  154SAPE   C3917152   0.999   5.896   7.564  0.2741 -0.6014 -0.6600
  154SAPE   H9X17153   1.030   5.792   7.542 -1.6403 -0.9585 -1.8450
  154SAPE   H9Y17154   0.908   5.912   7.501 -0.3695 -1.7299 -0.0338
  154SAPE  C31017155   0.967   5.921   7.712 -0.1855  0.4088 -0.4810
  154SAPE  H10X17156   0.874   5.869   7.744 -0.3890  1.4802  0.7160
  154SAPE  H10Y17157   0.949   6.027   7.741  1.2712  0.8738 -1.2051
  154SAPE  C31117158   1.069   5.865   7.805 -0.4206  0.1069 -0.9737
  154SAPE  H11X17159   1.041   5.880   7.911  1.2932 -1.7673 -0.2268
  154SAPE  H11Y17160   1.168   5.913   7.791 -0.0978  0.2140  1.4865
  154SAPE  C31217161   1.084   5.712   7.797  0.0945 -0.0229 -0.2974
  154SAPE  H12X17162   1.122   5.679   7.697  0.0501 -1.4917  0.1705
  154SAPE  H12Y17163   0.985   5.665   7.813  0.0008  0.1479 -0.3712
  154SAPE  C31317164   1.184   5.652   7.901 -0.2106 -0.0988 -0.4068
  154SAPE  H13X17165   1.148   5.691   7.999  1.0086  1.2892 -0.4943
  154SAPE  H13Y17166   1.287   5.690   7.881  1.0341 -2.0183  2.0839
  154SAPE  C31417167   1.174   5.498   7.908  0.5720  0.4098 -0.6242
  154SAPE  H14X17168   1.201   5.444   7.815 -0.1310 -1.3752  0.1848
  154SAPE  H14Y17169   1.070   5.466   7.930 -0.3242  2.2845 -1.9859
  154SAPE  C31517170   1.254   5.424   8.021  0.3237 -0.8426  0.2597
  154SAPE  H15X17171   1.184   5.346   8.057  0.6790 -1.0228  0.5704
  154SAPE  H15Y17172   1.268   5.503   8.097  1.3630 -0.4973 -0.2725
  154SAPE  C31617173   1.390   5.367   7.984  0.9553  0.0150 -0.0512
  154SAPE  H16X17174   1.473   5.437   8.006  1.0920 -0.2536  0.2738
  154SAPE  H16Y17175   1.374   5.367   7.874 -1.6567 -0.9316  0.2871
  154SAPE  C31717176   1.414   5.227   8.037  0.2563 -0.1955 -0.5667
  154SAPE  H17X17177   1.326   5.160   8.028 -0.5308  0.7464  0.0752
  154SAPE  H17Y17178   1.428   5.232   8.147 -1.9451  1.9319 -0.3471
  154SAPE  C31817179   1.535   5.161   7.981  0.1303 -1.0344  0.3250
  154SAPE  H18X17180   1.623   5.215   8.022 -0.7733  1.3870 -0.8462
  154SAPE  H18Y17181   1.530   5.156   7.870 -1.5933 -2.0394  0.4309
  154SAPE  H18Z17182   1.541   5.059   8.025  1.8255 -1.3688 -0.6614
  155SAPE     N17183   1.837   1.372   6.211  0.1855  0.4077  0.0843
  155SAPE   HN117184   1.791   1.320   6.133  1.2111  0.1938 -0.3890
  155SAPE   HN217185   1.757   1.401   6.271 -0.4964 -1.6811  0.2302
  155SAPE   HN317186   1.884   1.457   6.175  0.2295  0.5345  0.4375
  155SAPE   C1217187   1.927   1.279   6.297 -0.0314  0.0007 -0.3548
  155SAPE  H12A17188   2.026   1.258   6.251 -0.0879  0.2838 -0.6067
  155SAPE  H12B17189   1.882   1.178   6.304 -1.0758  0.4680 -0.1396
  155SAPE   C1117190   1.942   1.344   6.440  0.1078 -0.0157  0.7090
  155SAPE  H11A17191   2.051   1.362   6.451  0.0174 -0.0785  1.7205
  155SAPE  H11B17192   1.938   1.258   6.509  0.3225 -1.2221 -0.7662
  155SAPE     P17193   1.703   1.421   6.518  0.1145 -0.2842  0.0309
  155SAPE   O1317194   1.671   1.514   6.624  0.1943  1.0552 -0.7868
  155SAPE   O1417195   1.617   1.422   6.402 -0.0395  0.1679 -0.1593
  155SAPE   O1217196   1.849   1.446   6.469 -0.0411 -0.3077  0.4744
  155SAPE   O1117197   1.716   1.267   6.568 -0.0949 -0.6256  0.7280
  155SAPE    C117198   1.772   1.237   6.701  0.2478 -0.6236 -0.6918
  155SAPE    HA17199   1.858   1.167   6.692  0.9799 -0.1198  1.8901
  155SAPE    HB17200   1.802   1.327   6.759 -1.1512 -1.2239  1.0007
  155SAPE    C217201   1.675   1.167   6.790 -0.1368  0.0920  0.5545
  155SAPE    HS17202   1.708   1.174   6.896 -0.7598  1.9443  0.6515
  155SAPE   O2117203   1.656   1.026   6.763 -0.4496 -0.6014  0.1603
  155SAPE   C2117204   1.733   0.942   6.826 -0.6392  0.0946  1.6356
  155SAPE   O2217205   1.829   0.974   6.897  0.3415 -0.1847 -0.6165
  155SAPE   C2217206   1.674   0.804   6.797 -0.4051  0.9327 -0.5880
  155SAPE   H2R17207   1.566   0.799   6.822 -0.7893  0.8226 -2.2341
  155SAPE   H2S17208   1.678   0.790   6.687  0.5366  1.2065 -0.5954
  155SAPE    C317209   1.541   1.255   6.791  0.0417  0.0106 -0.6508
  155SAPE    HX17210   1.490   1.237   6.694 -2.2578  0.7116  0.3732
  155SAPE    HY17211   1.567   1.363   6.803  1.6542 -0.2543 -1.6766
  155SAPE   O3117212   1.438   1.213   6.887 -0.7066 -0.1324  0.1027
  155SAPE   C3117213   1.361   1.103   6.860  0.2994 -0.2444  0.4167
  155SAPE   O3217214   1.341   1.056   6.750  0.3386 -0.6149  0.1805
  155SAPE   C3217215   1.311   1.043   6.991  0.2136 -0.5856 -0.4345
  155SAPE   H2X17216   1.287   0.937   6.970 -1.8786  0.5146 -3.9919
  155SAPE   H2Y17217   1.227   1.109   7.021  0.3624 -1.9956  3.3504
  155SAPE   C2317218   1.757   0.685   6.866 -0.8854 -1.1639  0.2776
  155SAPE   H3R17219   1.864   0.712   6.865 -1.0475 -0.3858  2.0395
  155SAPE   H3S17220   1.733   0.592   6.810 -3.3636 -0.4191  0.0450
  155SAPE   C2417221   1.718   0.662   7.013 -0.4176  0.0865  0.1946
  155SAPE   H4R17222   1.610   0.687   7.011 -0.4154  0.0259 -1.0529
  155SAPE   H4S17223   1.764   0.740   7.078  0.3992  1.4318 -1.9359
  155SAPE   C2517224   1.736   0.521   7.057 -0.5129 -0.1245  0.3054
  155SAPE   H5R17225   1.692   0.445   6.991  0.6453 -0.2167 -0.3734
  155SAPE   C2617226   1.809   0.478   7.160 -0.3685  0.3707 -0.7393
  155SAPE   H6R17227   1.815   0.373   7.190 -0.6661  0.8511  1.0448
  155SAPE   C2717228   1.884   0.572   7.259  0.5819 -0.0433  0.1440
  155SAPE   H7R17229   1.927   0.656   7.201 -2.1130  1.2358 -0.0576
  155SAPE   H7S17230   1.969   0.517   7.306  2.7148  2.0978 -1.1079
  155SAPE   C2817231   1.793   0.635   7.359  0.5669  0.0226 -0.1485
  155SAPE   H8R17232   1.766   0.737   7.329  2.1095 -0.3987 -3.1486
  155SAPE   C2917233   1.758   0.590   7.476  0.3456 -0.1786  0.0180
  155SAPE   H9R17234   1.696   0.651   7.543 -0.4197  0.6228 -1.3889
  155SAPE  C21017235   1.798   0.458   7.538  0.2725  0.1957 -0.5319
  155SAPE  H10R17236   1.827   0.480   7.643  0.4872  2.0037 -0.9617
  155SAPE  H10S17237   1.888   0.411   7.492  0.9035  0.4694  0.4048
  155SAPE  C21117238   1.679   0.362   7.533  0.2936  0.0006  0.7518
  155SAPE  H11R17239   1.645   0.337   7.432  0.0921  1.4919  0.4382
  155SAPE  C21217240   1.618   0.286   7.639 -1.1022 -0.3650 -0.0985
  155SAPE  H12R17241   1.536   0.214   7.625  0.1131 -2.0103  0.8682
  155SAPE  C21317242   1.666   0.282   7.783  0.3660 -0.0610  0.1386
  155SAPE  H13R17243   1.770   0.314   7.804  1.3585 -1.1918 -2.8464
  155SAPE  H13S17244   1.653   0.177   7.819 -2.1894  0.1509 -0.0825
  155SAPE  C21417245   1.580   0.375   7.871  0.2215  0.4490  0.4616
  155SAPE  H14R17246   1.555   0.475   7.833 -1.4598 -0.2192 -0.2359
  155SAPE  C21517247   1.518   0.348   7.983 -0.9354 -0.4291 -0.4594
  155SAPE  H15R17248   1.463   0.426   8.037 -0.1799 -1.1800  1.4502
  155SAPE  C21617249   1.522   0.219   8.057  1.0445 -0.2168 -0.4273
  155SAPE  H16R17250   1.596   0.218   8.140 -0.7956 -1.8278  1.2647
  155SAPE  H16S17251   1.554   0.141   7.986 -0.0037  0.6588 -1.9017
  155SAPE  C21717252   1.391   0.196   8.138 -0.0088  0.0330  0.0941
  155SAPE  H17R17253   1.313   0.165   8.065  0.8709 -2.9720  0.3659
  155SAPE  H17S17254   1.354   0.283   8.196  0.1160  1.5731 -2.0443
  155SAPE  C21817255   1.413   0.096   8.255  0.1901  0.9409  0.2212
  155SAPE  H18R17256   1.465   0.144   8.341 -0.3877 -1.4307  1.9301
  155SAPE  H18S17257   1.492   0.025   8.221 -0.3893 -0.1598  1.1551
  155SAPE  C21917258   1.295   0.016   8.319 -0.4401 -0.2957  0.3605
  155SAPE  H19R17259   1.233   0.085   8.380  0.8447 -1.1386  2.6871
  155SAPE  H19S17260   1.343  -0.052   8.392 -0.7166  1.4980  2.2520
  155SAPE  C22017261   1.216  -0.062   8.214 -0.6920 -0.5590 -1.4351
  155SAPE  H20R17262   1.179  -0.156   8.260 -0.2242  0.1208  0.3607
  155SAPE  H20S17263   1.273  -0.077   8.120  1.4078  2.0952 -0.6699
  155SAPE  H20T17264   1.127  -0.006   8.179 -1.7083  1.0634  3.3383
  155SAPE   C3317265   1.423   1.033   7.102 -0.1434  0.3528  0.7852
  155SAPE   H3X17266   1.454   1.134   7.139 -0.5770  1.3868 -1.5777
  155SAPE   H3Y17267   1.512   0.974   7.070  0.6098  1.8102  0.0764
  155SAPE   C3417268   1.368   0.950   7.227 -0.1688 -0.7275  0.2355
  155SAPE   H4X17269   1.355   0.844   7.194 -0.4517 -0.1424 -1.5933
  155SAPE   H4Y17270   1.267   0.991   7.247 -0.1413 -0.6087  0.1279
  155SAPE   C3517271   1.455   0.969   7.360  0.0694 -0.3948 -0.5662
  155SAPE   H5X17272   1.446   1.074   7.394 -0.3050 -0.7799  0.5677
  155SAPE   H5Y17273   1.560   0.953   7.328  0.2927  1.1614 -0.6583
  155SAPE   C3617274   1.417   0.869   7.471  0.1885  0.4847  0.0841
  155SAPE   H6X17275   1.442   0.764   7.444 -0.4071  0.2023  0.6138
  155SAPE   H6Y17276   1.307   0.872   7.489  0.3044  1.8920  0.6529
  155SAPE   C3717277   1.500   0.879   7.594 -0.5450  0.3976  0.5771
  155SAPE   H7X17278   1.491   0.985   7.627 -1.0573  0.0412  1.5971
  155SAPE   H7Y17279   1.605   0.864   7.561 -0.3812  2.0877  0.2725
  155SAPE   C3817280   1.478   0.775   7.694  0.6195  0.0357 -0.5247
  155SAPE   H8X17281   1.497   0.673   7.656  2.3648 -0.1855  0.8576
  155SAPE   H8Y17282   1.370   0.783   7.720  1.1121 -2.5287  2.6331
  155SAPE   C3917283   1.551   0.780   7.833 -0.3099 -0.1498  0.0886
  155SAPE   H9X17284   1.505   0.706   7.901  0.3622 -0.0384  0.6787
  155SAPE   H9Y17285   1.531   0.881   7.875 -1.0034  0.2530 -1.1882
  155SAPE  C31017286   1.702   0.750   7.819  0.4276  0.2082 -0.0547
  155SAPE  H10X17287   1.742   0.808   7.733  0.3737 -0.5360 -0.5777
  155SAPE  H10Y17288   1.710   0.646   7.782  1.7704  0.3953 -0.3140
  155SAPE  C31117289   1.780   0.780   7.954 -0.3044  0.4341  0.0493
  155SAPE  H11X17290   1.768   0.882   7.995  3.8606  1.3356 -0.7410
  155SAPE  H11Y17291   1.888   0.786   7.928 -0.1986 -1.3789 -0.0277
  155SAPE  C31217292   1.769   0.656   8.055  0.3180  0.1550  0.2490
  155SAPE  H12X17293   1.828   0.574   8.009 -1.3354  1.0001 -3.6737
  155SAPE  H12Y17294   1.664   0.623   8.072  0.4730  0.2861  1.4887
  155SAPE  C31317295   1.819   0.718   8.188 -0.7990 -0.2848  0.5130
  155SAPE  H13X17296   1.752   0.798   8.224 -3.3416  0.0431 -4.5102
  155SAPE  H13Y17297   1.924   0.753   8.179 -0.5661 -1.0131  0.3655
  155SAPE  C31417298   1.813   0.612   8.295  0.3048  0.0361  0.3600
  155SAPE  H14X17299   1.875   0.529   8.256 -0.1163  0.1010 -0.4507
  155SAPE  H14Y17300   1.708   0.578   8.305 -1.1951  3.4134 -2.7844
  155SAPE  C31517301   1.860   0.675   8.426  0.0209 -0.3802 -0.5719
  155SAPE  H15X17302   1.783   0.750   8.454  1.9439  2.2619 -2.1212
  155SAPE  H15Y17303   1.955   0.732   8.419  0.0972 -0.4692 -0.2574
  155SAPE  C31617304   1.870   0.577   8.545  0.1684  0.1143 -0.1765
  155SAPE  H16X17305   1.943   0.505   8.502 -2.0053 -1.9119 -0.5993
  155SAPE  H16Y17306   1.770   0.529   8.553  0.3152 -0.1134  0.3131
  155SAPE  C31717307   1.925   0.633   8.675  0.3824  0.1578  0.5712
  155SAPE  H17X17308   2.007   0.706   8.659  1.0463 -0.3746  1.5356
  155SAPE  H17Y17309   1.957   0.544   8.733 -2.3333 -2.4958 -1.7810
  155SAPE  C31817310   1.823   0.720   8.742 -0.3332  0.4733 -0.3485
  155SAPE  H18X17311   1.860   0.768   8.834  1.0813 -1.1309 -0.0707
  155SAPE  H18Y17312   1.730   0.670   8.777 -1.1857  2.4471  0.3337
  155SAPE  H18Z17313   1.780   0.798   8.675 -1.9777  0.9915  1.2698
  156SAPE     N17314   6.521   1.130   6.469 -0.0533  0.6862 -0.2119
  156SAPE   HN117315   6.502   1.053   6.402  0.6704 -0.0765  0.4586
  156SAPE   HN217316   6.580   1.204   6.425 -0.9436  1.7829  0.3876
  156SAPE   HN317317   6.567   1.092   6.554  2.4113  1.2301 -1.2563
  156SAPE   C1217318   6.395   1.200   6.506 -0.1950 -0.2534  0.1239
  156SAPE  H12A17319   6.329   1.129   6.560 -1.4582  0.3932 -0.5544
  156SAPE  H12B17320   6.350   1.236   6.411  3.4323  0.0858 -1.5244
  156SAPE   C1117321   6.432   1.320   6.591 -0.6475 -0.2733  0.1848
  156SAPE  H11A17322   6.488   1.286   6.680  1.6078 -0.0871 -1.1299
  156SAPE  H11B17323   6.333   1.359   6.624  0.1348  3.0668 -1.2894
  156SAPE     P17324   6.507   1.564   6.554  0.1971  0.1649 -0.2756
  156SAPE   O1317325   6.507   1.647   6.433 -0.6405  0.2786 -0.4810
  156SAPE   O1417326   6.400   1.591   6.654  0.3133 -0.3484 -0.0142
  156SAPE   O1217327   6.505   1.415   6.507  0.6750 -0.4506  0.1476
  156SAPE   O1117328   6.646   1.578   6.627 -0.3823  0.5487 -0.1588
  156SAPE    C117329   6.714   1.475   6.692  0.3095 -0.5149  0.1385
  156SAPE    HA17330   6.705   1.390   6.621 -3.7626 -0.5262  0.5427
  156SAPE    HB17331   6.822   1.500   6.702  0.1133 -0.0691  1.1642
  156SAPE    C217332   6.665   1.435   6.844  0.9874 -0.4815 -0.7398
  156SAPE    HS17333   6.566   1.386   6.835  0.7738 -0.3266  0.6649
  156SAPE   O2117334   6.647   1.556   6.917 -0.8863 -0.0520 -0.4617
  156SAPE   C2117335   6.557   1.563   7.014 -0.1212 -0.1572  0.1221
  156SAPE   O2217336   6.488   1.472   7.047  0.1783  0.2481  0.2569
  156SAPE   C2217337   6.573   1.695   7.092  0.0528 -0.0106 -0.6192
  156SAPE   H2R17338   6.665   1.746   7.056 -0.3779 -0.6899 -2.7507
  156SAPE   H2S17339   6.478   1.745   7.062  0.9948  2.8129  0.9267
  156SAPE    C317340   6.768   1.343   6.923 -0.2526 -0.3758 -0.1371
  156SAPE    HX17341   6.868   1.393   6.918 -0.9143  0.9636 -0.3179
  156SAPE    HY17342   6.781   1.251   6.862 -2.5518 -0.9061  0.1533
  156SAPE   O3117343   6.737   1.316   7.063  0.2805 -0.6688 -0.0605
  156SAPE   C3117344   6.649   1.215   7.074 -0.2317 -0.0216 -0.4876
  156SAPE   O3217345   6.588   1.161   6.983 -0.5205  0.2415  0.3474
  156SAPE   C3217346   6.633   1.186   7.221  0.1748 -0.8071 -0.0596
  156SAPE   H2X17347   6.724   1.223   7.273  0.5887 -2.2540  0.2710
  156SAPE   H2Y17348   6.638   1.075   7.218 -0.2953 -0.8592  0.7655
  156SAPE   C2317349   6.559   1.689   7.251 -0.2029 -0.0663  0.3689
  156SAPE   H3R17350   6.483   1.620   7.293 -0.7429  0.6320  0.5473
  156SAPE   H3S17351   6.516   1.787   7.281  0.9999 -0.2872  2.9516
  156SAPE   C2417352   6.693   1.679   7.322  0.5970 -0.4978  0.0337
  156SAPE   H4R17353   6.669   1.700   7.428 -0.9375  0.6149 -0.5229
  156SAPE   H4S17354   6.768   1.755   7.291  2.2462 -1.5739  1.2986
  156SAPE   C2517355   6.767   1.553   7.302  0.6206 -0.3208  0.6309
  156SAPE   H5R17356   6.815   1.533   7.205  0.2198 -0.2889  0.4219
  156SAPE   C2617357   6.788   1.464   7.398  0.0785 -0.2764  0.9289
  156SAPE   H6R17358   6.849   1.375   7.379 -1.2073 -1.3685  1.8394
  156SAPE   C2717359   6.749   1.475   7.545  0.0772 -0.0857 -0.3071
  156SAPE   H7R17360   6.746   1.371   7.585 -0.8363 -0.2176 -0.7124
  156SAPE   H7S17361   6.651   1.524   7.562 -0.2898 -0.7915 -0.3995
  156SAPE   C2817362   6.862   1.554   7.612  0.1543 -0.0914 -0.0693
  156SAPE   H8R17363   6.966   1.531   7.585  0.4728 -1.4090  2.1682
  156SAPE   C2917364   6.852   1.651   7.707 -0.1979  0.4969  0.7708
  156SAPE   H9R17365   6.940   1.700   7.751  0.0116  0.4151  0.4418
  156SAPE  C21017366   6.719   1.698   7.768  0.4164 -0.0527  0.0789
  156SAPE  H10R17367   6.649   1.727   7.687  1.3817 -1.8863 -1.4359
  156SAPE  H10S17368   6.721   1.795   7.821 -2.1159  0.2180 -0.2225
  156SAPE  C21117369   6.661   1.596   7.870  0.1717  0.1487 -0.0129
  156SAPE  H11R17370   6.575   1.534   7.844  0.3921 -0.2574  0.2216
  156SAPE  C21217371   6.695   1.586   8.004 -0.6634  0.0262  0.3347
  156SAPE  H12R17372   6.652   1.507   8.067 -2.2689  1.1193  0.6432
  156SAPE  C21317373   6.801   1.670   8.074 -0.5793  0.1414  0.5559
  156SAPE  H13R17374   6.883   1.682   8.000 -2.6661 -0.5034 -1.9063
  156SAPE  H13S17375   6.848   1.610   8.155  2.4898  0.3140 -1.0263
  156SAPE  C21417376   6.755   1.806   8.130  1.0850  0.9079  1.0276
  156SAPE  H14R17377   6.700   1.875   8.064  2.4030 -0.0628 -1.1523
  156SAPE  C21517378   6.780   1.852   8.252  0.4224  0.3283  0.6121
  156SAPE  H15R17379   6.722   1.940   8.284 -0.6247 -0.1469  0.0670
  156SAPE  C21617380   6.855   1.776   8.357 -0.5308 -0.3457  0.4064
  156SAPE  H16R17381   6.841   1.666   8.348 -3.3843  0.0597 -0.4355
  156SAPE  H16S17382   6.815   1.799   8.458 -1.7544  0.7205 -0.3049
  156SAPE  C21717383   7.018   1.808   8.350 -0.2896  0.0545  0.1989
  156SAPE  H17R17384   7.054   1.800   8.246 -0.7784 -1.3626  0.1314
  156SAPE  H17S17385   7.071   1.726   8.403  1.8314  0.8919 -0.5714
  156SAPE  C21817386   7.055   1.942   8.407 -0.4345  0.9221 -1.0476
  156SAPE  H18R17387   6.985   2.012   8.357  0.4726  2.6474  0.0359
  156SAPE  H18S17388   7.160   1.958   8.376  0.0335 -0.4544 -0.2224
  156SAPE  C21917389   7.054   1.951   8.561 -0.9959 -0.1030  0.0870
  156SAPE  H19R17390   7.116   1.864   8.589  0.3818  0.4198 -1.3058
  156SAPE  H19S17391   6.951   1.935   8.602 -1.4839  1.0277 -0.6618
  156SAPE  C22017392   7.111   2.078   8.612 -0.7798 -0.4551 -0.0222
  156SAPE  H20R17393   7.071   2.157   8.545  1.2648 -0.5044 -1.3458
  156SAPE  H20S17394   7.218   2.095   8.586 -1.5203  1.4019 -1.9655
  156SAPE  H20T17395   7.091   2.105   8.718  0.4026 -1.5643  0.5025
  156SAPE   C3317396   6.506   1.243   7.289 -0.6439  0.2073  0.4752
  156SAPE   H3X17397   6.420   1.196   7.237  0.1496 -0.6213 -0.1090
  156SAPE   H3Y17398   6.502   1.353   7.275  0.8881  0.1841 -0.3062
  156SAPE   C3417399   6.505   1.218   7.443  0.2288 -0.0554 -0.4320
  156SAPE   H4X17400   6.403   1.244   7.479  0.5169  0.3069  0.1185
  156SAPE   H4Y17401   6.567   1.299   7.486  0.1717  0.3214 -1.0504
  156SAPE   C3517402   6.538   1.077   7.485  0.1905  0.2832 -0.4839
  156SAPE   H5X17403   6.635   1.040   7.445  0.3386 -0.8301  0.8277
  156SAPE   H5Y17404   6.462   1.003   7.451  1.5061 -0.7631 -1.2086
  156SAPE   C3617405   6.549   1.061   7.643 -0.2213  0.1422 -0.1237
  156SAPE   H6X17406   6.628   1.124   7.687 -1.9725  0.7851  2.1822
  156SAPE   H6Y17407   6.570   0.956   7.672  1.4378  0.2275 -0.9476
  156SAPE   C3717408   6.416   1.088   7.712 -0.4490  0.1472 -0.1681
  156SAPE   H7X17409   6.346   1.002   7.710 -0.5081  0.1875  0.2400
  156SAPE   H7Y17410   6.359   1.174   7.671  0.1266  0.5836 -0.0560
  156SAPE   C3817411   6.450   1.132   7.855  0.1724 -0.6987 -0.9880
  156SAPE   H8X17412   6.525   1.213   7.874  0.5276 -1.7413  2.2940
  156SAPE   H8Y17413   6.501   1.043   7.898 -1.2965 -1.0186  0.1121
  156SAPE   C3917414   6.329   1.171   7.942  0.3968  0.1350 -0.6250
  156SAPE   H9X17415   6.241   1.114   7.904 -0.6218 -0.2895  2.2309
  156SAPE   H9Y17416   6.291   1.276   7.940  0.8456  0.3132  0.0999
  156SAPE  C31017417   6.337   1.136   8.097  0.3205 -0.5774  0.0459
  156SAPE  H10X17418   6.417   1.196   8.144  0.2969 -0.9515  0.5712
  156SAPE  H10Y17419   6.377   1.033   8.085 -0.0508 -0.5257 -1.9404
  156SAPE  C31117420   6.198   1.139   8.170  0.9118 -0.1333  0.1529
  156SAPE  H11X17421   6.118   1.087   8.112  0.0809 -0.3496  1.4729
  156SAPE  H11Y17422   6.168   1.246   8.168  2.8156  0.4117 -1.1080
  156SAPE  C31217423   6.211   1.074   8.309  0.1016 -0.5189 -0.7744
  156SAPE  H12X17424   6.281   1.134   8.372 -1.3401 -0.1998  0.5412
  156SAPE  H12Y17425   6.243   0.968   8.303 -1.9946 -1.2392  0.3801
  156SAPE  C31317426   6.075   1.061   8.373 -0.1440 -0.2086  0.0896
  156SAPE  H13X17427   6.011   1.016   8.294 -1.2101 -2.4547  2.1764
  156SAPE  H13Y17428   6.026   1.159   8.393 -4.1182 -2.0439 -0.1650
  156SAPE  C31417429   6.074   0.968   8.496 -0.2088 -0.6037 -0.0624
  156SAPE  H14X17430   6.155   0.893   8.488 -0.5997 -0.7800 -2.6868
  156SAPE  H14Y17431   5.975   0.918   8.497 -0.0346 -1.1369 -3.9362
  156SAPE  C31517432   6.100   1.044   8.629  0.0658  0.8041  0.6123
  156SAPE  H15X17433   6.012   1.109   8.651 -0.0525  1.4879 -1.7292
  156SAPE  H15Y17434   6.188   1.109   8.611  2.3321 -1.7920  1.8659
  156SAPE  C31617435   6.128   0.944   8.734  0.2823  1.1329  0.0989
  156SAPE  H16X17436   6.225   0.895   8.713  0.1428  0.5287  0.8664
  156SAPE  H16Y17437   6.053   0.863   8.731  1.2994  0.1863  0.1141
  156SAPE  C31717438   6.143   0.993   8.876 -0.1086  0.2644  0.2634
  156SAPE  H17X17439   6.102   0.914   8.942  0.5929 -0.6453 -0.3895
  156SAPE  H17Y17440   6.080   1.082   8.900  0.0075  0.2938  0.4608
  156SAPE  C31817441   6.290   1.017   8.920  0.6336 -0.1601 -0.2414
  156SAPE  H18X17442   6.349   0.930   8.885  0.9662  0.5115 -1.3563
  156SAPE  H18Y17443   6.307   1.029   9.029  1.7689 -0.1877 -0.4142
  156SAPE  H18Z17444   6.329   1.101   8.859  0.5462 -1.6237 -2.3461
  157SAPE     N17445   3.272   2.538   6.608 -0.2952  0.2594 -0.0189
  157SAPE   HN117446   3.194   2.486   6.563  0.0024  0.6223 -0.9830
  157SAPE   HN217447   3.270   2.515   6.709  1.8213  2.4959  0.5960
  157SAPE   HN317448   3.276   2.642   6.603  1.2086  0.2540  0.8848
  157SAPE   C1217449   3.408   2.501   6.553 -0.4998 -0.0504  0.8705
  157SAPE  H12A17450   3.452   2.412   6.602 -0.3669 -0.8678 -0.7166
  157SAPE  H12B17451   3.474   2.587   6.578  0.8994 -1.1348  0.9212
  157SAPE   C1117452   3.400   2.483   6.404  0.5196 -0.1106 -0.1237
  157SAPE  H11A17453   3.334   2.397   6.383 -0.1131  0.3927 -0.2177
  157SAPE  H11B17454   3.502   2.448   6.378  0.4863 -0.2066 -0.1227
  157SAPE     P17455   3.441   2.632   6.203 -0.1171  0.3430 -0.0916
  157SAPE   O1317456   3.419   2.514   6.114  0.0536  0.2515  0.1871
  157SAPE   O1417457   3.389   2.769   6.163 -0.1250 -0.1319 -0.4763
  157SAPE   O1217458   3.363   2.602   6.338  0.1640  0.3477 -0.4019
  157SAPE   O1117459   3.590   2.645   6.247 -0.0012  0.1448 -0.6230
  157SAPE    C117460   3.642   2.731   6.353  0.3035  0.1238  0.0997
  157SAPE    HA17461   3.648   2.834   6.312 -3.2059  0.6293  0.7100
  157SAPE    HB17462   3.586   2.718   6.448  1.0711 -0.5280  0.4672
  157SAPE    C217463   3.779   2.672   6.402  0.2593  0.2228 -0.0647
  157SAPE    HS17464   3.855   2.669   6.320 -1.9018  0.5234 -2.1394
  157SAPE   O2117465   3.754   2.538   6.457 -0.6003 -0.3794  0.1097
  157SAPE   C2117466   3.860   2.461   6.475  0.4519  0.7008 -0.5124
  157SAPE   O2217467   3.976   2.503   6.459  0.3853  0.6006  0.0723
  157SAPE   C2217468   3.814   2.323   6.513  0.7816 -0.3902 -0.8431
  157SAPE   H2R17469   3.713   2.296   6.474  1.0707 -0.9977 -1.1635
  157SAPE   H2S17470   3.888   2.250   6.476  2.5454 -0.2043  2.1380
  157SAPE    C317471   3.832   2.768   6.518 -0.1321  0.3098 -0.5129
  157SAPE    HX17472   3.855   2.860   6.460  0.0987 -2.2180 -4.6424
  157SAPE    HY17473   3.928   2.724   6.552 -0.4542  0.0100  0.0125
  157SAPE   O3117474   3.726   2.790   6.626  0.4259  0.3890  0.5178
  157SAPE   C3117475   3.768   2.759   6.754  0.3801 -0.2951 -0.1528
  157SAPE   O3217476   3.873   2.696   6.771  0.1298  0.2819  0.4334
  157SAPE   C3217477   3.655   2.788   6.852  0.3738  0.4388 -0.1585
  157SAPE   H2X17478   3.585   2.869   6.822 -0.4131 -1.2636 -3.0889
  157SAPE   H2Y17479   3.702   2.820   6.948  0.6597 -1.0224  0.2003
  157SAPE   C2317480   3.816   2.302   6.672 -0.2306  0.5614  0.0117
  157SAPE   H3R17481   3.787   2.392   6.730 -0.7440  0.5202 -0.1717
  157SAPE   H3S17482   3.922   2.280   6.698 -0.1622  1.4618  0.5289
  157SAPE   C2417483   3.726   2.186   6.716  0.3917 -0.3664 -0.3522
  157SAPE   H4R17484   3.778   2.088   6.705  0.2346 -0.2667 -2.2561
  157SAPE   H4S17485   3.636   2.178   6.651  1.0328 -1.6273 -1.1080
  157SAPE   C2517486   3.680   2.206   6.854  0.7983  0.3711  0.1163
  157SAPE   H5R17487   3.604   2.285   6.864  1.1572  0.7661 -0.2472
  157SAPE   C2617488   3.721   2.133   6.961  0.2218  0.1249  0.3192
  157SAPE   H6R17489   3.686   2.170   7.059 -2.1889 -0.4936 -0.2641
  157SAPE   C2717490   3.817   2.021   6.961 -0.3880 -0.3761 -0.2109
  157SAPE   H7R17491   3.794   1.968   6.866  0.6965 -0.1746 -0.5903
  157SAPE   H7S17492   3.795   1.967   7.055  1.1231  0.1504  0.4616
  157SAPE   C2817493   3.964   2.050   6.962  0.0377 -0.0682  0.0139
  157SAPE   H8R17494   4.009   2.069   6.863 -0.0031 -0.4329 -0.0742
  157SAPE   C2917495   4.046   2.069   7.069  0.5005 -0.1135  0.2279
  157SAPE   H9R17496   4.154   2.083   7.057  0.5803 -1.0319 -0.1529
  157SAPE  C21017497   3.999   2.062   7.211  0.6487  0.4848  0.7890
  157SAPE  H10R17498   3.908   2.125   7.223  0.3686  0.2820 -0.1658
  157SAPE  H10S17499   4.076   2.107   7.276  1.6570 -0.1736  0.0536
  157SAPE  C21117500   3.969   1.920   7.270 -0.1301 -0.2872 -0.0974
  157SAPE  H11R17501   3.967   1.834   7.202  0.1832 -1.8157  1.7949
  157SAPE  C21217502   3.936   1.898   7.405  0.1890  0.3039 -0.1572
  157SAPE  H12R17503   3.931   1.791   7.429  3.3244 -0.5057 -2.7089
  157SAPE  C21317504   3.935   1.993   7.524  0.7126  0.1895  0.5069
  157SAPE  H13R17505   3.962   2.092   7.481  2.9806 -0.1317  1.1206
  157SAPE  H13S17506   4.012   1.951   7.592 -1.6677 -2.7413  1.5219
  157SAPE  C21417507   3.801   2.007   7.588  1.1697  0.9222 -1.3117
  157SAPE  H14R17508   3.715   2.021   7.522 -0.5544 -1.0160  0.4590
  157SAPE  C21517509   3.772   2.025   7.721  0.8993 -0.4403 -0.5024
  157SAPE  H15R17510   3.670   2.022   7.762  1.3965  0.8614  0.8984
  157SAPE  C21617511   3.868   2.042   7.833  0.1377 -0.1629  0.2527
  157SAPE  H16R17512   3.915   2.142   7.832 -0.3698  0.0763  0.0332
  157SAPE  H16S17513   3.954   1.973   7.826  0.0448 -0.1678 -0.9112
  157SAPE  C21717514   3.796   2.011   7.964 -0.4683 -0.7513 -0.4633
  157SAPE  H17R17515   3.881   1.998   8.035  0.3185 -0.5782 -1.3571
  157SAPE  H17S17516   3.735   1.918   7.962  0.3015 -1.2721 -0.2012
  157SAPE  C21817517   3.705   2.125   8.029 -0.6861 -0.1747 -0.4965
  157SAPE  H18R17518   3.639   2.147   7.942 -0.6123  0.0076 -0.5081
  157SAPE  H18S17519   3.774   2.210   8.048  0.3163 -1.1740  0.3926
  157SAPE  C21917520   3.636   2.069   8.145 -0.1518 -0.4522  0.0842
  157SAPE  H19R17521   3.700   2.045   8.232  1.0652  1.2239 -0.3236
  157SAPE  H19S17522   3.585   1.976   8.113 -1.3374  0.4259 -0.6351
  157SAPE  C22017523   3.521   2.164   8.195 -0.2001  0.3698 -0.0252
  157SAPE  H20R17524   3.564   2.258   8.235  0.1764 -0.0970  0.6755
  157SAPE  H20S17525   3.475   2.108   8.279 -1.0814 -2.1207 -2.0668
  157SAPE  H20T17526   3.455   2.189   8.109  0.3113 -0.5265 -0.6935
  157SAPE   C3317527   3.582   2.653   6.893  0.3044  0.0114 -0.0420
  157SAPE   H3X17528   3.571   2.596   6.798  1.2157  0.7150 -0.5712
  157SAPE   H3Y17529   3.483   2.673   6.940  0.2438 -0.4118  0.0159
  157SAPE   C3417530   3.672   2.570   6.981 -0.1748  0.5846 -0.2387
  157SAPE   H4X17531   3.772   2.546   6.940 -1.0751 -0.4719 -1.8959
  157SAPE   H4Y17532   3.620   2.472   6.988 -0.9405  0.8879 -1.4797
  157SAPE   C3517533   3.689   2.616   7.123 -0.0383 -0.2052  0.3158
  157SAPE   H5X17534   3.609   2.688   7.151 -0.6138 -1.6702  2.5501
  157SAPE   H5Y17535   3.784   2.669   7.143 -0.9217  0.7316  2.1505
  157SAPE   C3617536   3.687   2.504   7.226 -0.7449 -0.0642 -0.2860
  157SAPE   H6X17537   3.760   2.428   7.194 -2.4821 -0.7282 -2.8460
  157SAPE   H6Y17538   3.587   2.455   7.227  0.8299 -3.3645 -0.2076
  157SAPE   C3717539   3.741   2.535   7.374 -0.3201  0.1732 -0.7135
  157SAPE   H7X17540   3.658   2.579   7.433  0.3046  1.3928 -0.7353
  157SAPE   H7Y17541   3.823   2.609   7.378 -1.4990  1.3665  1.6348
  157SAPE   C3817542   3.774   2.402   7.445  0.6284 -0.3527  1.2017
  157SAPE   H8X17543   3.849   2.347   7.384  0.7727  1.1417  0.0117
  157SAPE   H8Y17544   3.679   2.346   7.460  1.6923 -1.8695  2.6003
  157SAPE   C3917545   3.838   2.423   7.588  0.2196 -0.0321 -0.3647
  157SAPE   H9X17546   3.935   2.477   7.581 -1.3666  2.9130 -0.4828
  157SAPE   H9Y17547   3.855   2.317   7.616 -1.6710  0.0690  1.2201
  157SAPE  C31017548   3.751   2.487   7.693  0.3151  0.0968  0.1140
  157SAPE  H10X17549   3.650   2.443   7.677  0.0278 -0.0224  2.0889
  157SAPE  H10Y17550   3.735   2.597   7.690 -2.4998 -0.2775  0.0464
  157SAPE  C31117551   3.793   2.439   7.835 -0.6358  0.3780 -0.4941
  157SAPE  H11X17552   3.815   2.330   7.829  0.2345  0.3709  2.1137
  157SAPE  H11Y17553   3.704   2.463   7.897 -0.0941 -1.3814  1.0373
  157SAPE  C31217554   3.913   2.509   7.891  0.0288  0.5281  0.3878
  157SAPE  H12X17555   3.883   2.616   7.895 -0.3912  0.3690  1.8093
  157SAPE  H12Y17556   3.989   2.484   7.814  0.6785 -0.3783  1.3077
  157SAPE  C31317557   3.961   2.443   8.028  0.2692 -0.0078  0.1837
  157SAPE  H13X17558   3.983   2.337   8.000  1.7151  0.0805  0.9709
  157SAPE  H13Y17559   3.884   2.445   8.108  1.0112  0.0305  0.8934
  157SAPE  C31417560   4.098   2.504   8.070  0.1671 -0.2665  0.0704
  157SAPE  H14X17561   4.086   2.612   8.091  2.4126  0.0998 -0.3376
  157SAPE  H14Y17562   4.163   2.494   7.980 -1.8547 -0.2053 -1.4162
  157SAPE  C31517563   4.165   2.424   8.187  0.4971 -0.2922  0.8971
  157SAPE  H15X17564   4.163   2.317   8.156  2.8707 -0.1245  0.0516
  157SAPE  H15Y17565   4.111   2.436   8.283 -0.6946 -0.6082  0.2732
  157SAPE  C31617566   4.313   2.463   8.206  0.1072  0.5685  0.1938
  157SAPE  H16X17567   4.361   2.445   8.108  0.4730  2.7344 -0.0317
  157SAPE  H16Y17568   4.363   2.401   8.284 -2.4466 -1.2214  0.4734
  157SAPE  C31717569   4.328   2.608   8.260 -0.6691  0.3925 -0.4759
  157SAPE  H17X17570   4.283   2.682   8.190 -1.8675  0.8732  0.7703
  157SAPE  H17Y17571   4.436   2.632   8.255 -0.2539 -1.1570  0.7100
  157SAPE  C31817572   4.278   2.617   8.401  0.1981  0.9194  0.0097
  157SAPE  H18X17573   4.325   2.546   8.472  0.6119  1.6301  0.4574
  157SAPE  H18Y17574   4.167   2.613   8.397  0.2661 -0.0914 -0.8640
  157SAPE  H18Z17575   4.312   2.716   8.439  0.7159  0.9634 -0.5620
  158SAPE     N17576   5.671   0.453   6.067  0.0074 -0.4087  0.2425
  158SAPE   HN117577   5.768   0.474   6.037 -0.2752 -0.1672 -0.5307
  158SAPE   HN217578   5.632   0.366   6.026 -0.9090 -0.3577  0.9732
  158SAPE   HN317579   5.611   0.531   6.030  0.4488 -0.4007 -0.4618
  158SAPE   C1217580   5.673   0.416   6.216  0.1302  0.1464  0.2214
  158SAPE  H12A17581   5.742   0.330   6.224 -0.7614 -0.5355  0.6721
  158SAPE  H12B17582   5.567   0.388   6.234 -0.1014  1.0879  0.3860
  158SAPE   C1117583   5.728   0.530   6.296  0.4916 -0.0711 -0.3029
  158SAPE  H11A17584   5.680   0.524   6.395  2.6330 -0.5387  0.7385
  158SAPE  H11B17585   5.706   0.630   6.253  0.7627  0.2593  0.3268
  158SAPE     P17586   5.960   0.630   6.375 -0.2059  0.1844  0.1260
  158SAPE   O1317587   6.101   0.590   6.375  1.0741  0.5466  0.3363
  158SAPE   O1417588   5.920   0.751   6.314 -0.3654 -0.0160  0.6183
  158SAPE   O1217589   5.876   0.506   6.311  0.9268  0.2871 -0.2410
  158SAPE   O1117590   5.909   0.617   6.522 -0.6151  0.2108 -0.2361
  158SAPE    C117591   5.933   0.494   6.595  0.8789 -0.0439 -0.0374
  158SAPE    HA17592   5.882   0.408   6.546  0.1503  0.8459 -0.8775
  158SAPE    HB17593   6.043   0.479   6.600  1.1805  1.8732 -0.3445
  158SAPE    C217594   5.887   0.510   6.751 -0.0648 -0.2137 -0.6926
  158SAPE    HS17595   5.926   0.425   6.811 -0.6835 -0.1662 -0.2120
  158SAPE   O2117596   5.742   0.513   6.766 -0.3970 -0.1321  0.3996
  158SAPE   C2117597   5.681   0.409   6.728 -1.2416 -0.3291 -0.1236
  158SAPE   O2217598   5.723   0.295   6.711 -0.3515  0.0625 -0.0453
  158SAPE   C2217599   5.527   0.436   6.729  0.2555 -0.5342 -0.4961
  158SAPE   H2R17600   5.505   0.513   6.653 -2.1892 -1.4710 -0.7745
  158SAPE   H2S17601   5.492   0.337   6.690 -2.6623 -0.2968  1.3881
  158SAPE    C317602   5.941   0.645   6.802 -0.3483  0.3227  0.4326
  158SAPE    HX17603   5.931   0.722   6.722  2.7217  0.0647 -0.2784
  158SAPE    HY17604   6.052   0.635   6.810 -0.6172 -3.1341  0.5283
  158SAPE   O3117605   5.880   0.697   6.921  0.3056  0.0935  0.1012
  158SAPE   C3117606   5.932   0.639   7.032  0.2663  0.2152 -0.5565
  158SAPE   O3217607   6.019   0.556   7.025 -0.1889  0.5032 -0.3085
  158SAPE   C3217608   5.871   0.683   7.163 -0.1243 -0.4768  0.1165
  158SAPE   H2X17609   5.791   0.606   7.165 -1.5267  0.9239 -0.4268
  158SAPE   H2Y17610   5.825   0.784   7.152 -0.9550 -0.9999 -1.3478
  158SAPE   C2317611   5.458   0.474   6.863  0.5024 -0.4781  0.3891
  158SAPE   H3R17612   5.360   0.516   6.829  0.8888  0.4798  0.4445
  158SAPE   H3S17613   5.522   0.552   6.910 -0.9842  0.1887  1.3665
  158SAPE   C2417614   5.440   0.358   6.959  0.3850 -0.7385  0.7142
  158SAPE   H4R17615   5.373   0.282   6.913  2.2904 -1.0725 -1.6132
  158SAPE   H4S17616   5.387   0.410   7.042  0.1350  2.0869 -1.1577
  158SAPE   C2517617   5.571   0.290   6.987  0.0664  1.0388  0.2634
  158SAPE   H5R17618   5.609   0.227   6.905  0.7705  0.1028  1.2876
  158SAPE   C2617619   5.644   0.312   7.098  0.2796 -0.3024  0.2572
  158SAPE   H6R17620   5.738   0.255   7.107  1.2606  1.2813  0.1018
  158SAPE   C2717621   5.609   0.407   7.211  0.2266 -0.0024  0.7476
  158SAPE   H7R17622   5.577   0.506   7.173  0.6353  1.1669  3.3464
  158SAPE   H7S17623   5.704   0.408   7.268  1.0671 -1.6069 -0.5831
  158SAPE   C2817624   5.493   0.353   7.299  0.2403 -0.2940 -0.7994
  158SAPE   H8R17625   5.412   0.307   7.240 -0.3673  3.4412 -3.0112
  158SAPE   C2917626   5.464   0.385   7.432 -0.0043  0.2214  0.7553
  158SAPE   H9R17627   5.385   0.322   7.475 -0.1174 -0.9928 -1.1388
  158SAPE  C21017628   5.546   0.476   7.521  0.3027 -0.7045  0.5178
  158SAPE  H10R17629   5.471   0.534   7.578 -0.1156 -2.2819  1.6138
  158SAPE  H10S17630   5.602   0.555   7.465 -2.0833  1.0490  0.5435
  158SAPE  C21117631   5.631   0.395   7.614 -0.8351  0.5837  0.1385
  158SAPE  H11R17632   5.688   0.314   7.565 -1.0829  1.0440 -0.9342
  158SAPE  C21217633   5.645   0.402   7.748 -0.0201 -0.3721  0.1268
  158SAPE  H12R17634   5.695   0.321   7.805 -0.1252  0.4741  1.4454
  158SAPE  C21317635   5.569   0.507   7.826  0.1595 -0.2453  0.2498
  158SAPE  H13R17636   5.460   0.503   7.807  0.5771  0.1593 -2.4007
  158SAPE  H13S17637   5.601   0.609   7.795 -0.3594  0.6459  2.5426
  158SAPE  C21417638   5.605   0.497   7.973  0.2141  0.0332 -0.4536
  158SAPE  H14R17639   5.705   0.454   7.992 -0.7164 -1.6920  0.7019
  158SAPE  C21517640   5.531   0.543   8.078  0.2089 -0.1753  0.6795
  158SAPE  H15R17641   5.561   0.542   8.184 -0.5864 -2.8741  0.9299
  158SAPE  C21617642   5.407   0.620   8.049 -0.2423  0.0994  0.0005
  158SAPE  H16R17643   5.351   0.628   8.145 -1.5102 -2.5845 -0.4508
  158SAPE  H16S17644   5.345   0.559   7.980 -0.9197 -0.1038  0.7739
  158SAPE  C21717645   5.435   0.764   8.004  0.1118 -0.3582 -1.0405
  158SAPE  H17R17646   5.339   0.788   7.954  0.1165  0.5848 -0.6071
  158SAPE  H17S17647   5.519   0.766   7.932  1.3183 -2.3279  0.2476
  158SAPE  C21817648   5.450   0.862   8.118 -0.1038 -0.2680  0.0533
  158SAPE  H18R17649   5.399   0.825   8.209 -2.4241  1.4126 -0.5226
  158SAPE  H18S17650   5.394   0.954   8.090  3.7968  1.9250 -1.1197
  158SAPE  C21917651   5.591   0.899   8.156  0.4819  0.2680  0.0957
  158SAPE  H19R17652   5.638   0.946   8.067 -1.2986  0.7091 -0.6488
  158SAPE  H19S17653   5.647   0.804   8.168  2.9984  1.5351 -1.0865
  158SAPE  C22017654   5.599   0.982   8.283  0.2334 -0.0534  0.3472
  158SAPE  H20R17655   5.557   0.924   8.367 -0.7275 -0.4640 -0.4039
  158SAPE  H20S17656   5.548   1.081   8.279  1.5106  0.7454  2.6872
  158SAPE  H20T17657   5.708   0.997   8.301  0.4694 -0.4131 -0.7148
  158SAPE   C3317658   5.960   0.675   7.282  0.1840  0.5049  0.0391
  158SAPE   H3X17659   6.033   0.759   7.283  0.0968  0.5818  0.0254
  158SAPE   H3Y17660   6.017   0.580   7.277  1.4736  1.2745 -0.0124
  158SAPE   C3417661   5.879   0.689   7.413  0.2313  0.1164  0.4021
  158SAPE   H4X17662   5.817   0.600   7.438 -0.5542  0.8632  1.1191
  158SAPE   H4Y17663   5.816   0.779   7.399  0.5645  0.3040  0.0963
  158SAPE   C3517664   5.958   0.698   7.539  0.1150 -0.0774  0.0260
  158SAPE   H5X17665   6.036   0.776   7.532  1.4020 -1.1164  2.2574
  158SAPE   H5Y17666   6.006   0.599   7.550 -0.0134 -0.1427  0.0006
  158SAPE   C3617667   5.873   0.708   7.658 -0.7002 -0.5915 -1.1046
  158SAPE   H6X17668   5.824   0.613   7.684 -0.2786 -0.2186  1.1397
  158SAPE   H6Y17669   5.791   0.780   7.637 -1.4102 -1.2591 -0.5925
  158SAPE   C3717670   5.942   0.766   7.783  0.1401  0.0163  0.0795
  158SAPE   H7X17671   6.047   0.783   7.751  0.3263 -1.4467 -0.1349
  158SAPE   H7Y17672   5.895   0.865   7.802 -0.4068 -0.5266  1.6504
  158SAPE   C3817673   5.930   0.677   7.901  0.4902 -0.7910  0.6209
  158SAPE   H8X17674   5.915   0.570   7.877  0.6844 -0.9716  1.3112
  158SAPE   H8Y17675   5.849   0.705   7.971  1.4413 -1.1889  1.8882
  158SAPE   C3917676   6.061   0.682   7.984 -0.5997 -0.2648 -0.0969
  158SAPE   H9X17677   6.081   0.789   8.002  1.2403 -0.5087 -0.6280
  158SAPE   H9Y17678   6.146   0.642   7.925 -0.7523  0.3884 -0.7611
  158SAPE  C31017679   6.061   0.600   8.110  0.1078 -0.2939 -0.5236
  158SAPE  H10X17680   6.042   0.491   8.105  2.0627 -0.6617 -0.2073
  158SAPE  H10Y17681   5.985   0.638   8.182 -0.0538  0.6419 -1.1783
  158SAPE  C31117682   6.198   0.613   8.178  0.0362 -0.1973  0.5926
  158SAPE  H11X17683   6.240   0.713   8.157  0.0744 -0.2726  0.3146
  158SAPE  H11Y17684   6.254   0.527   8.135  0.3879  0.4635 -0.2721
  158SAPE  C31217685   6.187   0.595   8.328  0.0200  0.6520  0.0859
  158SAPE  H12X17686   6.134   0.682   8.372 -0.4327  0.9377 -0.9971
  158SAPE  H12Y17687   6.287   0.610   8.375 -0.1979 -0.6655  0.9894
  158SAPE  C31317688   6.116   0.462   8.372  0.4877 -0.0920 -0.3566
  158SAPE  H13X17689   6.175   0.375   8.337 -1.7326 -0.7372 -2.5759
  158SAPE  H13Y17690   6.011   0.445   8.340  0.1185  0.9723  0.2547
  158SAPE  C31417691   6.113   0.453   8.523  0.4722  0.0426 -0.0257
  158SAPE  H14X17692   6.081   0.553   8.559 -0.6387 -0.4922  0.4919
  158SAPE  H14Y17693   6.219   0.460   8.557  0.0435  2.3676  0.9163
  158SAPE  C31517694   6.050   0.330   8.591  0.1576 -0.5576  0.7188
  158SAPE  H15X17695   6.046   0.341   8.702  4.9925  0.1918  0.9388
  158SAPE  H15Y17696   6.109   0.237   8.573 -0.6388 -0.9730  0.2387
  158SAPE  C31617697   5.906   0.289   8.541 -0.3185 -0.2090 -0.6139
  158SAPE  H16X17698   5.924   0.221   8.454 -2.2685 -2.7801  0.8974
  158SAPE  H16Y17699   5.858   0.385   8.513  0.7562 -0.1028 -2.1989
  158SAPE  C31717700   5.822   0.215   8.649 -0.4728 -0.3449 -0.5006
  158SAPE  H17X17701   5.730   0.162   8.614 -0.2898 -2.5787  2.2978
  158SAPE  H17Y17702   5.797   0.300   8.716  2.0743  1.2178 -1.4645
  158SAPE  C31817703   5.893   0.111   8.732 -0.7665  0.1639  0.3413
  158SAPE  H18X17704   5.973   0.157   8.795 -0.5197  1.1008 -0.6510
  158SAPE  H18Y17705   5.931   0.022   8.679  0.7809  0.4375  0.9668
  158SAPE  H18Z17706   5.822   0.075   8.810  0.8790  1.1685  2.3488
  159SAPE     N17707   4.495   3.319   5.895 -0.2689 -0.9817  0.0950
  159SAPE   HN117708   4.459   3.284   5.804  1.0412 -2.0330 -0.0188
  159SAPE   HN217709   4.598   3.328   5.886 -0.1833 -1.2879  0.7831
  159SAPE   HN317710   4.482   3.246   5.967  1.1255 -1.4980 -0.1743
  159SAPE   C1217711   4.437   3.455   5.946 -0.1225 -0.3783 -0.1730
  159SAPE  H12A17712   4.337   3.445   5.993  1.1434  0.0718  2.7201
  159SAPE  H12B17713   4.442   3.534   5.868 -4.3917 -0.5197 -0.7189
  159SAPE   C1117714   4.528   3.507   6.055 -0.7090  0.5530  0.2523
  159SAPE  H11A17715   4.502   3.442   6.142  2.4510  0.4762  1.1897
  159SAPE  H11B17716   4.502   3.613   6.071  2.3623  1.2640  0.9049
  159SAPE     P17717   4.768   3.552   6.119 -0.3057  0.0321 -0.2584
  159SAPE   O1317718   4.904   3.531   6.067  0.2769  0.1896  0.0783
  159SAPE   O1417719   4.733   3.691   6.153  0.1430 -0.7040  0.7937
  159SAPE   O1217720   4.668   3.491   6.018 -0.3853  0.2095  0.0973
  159SAPE   O1117721   4.749   3.462   6.242 -0.1522  0.1053  0.2127
  159SAPE    C117722   4.757   3.319   6.238  0.2003 -0.4690 -0.9453
  159SAPE    HA17723   4.657   3.270   6.233  0.6905 -1.6656  0.7532
  159SAPE    HB17724   4.825   3.289   6.155  3.4354  2.7536  0.4168
  159SAPE    C217725   4.831   3.266   6.363 -0.0684 -0.1589  0.2766
  159SAPE    HS17726   4.846   3.156   6.353  2.3626 -0.0672  2.6323
  159SAPE   O2117727   4.770   3.292   6.490 -0.3917 -0.5821  0.2801
  159SAPE   C2117728   4.644   3.243   6.511 -0.5927  0.3516  0.4655
  159SAPE   O2217729   4.583   3.172   6.435  0.7422  0.6784 -0.1405
  159SAPE   C2217730   4.590   3.275   6.644  0.2429  0.3795  0.2396
  159SAPE   H2R17731   4.647   3.356   6.696  3.3029 -0.5646 -1.5137
  159SAPE   H2S17732   4.483   3.305   6.640 -0.6514 -2.7374 -0.6873
  159SAPE    C317733   4.981   3.322   6.371  0.2209 -0.2717  0.5411
  159SAPE    HX17734   4.976   3.429   6.341 -0.3039  0.2251  2.3225
  159SAPE    HY17735   5.023   3.266   6.285  1.9160 -1.3298  2.0164
  159SAPE   O3117736   5.047   3.285   6.496 -0.2465 -0.1531 -0.1835
  159SAPE   C3117737   5.062   3.388   6.578  0.1710 -0.4159 -0.2513
  159SAPE   O3217738   5.012   3.499   6.563  0.0821  0.2635 -1.0919
  159SAPE   C3217739   5.157   3.345   6.696  0.3225  0.1878  0.8075
  159SAPE   H2X17740   5.205   3.438   6.732  0.5177  1.3692 -2.3732
  159SAPE   H2Y17741   5.236   3.278   6.654 -0.3785 -1.5741  2.2102
  159SAPE   C2317742   4.596   3.145   6.730 -0.0260 -0.5915 -0.1627
  159SAPE   H3R17743   4.553   3.062   6.670 -1.0077  1.2630 -2.0922
  159SAPE   H3S17744   4.531   3.146   6.820  2.6597  1.4850  1.8322
  159SAPE   C2417745   4.744   3.110   6.769 -0.5271  0.6148 -0.4665
  159SAPE   H4R17746   4.773   3.162   6.863  0.9485 -2.7895  1.0517
  159SAPE   H4S17747   4.819   3.136   6.692 -1.3027 -1.3859 -1.9521
  159SAPE   C2517748   4.757   2.961   6.804 -0.0837  0.2732  0.6503
  159SAPE   H5R17749   4.783   2.891   6.723 -2.0629  0.6724 -0.3475
  159SAPE   C2617750   4.726   2.909   6.925 -0.5099  0.2521 -0.5039
  159SAPE   H6R17751   4.748   2.802   6.934  2.4577  0.7903 -0.8340
  159SAPE   C2717752   4.676   2.983   7.048 -1.0461 -0.1469 -0.4483
  159SAPE   H7R17753   4.647   3.090   7.036  0.6650  0.5537  1.3261
  159SAPE   H7S17754   4.768   2.991   7.110 -0.7302  0.7449 -1.0220
  159SAPE   C2817755   4.568   2.912   7.124  0.6406  0.3041 -0.5053
  159SAPE   H8R17756   4.478   2.879   7.070  0.0728  0.5916  0.2660
  159SAPE   C2917757   4.574   2.877   7.255  0.4586 -0.2714  0.6614
  159SAPE   H9R17758   4.480   2.830   7.288 -0.6774  0.1199 -1.9236
  159SAPE  C21017759   4.681   2.889   7.365 -0.2006  0.0098  0.3463
  159SAPE  H10R17760   4.781   2.863   7.325  0.7448 -1.1860  3.3769
  159SAPE  H10S17761   4.673   2.805   7.437  0.3550 -0.3941 -0.0599
  159SAPE  C21117762   4.674   3.025   7.421  0.1602 -0.4274  0.3917
  159SAPE  H11R17763   4.689   3.103   7.345 -1.4930  1.1893  1.6826
  159SAPE  C21217764   4.664   3.063   7.553 -0.2948  0.4529  0.0944
  159SAPE  H12R17765   4.677   3.170   7.572 -0.6332  0.8153 -1.6383
  159SAPE  C21317766   4.654   2.973   7.674  0.7893 -0.9003 -0.0388
  159SAPE  H13R17767   4.711   3.010   7.762  1.0144 -0.2659 -0.4519
  159SAPE  H13S17768   4.674   2.868   7.644  0.2596 -0.8441 -0.5878
  159SAPE  C21417769   4.512   2.974   7.727  0.8364  0.7711 -0.7703
  159SAPE  H14R17770   4.437   3.024   7.663 -1.5250 -0.1801  1.1835
  159SAPE  C21517771   4.472   2.917   7.840  0.0339 -0.2415 -0.4453
  159SAPE  H15R17772   4.363   2.916   7.857 -0.3512  1.8181 -2.5789
  159SAPE  C21617773   4.548   2.842   7.947 -0.1122 -0.4989 -0.0505
  159SAPE  H16R17774   4.494   2.864   8.041 -1.1783 -1.0409 -0.5331
  159SAPE  H16S17775   4.651   2.884   7.953  0.5448 -2.2700  1.4325
  159SAPE  C21717776   4.549   2.683   7.934 -0.1759  0.3329 -0.3094
  159SAPE  H17R17777   4.441   2.660   7.941  0.4036 -2.6161 -0.7703
  159SAPE  H17S17778   4.597   2.629   8.018  0.1597 -0.3625 -0.9410
  159SAPE  C21817779   4.610   2.623   7.805  0.1446  0.0910 -0.0690
  159SAPE  H18R17780   4.643   2.523   7.842  1.6921  0.1663 -1.1862
  159SAPE  H18S17781   4.708   2.669   7.779  0.0890  1.3305  1.8596
  159SAPE  C21917782   4.519   2.600   7.681 -0.4870  0.1040 -0.0346
  159SAPE  H19R17783   4.523   2.691   7.617  1.1535  0.3246  0.3627
  159SAPE  H19S17784   4.415   2.575   7.713 -0.6846 -0.0809 -0.8056
  159SAPE  C22017785   4.571   2.488   7.593  0.3471 -0.1907 -1.1863
  159SAPE  H20R17786   4.577   2.385   7.635 -1.7160  0.1004 -0.1127
  159SAPE  H20S17787   4.676   2.517   7.569  1.1773 -3.2500 -1.4666
  159SAPE  H20T17788   4.515   2.476   7.498 -0.4075  2.6809 -1.1450
  159SAPE   C3317789   5.091   3.279   6.815  0.5861  1.0565  0.7194
  159SAPE   H3X17790   5.170   3.244   6.885  0.1841 -1.5258 -0.0980
  159SAPE   H3Y17791   5.032   3.192   6.782  2.8570 -0.9125  1.7153
  159SAPE   C3417792   4.987   3.355   6.910  0.9002 -0.3332 -0.8784
  159SAPE   H4X17793   4.895   3.350   6.848 -0.3623 -2.0378  1.0788
  159SAPE   H4Y17794   5.013   3.462   6.924  0.3878 -0.4823  1.3538
  159SAPE   C3517795   4.971   3.288   7.048  0.0469  0.4605  0.2842
  159SAPE   H5X17796   4.990   3.179   7.037  1.7118  0.6317  1.2872
  159SAPE   H5Y17797   4.868   3.303   7.087  0.2681 -0.0230  1.0652
  159SAPE   C3617798   5.084   3.334   7.146  1.0560  0.3344  0.1052
  159SAPE   H6X17799   5.072   3.443   7.159 -0.1785  0.3943 -1.3905
  159SAPE   H6Y17800   5.178   3.313   7.091  0.9441  0.9425 -0.3184
  159SAPE   C3717801   5.075   3.279   7.288  0.4822  0.7046 -0.3864
  159SAPE   H7X17802   5.182   3.278   7.316 -0.2941  0.0142  2.8672
  159SAPE   H7Y17803   5.039   3.174   7.292  0.3338  0.8120  2.4785
  159SAPE   C3817804   4.994   3.356   7.401 -0.6857 -0.2974  0.0615
  159SAPE   H8X17805   4.894   3.370   7.355 -1.2962  0.5597  1.6131
  159SAPE   H8Y17806   5.037   3.457   7.419  0.2642 -0.8051  0.7385
  159SAPE   C3917807   4.982   3.270   7.533  0.2338 -0.3100 -0.2883
  159SAPE   H9X17808   5.072   3.207   7.551 -0.8228 -1.0639  2.6229
  159SAPE   H9Y17809   4.888   3.211   7.522  0.5639 -0.6853 -1.1289
  159SAPE  C31017810   4.948   3.362   7.648 -0.1601  0.2407  0.1242
  159SAPE  H10X17811   4.876   3.437   7.611 -1.1665 -0.4326  0.7062
  159SAPE  H10Y17812   5.045   3.407   7.678  0.1839  0.3468 -1.1117
  159SAPE  C31117813   4.886   3.302   7.773  0.0250  0.6025 -0.0876
  159SAPE  H11X17814   4.955   3.220   7.801  0.8536  1.0514 -0.7878
  159SAPE  H11Y17815   4.800   3.241   7.740  0.6235 -0.4536  0.2899
  159SAPE  C31217816   4.871   3.389   7.892 -0.1622 -0.1142  0.1847
  159SAPE  H12X17817   4.787   3.461   7.876 -0.7456 -0.6889  0.6232
  159SAPE  H12Y17818   4.971   3.436   7.903 -0.5427  0.2016  2.7348
  159SAPE  C31317819   4.856   3.300   8.016  0.3336 -0.4602  0.1678
  159SAPE  H13X17820   4.896   3.350   8.106 -3.4561  1.1967  1.0658
  159SAPE  H13Y17821   4.912   3.205   8.008  2.7583  0.8213  1.3823
  159SAPE  C31417822   4.706   3.278   8.046 -0.4158  0.2246  0.3046
  159SAPE  H14X17823   4.654   3.246   7.953  1.5829  1.2574 -1.1969
  159SAPE  H14Y17824   4.655   3.373   8.074 -0.9139 -0.4786  1.8394
  159SAPE  C31517825   4.673   3.170   8.149  0.3846  0.2727  0.3805
  159SAPE  H15X17826   4.754   3.171   8.225 -0.2311  0.2207  1.0381
  159SAPE  H15Y17827   4.685   3.073   8.096  2.4922  0.6468  0.0954
  159SAPE  C31617828   4.533   3.186   8.210  0.1623 -0.4938  0.0669
  159SAPE  H16X17829   4.546   3.271   8.280  0.8579  0.2525 -0.9594
  159SAPE  H16Y17830   4.504   3.099   8.273  1.2785 -1.5813 -0.9094
  159SAPE  C31717831   4.417   3.205   8.118 -0.3387 -0.2977 -0.2352
  159SAPE  H17X17832   4.410   3.119   8.047  0.1885  0.5115 -1.2742
  159SAPE  H17Y17833   4.438   3.293   8.054 -1.0614 -1.5098 -2.1838
  159SAPE  C31817834   4.288   3.214   8.191 -0.3454 -0.3348 -0.1820
  159SAPE  H18X17835   4.281   3.303   8.257 -0.2235  1.0761 -2.0278
  159SAPE  H18Y17836   4.286   3.122   8.252 -1.2647 -1.3717 -1.7508
  159SAPE  H18Z17837   4.198   3.226   8.127 -0.2545 -2.0319 -0.6423
  160SAPE     N17838   5.739   2.310   6.250  0.1651 -0.2953 -0.0969
  160SAPE   HN117839   5.819   2.328   6.314 -0.0783 -0.4177  0.2436
  160SAPE   HN217840   5.780   2.255   6.171 -0.7011 -2.0403  0.6494
  160SAPE   HN317841   5.698   2.402   6.224 -0.7692 -0.8094 -0.4532
  160SAPE   C1217842   5.640   2.232   6.331  1.2030 -0.7716 -0.0537
  160SAPE  H12A17843   5.584   2.168   6.261 -1.5860  1.5028 -0.0107
  160SAPE  H12B17844   5.576   2.303   6.388  0.6542 -1.8841  0.7459
  160SAPE   C1117845   5.720   2.140   6.430  0.4619  0.6148 -0.2991
  160SAPE  H11A17846   5.657   2.066   6.484  1.8015  0.9961  1.8270
  160SAPE  H11B17847   5.764   2.199   6.513 -1.1072  2.5146 -0.7781
  160SAPE     P17848   5.817   1.930   6.300  0.1236  0.0425 -0.1298
  160SAPE   O1317849   5.732   1.940   6.186  0.5195  0.3474  0.0466
  160SAPE   O1417850   5.954   1.868   6.274  0.0678  0.1786 -0.2505
  160SAPE   O1217851   5.820   2.072   6.362  0.7899 -0.2959 -0.2485
  160SAPE   O1117852   5.743   1.851   6.411 -0.0605 -0.5940  0.0144
  160SAPE    C117853   5.829   1.776   6.505  0.1722  0.5637  0.4168
  160SAPE    HA17854   5.896   1.707   6.448 -1.6160  0.5458 -1.7416
  160SAPE    HB17855   5.890   1.848   6.563  3.5861 -0.9598 -1.1185
  160SAPE    C217856   5.740   1.703   6.607  0.5984  0.2129 -0.3694
  160SAPE    HS17857   5.663   1.643   6.553  2.4320 -3.0038  0.4944
  160SAPE   O2117858   5.670   1.804   6.680  0.1287  0.0120 -0.4319
  160SAPE   C2117859   5.568   1.761   6.742 -0.3165  0.2792 -0.6263
  160SAPE   O2217860   5.519   1.647   6.745 -0.3378  0.0136 -0.8684
  160SAPE   C2217861   5.508   1.884   6.825 -0.1824 -0.7173  0.1832
  160SAPE   H2R17862   5.596   1.930   6.874 -0.7928  2.6981 -1.7137
  160SAPE   H2S17863   5.472   1.951   6.744 -2.8197 -1.9878  0.2367
  160SAPE    C317864   5.825   1.620   6.703 -0.3748 -0.4321 -0.0522
  160SAPE    HX17865   5.867   1.536   6.643  0.5468 -0.1999  0.2586
  160SAPE    HY17866   5.752   1.576   6.775 -0.6931  1.2683  0.6732
  160SAPE   O3117867   5.936   1.681   6.765  0.1255 -0.3086 -0.0356
  160SAPE   C3117868   5.910   1.752   6.869 -0.6059  0.6158  0.3136
  160SAPE   O3217869   5.807   1.773   6.926  0.7869 -0.5093  0.4414
  160SAPE   C3217870   6.041   1.802   6.926  0.1130 -0.4435 -0.9750
  160SAPE   H2X17871   6.049   1.910   6.902 -1.8681  0.2131  1.1432
  160SAPE   H2Y17872   6.125   1.768   6.862  0.5398 -2.0848  0.4022
  160SAPE   C2317873   5.405   1.869   6.932 -0.3312  0.8914 -0.6638
  160SAPE   H3R17874   5.322   1.807   6.892  0.5361  0.7269 -2.2799
  160SAPE   H3S17875   5.362   1.971   6.944  0.0197  0.9247  0.3207
  160SAPE   C2417876   5.464   1.796   7.058  0.3309  0.1020 -0.0562
  160SAPE   H4R17877   5.542   1.861   7.105  2.0976 -1.6396 -0.5111
  160SAPE   H4S17878   5.506   1.700   7.022  1.0855  0.7170 -0.8436
  160SAPE   C2517879   5.362   1.773   7.168 -1.4490 -0.4303  0.6015
  160SAPE   H5R17880   5.295   1.691   7.139 -1.5706 -0.2158  0.2729
  160SAPE   C2617881   5.335   1.837   7.281 -0.3443 -0.2623  0.2512
  160SAPE   H6R17882   5.268   1.783   7.349 -1.0421  1.3046  0.8261
  160SAPE   C2717883   5.407   1.956   7.339 -0.5693 -0.3047 -0.1091
  160SAPE   H7R17884   5.418   2.029   7.256  2.3416  1.9173  2.1443
  160SAPE   H7S17885   5.515   1.937   7.353 -1.0284 -2.9827  0.1933
  160SAPE   C2817886   5.334   2.029   7.447 -0.2623  0.3930 -0.1812
  160SAPE   H8R17887   5.245   1.972   7.476  0.7638 -0.3447  1.5566
  160SAPE   C2917888   5.361   2.156   7.491  0.0308  0.1669 -0.3354
  160SAPE   H9R17889   5.299   2.188   7.576 -0.3613  1.4098 -1.0754
  160SAPE  C21017890   5.472   2.249   7.448  0.6880  0.5939 -0.0268
  160SAPE  H10R17891   5.498   2.234   7.341 -1.8896 -1.5501 -0.3893
  160SAPE  H10S17892   5.565   2.220   7.502 -0.5213 -1.7116  0.8376
  160SAPE  C21117893   5.441   2.387   7.481 -0.6892 -0.0702 -0.5784
  160SAPE  H11R17894   5.393   2.441   7.399 -0.4711 -1.8149 -1.8794
  160SAPE  C21217895   5.452   2.454   7.599 -0.1044  0.0125 -0.3120
  160SAPE  H12R17896   5.425   2.560   7.596  1.1288  0.4130  1.6057
  160SAPE  C21317897   5.503   2.389   7.728 -1.0585 -0.3322 -0.1724
  160SAPE  H13R17898   5.472   2.284   7.743  1.4778 -0.9622  0.9312
  160SAPE  H13S17899   5.448   2.453   7.800  0.4467  0.5401  0.2295
  160SAPE  C21417900   5.651   2.394   7.737  0.0048 -0.3094  0.2075
  160SAPE  H14R17901   5.701   2.365   7.644 -3.4399 -1.3217 -1.4222
  160SAPE  C21517902   5.716   2.395   7.856 -0.6833  0.8032  0.7971
  160SAPE  H15R17903   5.824   2.414   7.861 -0.6025  0.8859 -0.9670
  160SAPE  C21617904   5.645   2.388   7.987  0.7982  0.3467  0.7018
  160SAPE  H16R17905   5.553   2.325   7.987 -1.2992  3.3008  0.7558
  160SAPE  H16S17906   5.594   2.485   8.003 -0.7345  0.0273 -1.9289
  160SAPE  C21717907   5.738   2.356   8.100  0.3499 -0.9214 -0.4529
  160SAPE  H17R17908   5.821   2.427   8.117  0.3934 -0.9710 -0.4575
  160SAPE  H17S17909   5.777   2.253   8.085  0.6791 -0.4839 -2.8434
  160SAPE  C21817910   5.650   2.351   8.220 -0.6479 -0.6769 -0.4891
  160SAPE  H18R17911   5.564   2.285   8.196 -1.0309 -0.3941  0.0902
  160SAPE  H18S17912   5.602   2.448   8.245 -3.7345 -2.0970 -0.7454
  160SAPE  C21917913   5.726   2.310   8.349  0.4863  0.3700  0.0834
  160SAPE  H19R17914   5.778   2.214   8.333  0.8998  0.7601 -0.9314
  160SAPE  H19S17915   5.653   2.295   8.432  1.3403 -0.7470  0.6390
  160SAPE  C22017916   5.820   2.417   8.406 -0.4263  0.1174 -1.0680
  160SAPE  H20R17917   5.773   2.517   8.418 -0.8170 -0.0818 -0.9147
  160SAPE  H20S17918   5.910   2.436   8.345  0.8984  1.3846  1.2179
  160SAPE  H20T17919   5.855   2.393   8.509 -2.5145  1.7355  0.0742
  160SAPE   C3317920   6.063   1.765   7.080 -0.3854 -0.2171  0.4795
  160SAPE   H3X17921   5.982   1.813   7.139 -1.1171  0.1757 -0.8238
  160SAPE   H3Y17922   6.162   1.808   7.107 -0.0131 -0.7611 -0.0047
  160SAPE   C3417923   6.076   1.612   7.117  0.2541  0.2693  0.3275
  160SAPE   H4X17924   6.171   1.581   7.069  0.6238  1.6264  0.1443
  160SAPE   H4Y17925   5.994   1.564   7.059 -1.0243 -1.3273  3.3858
  160SAPE   C3517926   6.078   1.568   7.265 -0.1631  0.3599  0.3460
  160SAPE   H5X17927   6.072   1.457   7.260 -1.1246  0.4752 -1.6391
  160SAPE   H5Y17928   5.990   1.611   7.318  0.8674 -1.2388  3.4426
  160SAPE   C3617929   6.205   1.603   7.332 -0.2421  0.2080 -0.1656
  160SAPE   H6X17930   6.234   1.710   7.325 -0.7674  0.4298  0.9386
  160SAPE   H6Y17931   6.293   1.546   7.296 -0.0640  0.9220 -0.8669
  160SAPE   C3717932   6.202   1.578   7.484  0.1452  0.6472  0.7270
  160SAPE   H7X17933   6.147   1.487   7.514 -0.7250  0.9653  0.1118
  160SAPE   H7Y17934   6.145   1.663   7.525  1.0077  1.7658 -0.3307
  160SAPE   C3817935   6.336   1.575   7.556  0.2987  0.2585 -0.1541
  160SAPE   H8X17936   6.384   1.675   7.555 -1.0081  0.8951  0.9004
  160SAPE   H8Y17937   6.410   1.515   7.498 -2.5489 -0.6658 -2.9677
  160SAPE   C3917938   6.318   1.538   7.699  0.1939  0.6784  0.0240
  160SAPE   H9X17939   6.401   1.471   7.728  0.4509  1.2596  0.6510
  160SAPE   H9Y17940   6.223   1.483   7.718 -0.2010  0.6095 -2.0531
  160SAPE  C31017941   6.315   1.646   7.802  0.1020  0.0095 -0.2956
  160SAPE  H10X17942   6.220   1.702   7.783 -0.2369 -0.5433 -0.2482
  160SAPE  H10Y17943   6.395   1.721   7.782 -0.2773  0.1605 -1.3325
  160SAPE  C31117944   6.308   1.591   7.949  0.0038 -0.4508  0.5882
  160SAPE  H11X17945   6.407   1.548   7.972  0.3114  1.0402  2.1376
  160SAPE  H11Y17946   6.231   1.511   7.960 -0.9230  0.4717  0.9578
  160SAPE  C31217947   6.280   1.700   8.051  0.9377  0.3126  0.3700
  160SAPE  H12X17948   6.258   1.644   8.145 -0.8548 -0.3866 -0.4473
  160SAPE  H12Y17949   6.185   1.752   8.027  0.0492 -2.1494 -1.7326
  160SAPE  C31317950   6.381   1.813   8.071 -0.7543  0.3765 -0.0718
  160SAPE  H13X17951   6.390   1.874   7.978 -2.2532  0.4264 -0.2072
  160SAPE  H13Y17952   6.476   1.757   8.085  0.6851  2.3281 -1.7177
  160SAPE  C31417953   6.352   1.906   8.192 -0.4257 -0.6243 -0.1567
  160SAPE  H14X17954   6.246   1.936   8.197  0.2796  1.8032  0.8102
  160SAPE  H14Y17955   6.416   1.997   8.189  1.5087 -1.9990 -2.6824
  160SAPE  C31517956   6.382   1.848   8.331 -0.4421  1.1781 -0.1349
  160SAPE  H15X17957   6.484   1.806   8.319  0.5494  3.1702  1.0174
  160SAPE  H15Y17958   6.314   1.762   8.350  2.6964 -1.0719  1.4699
  160SAPE  C31617959   6.390   1.948   8.449 -0.7236 -0.3228  0.3464
  160SAPE  H16X17960   6.286   1.987   8.453  0.3477  2.5231  1.9503
  160SAPE  H16Y17961   6.462   2.031   8.434 -0.0427 -0.9094  0.2981
  160SAPE  C31717962   6.413   1.903   8.590 -0.5859 -0.2887  0.1244
  160SAPE  H17X17963   6.337   1.831   8.627 -0.5318  0.3778  1.5544
  160SAPE  H17Y17964   6.400   1.992   8.655  0.8024 -1.0890  1.5374
  160SAPE  C31817965   6.555   1.845   8.616 -0.3196 -0.0298 -0.1346
  160SAPE  H18X17966   6.558   1.806   8.720  0.0824  1.6399  0.4969
  160SAPE  H18Y17967   6.641   1.909   8.586  0.4426 -1.7679 -1.8298
  160SAPE  H18Z17968   6.583   1.764   8.545  0.3650 -0.1531  0.2745
  161SOPE     N17969   4.687   4.339  10.353  0.5033 -0.2803 -0.7717
  161SOPE   HN117970   4.610   4.408  10.350  0.1121 -0.7968 -3.9840
  161SOPE   HN217971   4.777   4.385  10.327 -0.1959  0.6284 -1.6109
  161SOPE   HN317972   4.668   4.272  10.276 -2.1289  1.4957 -1.7328
  161SOPE   C1217973   4.704   4.262  10.481  0.5103  0.4211  0.3674
  161SOPE  H12A17974   4.744   4.326  10.562  3.2786  2.0184 -2.1450
  161SOPE  H12B17975   4.780   4.182  10.463  2.1162  2.4526 -2.1439
  161SOPE   C1117976   4.566   4.200  10.526  1.0652 -0.0067 -0.1270
  161SOPE  H11A17977   4.525   4.140  10.442  0.4575 -0.7672  0.7016
  161SOPE  H11B17978   4.490   4.279  10.544  1.5539 -0.0102  2.1132
  161SOPE     P17979   4.590   3.966  10.636  0.1166  0.3491 -0.1462
  161SOPE   O1317980   4.457   3.907  10.664 -0.0860 -0.5239  0.4790
  161SOPE   O1417981   4.692   3.921  10.729  0.2242  0.3964  0.0681
  161SOPE   O1217982   4.585   4.120  10.644  0.0707  0.3127  0.1720
  161SOPE   O1117983   4.641   3.928  10.496  0.4322 -0.1026 -0.1785
  161SOPE    C117984   4.771   3.876  10.477  0.0607  0.2626 -0.1601
  161SOPE    HA17985   4.787   3.779  10.528 -0.5768 -0.4194 -1.2420
  161SOPE    HB17986   4.851   3.948  10.506 -0.1934 -0.7790  3.3188
  161SOPE    C217987   4.801   3.866  10.327  0.1826  0.1782  0.2895
  161SOPE    HS17988   4.763   3.962  10.284  0.1413 -1.1170 -2.7009
  161SOPE   O2117989   4.730   3.753  10.261  0.1693  0.1040  0.2155
  161SOPE   C2117990   4.684   3.784  10.145  0.1319 -0.2633  0.1914
  161SOPE   O2217991   4.684   3.893  10.090 -0.1002 -0.0082 -0.5814
  161SOPE   C2217992   4.612   3.661  10.092 -0.0770  0.1203 -0.0224
  161SOPE   H2R17993   4.515   3.643  10.143  0.0685 -0.6830 -0.0216
  161SOPE   H2S17994   4.677   3.572  10.108  0.3035  0.5893  1.0908
  161SOPE    C317995   4.958   3.843  10.310 -0.5082 -0.8988  0.5902
  161SOPE    HX17996   4.982   3.774  10.394  1.0327 -0.9856  0.1054
  161SOPE    HY17997   5.022   3.931  10.334 -3.1488  1.1238  0.3895
  161SOPE   O3117998   4.983   3.787  10.182 -0.4969  0.7460 -0.1197
  161SOPE   C3117999   5.005   3.874  10.081 -0.0844  0.9015 -0.6796
  161SOPE   O3218000   5.026   3.994  10.096 -0.8161  0.5866 -0.3385
  161SOPE   C3218001   4.998   3.798   9.945 -0.1923 -0.7366  0.8328
  161SOPE   H2X18002   4.903   3.741   9.940 -1.0684  0.7346  0.4487
  161SOPE   H2Y18003   5.082   3.725   9.949  0.1845 -0.3060  0.9097
  161SOPE   C2318004   4.593   3.672   9.937 -0.1283  0.0546 -0.7095
  161SOPE   H3R18005   4.688   3.703   9.888 -0.1621 -1.8744 -2.0208
  161SOPE   H3S18006   4.516   3.748   9.913 -0.1312  0.9083  1.7781
  161SOPE   C2418007   4.542   3.540   9.871  0.3721 -0.6690  0.2719
  161SOPE   H4R18008   4.587   3.448   9.913 -0.3388 -0.2399  2.0107
  161SOPE   H4S18009   4.432   3.524   9.883 -0.2209  0.9124 -2.5723
  161SOPE   C2518010   4.582   3.547   9.725 -0.4110 -0.2393  0.1895
  161SOPE   H5R18011   4.652   3.632   9.707  0.1757 -0.3508  1.8986
  161SOPE   H5S18012   4.633   3.453   9.695  0.9058 -0.4499  2.9431
  161SOPE   C2618013   4.466   3.567   9.623  0.3803 -0.3188 -0.2723
  161SOPE   H6R18014   4.391   3.485   9.634  1.1947 -0.9726  0.5044
  161SOPE   H6S18015   4.410   3.661   9.643  1.2963 -0.3536  2.8016
  161SOPE   C2718016   4.511   3.550   9.480  0.2552  0.0331 -0.0628
  161SOPE   H7R18017   4.564   3.455   9.456 -0.3224 -0.1590 -0.5775
  161SOPE   H7S18018   4.417   3.550   9.421 -0.9777 -1.5203  1.8538
  161SOPE   C2818019   4.584   3.668   9.414  0.3250 -0.6515 -0.2356
  161SOPE   H8R18020   4.518   3.757   9.407 -0.2455 -1.1832 -1.7967
  161SOPE   H8S18021   4.668   3.692   9.483  1.6613 -0.5759 -1.8619
  161SOPE   C2918022   4.631   3.618   9.276  0.0064 -0.9283  0.4425
  161SOPE   H9118023   4.728   3.566   9.277 -0.5065 -1.9667  5.1065
  161SOPE  C21018024   4.573   3.636   9.163  1.0181  0.6214  0.5257
  161SOPE  H10118025   4.608   3.583   9.073 -0.4338  0.6684 -0.0856
  161SOPE  C21118026   4.437   3.703   9.138 -0.2650 -0.3387  0.0316
  161SOPE  H11R18027   4.459   3.796   9.081 -3.1336  1.0298  1.0205
  161SOPE  H11S18028   4.389   3.730   9.235  0.0051 -1.0873  0.3779
  161SOPE  C21218029   4.347   3.614   9.046  0.4407  0.3372 -0.5095
  161SOPE  H12R18030   4.403   3.577   8.958 -0.7071  1.3453 -1.6752
  161SOPE  H12S18031   4.266   3.677   9.004  1.7851  1.7167 -1.1237
  161SOPE  C21318032   4.279   3.496   9.115  0.2934  1.0136  0.4608
  161SOPE  H13R18033   4.219   3.538   9.199 -0.3119  0.4813  0.2992
  161SOPE  H13S18034   4.358   3.428   9.154  1.3234  2.2922  0.6263
  161SOPE  C21418035   4.180   3.416   9.023  0.2689 -0.0689  0.4622
  161SOPE  H14R18036   4.174   3.316   9.069  0.0435  0.6438  2.0043
  161SOPE  H14S18037   4.222   3.421   8.920 -1.8362  0.6961 -0.3912
  161SOPE  C21518038   4.044   3.476   9.003 -0.1216  0.2682  0.0639
  161SOPE  H15R18039   4.043   3.581   8.965 -1.0818  0.2032 -0.0954
  161SOPE  H15S18040   3.990   3.489   9.099 -1.4968 -1.1698 -0.5096
  161SOPE  C21618041   3.949   3.390   8.918  0.0505  0.5086  0.3243
  161SOPE  H16R18042   3.843   3.423   8.911  0.7193  2.6841  0.3717
  161SOPE  H16S18043   3.942   3.290   8.967 -0.9790  0.6108  0.4043
  161SOPE  C21718044   4.008   3.367   8.779  0.2040 -0.6626 -0.0899
  161SOPE  H17R18045   4.113   3.331   8.779  0.5537  0.2387 -2.3196
  161SOPE  H17S18046   3.998   3.460   8.720 -0.0291 -1.6827 -1.7181
  161SOPE  C21818047   3.932   3.277   8.687 -0.3534  0.8364  0.4903
  161SOPE  H18R18048   3.970   3.270   8.583 -1.2474 -0.2731  0.2205
  161SOPE  H18S18049   3.823   3.299   8.684 -0.2921  0.9841 -1.6717
  161SOPE  H18T18050   3.934   3.173   8.728 -1.6600 -0.2166 -1.9670
  161SOPE   C3318051   5.014   3.886   9.818 -0.4009  0.0413 -0.3755
  161SOPE   H3X18052   5.120   3.922   9.819 -0.2097 -0.4836  4.0411
  161SOPE   H3Y18053   4.946   3.973   9.823  0.3037  0.6130 -0.5626
  161SOPE   C3418054   5.001   3.813   9.684  0.0129 -0.1613  0.4097
  161SOPE   H4X18055   4.910   3.749   9.675  1.2377 -2.1249  1.5765
  161SOPE   H4Y18056   5.089   3.746   9.675  0.5944  1.0207 -3.0934
  161SOPE   C3518057   5.017   3.904   9.570  0.4515 -0.2940  1.0803
  161SOPE   H5X18058   5.116   3.954   9.560  0.2697 -0.3496 -1.1529
  161SOPE   H5Y18059   4.938   3.981   9.580  1.2688  0.5643  1.0386
  161SOPE   C3618060   4.984   3.830   9.444  0.0959  0.0501 -0.4707
  161SOPE   H6X18061   4.882   3.788   9.458  1.3988 -3.4111 -1.0173
  161SOPE   H6Y18062   5.051   3.742   9.444  1.5035  1.1116 -1.1725
  161SOPE   C3718063   5.000   3.917   9.322  0.4390 -0.4973  0.1182
  161SOPE   H7X18064   5.059   3.860   9.247 -1.0313 -0.9961 -0.6818
  161SOPE   H7Y18065   5.074   3.997   9.340 -0.4956  0.9175 -2.0969
  161SOPE   C3818066   4.870   3.960   9.252  0.1331 -0.0172 -0.5778
  161SOPE   H8X18067   4.806   4.012   9.327  0.4337  0.6853 -0.7977
  161SOPE   H8Y18068   4.814   3.874   9.212  0.8296  0.6026 -2.9462
  161SOPE   C3918069   4.889   4.062   9.136  0.2348  0.2641 -0.3057
  161SOPE   H9X18070   4.937   4.011   9.050  1.4522 -2.8248  2.0732
  161SOPE   H9Y18071   4.946   4.147   9.178  1.8176 -0.8246 -0.1896
  161SOPE  C31018072   4.758   4.109   9.072  0.9786  0.9049  0.2137
  161SOPE  H10X18073   4.689   4.133   9.156 -0.8278  1.0814 -1.2891
  161SOPE  H10Y18074   4.708   4.024   9.021  2.0217  1.0090 -1.0144
  161SOPE  C31118075   4.766   4.241   8.999  0.7310 -0.0875 -0.3544
  161SOPE  H11X18076   4.813   4.314   9.069  0.7800 -2.1257  1.8145
  161SOPE  H11Y18077   4.666   4.284   8.982  1.1654  1.5516  1.1197
  161SOPE  C31218078   4.860   4.245   8.878 -0.3766  0.0627  0.1940
  161SOPE  H12X18079   4.816   4.171   8.807  0.0555  2.4048 -2.6159
  161SOPE  H12Y18080   4.954   4.197   8.910 -0.1822  0.9017  0.8881
  161SOPE  C31318081   4.875   4.387   8.821 -0.6665  0.2516 -0.0428
  161SOPE  H13X18082   4.908   4.459   8.899 -1.2421  1.3452 -0.7993
  161SOPE  H13Y18083   4.776   4.430   8.796 -0.5104  1.8720  1.9844
  161SOPE  C31418084   4.962   4.412   8.694  0.0311 -0.2220  0.3422
  161SOPE  H14X18085   5.069   4.408   8.722  0.4493 -0.9749 -1.3017
  161SOPE  H14Y18086   4.929   4.509   8.652 -1.3522 -1.6141 -1.8936
  161SOPE  C31518087   4.925   4.312   8.578 -0.6520 -0.5287 -0.6154
  161SOPE  H15X18088   4.822   4.333   8.544 -0.0967 -0.3930 -2.2488
  161SOPE  H15Y18089   4.915   4.207   8.613  1.0044 -1.3407 -2.4550
  161SOPE  C31618090   5.029   4.314   8.461 -0.5763  0.7141  0.2143
  161SOPE  H16X18091   5.122   4.268   8.500 -1.5715 -0.3518  1.3968
  161SOPE  H16Y18092   5.051   4.418   8.431 -0.8131  1.1395  1.4717
  161SOPE  C31718093   4.977   4.217   8.350  0.2218  0.4166 -0.2596
  161SOPE  H17X18094   4.874   4.256   8.336 -0.2450  0.2459  2.4584
  161SOPE  H17Y18095   4.967   4.112   8.383 -1.2693  0.3817 -0.7718
  161SOPE  C31818096   5.043   4.217   8.215 -0.4177 -0.6358 -0.2803
  161SOPE  H18X18097   5.023   4.313   8.164  1.3559 -0.1252 -0.0518
  161SOPE  H18Y18098   5.005   4.133   8.153  2.1686 -0.7011 -1.8465
  161SOPE  H18Z18099   5.153   4.210   8.229 -0.1995  1.5380 -0.8066
  162SOPE     N18100   2.623   3.252  11.010  0.1753 -0.4183 -0.4592
  162SOPE   HN118101   2.653   3.235  11.108  1.7886  1.2288 -0.6425
  162SOPE   HN218102   2.636   3.154  10.980 -1.2487 -0.5751 -0.5915
  162SOPE   HN318103   2.689   3.311  10.955  1.3612  1.1954  2.5789
  162SOPE   C1218104   2.483   3.296  11.001  0.0559 -0.0372 -0.1745
  162SOPE  H12A18105   2.434   3.243  11.085 -0.6237 -1.4379 -1.4182
  162SOPE  H12B18106   2.439   3.261  10.905 -0.4918 -1.1317  0.4795
  162SOPE   C1118107   2.484   3.444  11.028 -0.1120 -0.7187  0.0479
  162SOPE  H11A18108   2.532   3.472  11.124 -0.5483  0.1249  0.0266
  162SOPE  H11B18109   2.383   3.489  11.034  0.2315 -0.2016  2.1014
  162SOPE     P18110   2.539   3.657  10.895 -0.2277  0.2684  0.1481
  162SOPE   O1318111   2.641   3.706  10.805 -0.1064  0.3194 -0.3200
  162SOPE   O1418112   2.519   3.723  11.029 -0.0251 -0.3237  0.1600
  162SOPE   O1218113   2.567   3.504  10.921  0.2359  0.0907 -0.0112
  162SOPE   O1118114   2.403   3.654  10.816  0.1432  0.1843  0.1758
  162SOPE    C118115   2.373   3.563  10.710  0.2541 -0.1251  1.1080
  162SOPE    HA18116   2.297   3.488  10.740 -1.0178 -0.7375 -3.2780
  162SOPE    HB18117   2.464   3.515  10.667  0.2567  1.1986 -0.4174
  162SOPE    C218118   2.308   3.642  10.593  0.7393  0.7034 -0.0002
  162SOPE    HS18119   2.267   3.580  10.510  2.5678  0.1385 -0.5041
  162SOPE   O2118120   2.401   3.729  10.522 -0.5138 -0.2016 -0.2072
  162SOPE   C2118121   2.506   3.671  10.458 -0.2445  0.4856 -0.5444
  162SOPE   O2218122   2.529   3.552  10.455 -0.6870 -0.3811 -0.1601
  162SOPE   C2218123   2.575   3.780  10.383 -0.2695 -1.0505  0.4420
  162SOPE   H2R18124   2.598   3.868  10.447  1.7518  0.4801 -2.3200
  162SOPE   H2S18125   2.496   3.816  10.314 -1.1692 -1.1833  1.3806
  162SOPE    C318126   2.186   3.729  10.642 -0.1359  0.3119 -0.0393
  162SOPE    HX18127   2.222   3.792  10.726  0.1209 -0.4842  0.4547
  162SOPE    HY18128   2.110   3.660  10.685 -0.9178  0.7166 -0.7529
  162SOPE   O3118129   2.135   3.811  10.536 -0.0371 -0.2341  0.0346
  162SOPE   C3118130   2.188   3.934  10.531  0.4385  0.2844 -0.6831
  162SOPE   O3218131   2.265   3.987  10.610 -0.3184  0.5970  0.5913
  162SOPE   C3218132   2.128   4.000  10.407 -0.3959 -0.2803 -0.3406
  162SOPE   H2X18133   2.128   4.111  10.409 -0.5353 -0.2870  0.0262
  162SOPE   H2Y18134   2.023   3.963  10.409  0.0143 -1.5582  3.5837
  162SOPE   C2318135   2.706   3.730  10.322  0.1178  0.4026 -0.3861
  162SOPE   H3R18136   2.683   3.641  10.260  2.2676 -1.0568  0.8675
  162SOPE   H3S18137   2.782   3.700  10.397  0.8464 -0.3044 -1.3894
  162SOPE   C2418138   2.776   3.833  10.229 -0.6442  0.4742 -0.2350
  162SOPE   H4R18139   2.851   3.897  10.279  0.7996 -3.0310  2.2583
  162SOPE   H4S18140   2.843   3.785  10.154 -0.1804 -1.5839  1.4580
  162SOPE   C2518141   2.686   3.933  10.142  0.0234  0.2522 -0.1344
  162SOPE   H5R18142   2.610   3.876  10.084 -1.1341  2.2778 -0.6327
  162SOPE   H5S18143   2.629   4.005  10.204 -0.4447 -0.6214  0.4703
  162SOPE   C2618144   2.763   4.010  10.037  0.0789 -0.5332  0.2696
  162SOPE   H6R18145   2.811   4.092  10.095  0.2350 -0.0759 -0.5091
  162SOPE   H6S18146   2.839   3.941   9.995  1.6806  0.1319  2.0005
  162SOPE   C2718147   2.668   4.081   9.935 -0.3911  0.3550 -0.1022
  162SOPE   H7R18148   2.577   4.098   9.997 -0.6926  1.5660 -0.8500
  162SOPE   H7S18149   2.714   4.175   9.898  0.4735 -0.3622 -0.8708
  162SOPE   C2818150   2.614   4.004   9.817 -0.0154  0.1442  0.5014
  162SOPE   H8R18151   2.576   3.906   9.854  1.3302 -0.4663  0.2773
  162SOPE   H8S18152   2.526   4.058   9.777  0.0869  1.2540  1.7236
  162SOPE   C2918153   2.726   3.975   9.715  0.0762  0.4372 -0.2945
  162SOPE   H9118154   2.820   3.930   9.749 -0.0828  0.0228 -0.3997
  162SOPE  C21018155   2.731   4.020   9.590 -0.5116  0.2930 -0.6627
  162SOPE  H10118156   2.814   3.990   9.524  0.2732 -3.3370  1.8612
  162SOPE  C21118157   2.624   4.104   9.513  0.2818  0.2751 -0.2194
  162SOPE  H11R18158   2.642   4.213   9.515 -0.2306  0.3753 -0.9626
  162SOPE  H11S18159   2.527   4.097   9.567 -0.1899 -0.3411 -1.1311
  162SOPE  C21218160   2.615   4.054   9.368 -0.2838 -0.9141 -0.6675
  162SOPE  H12R18161   2.522   4.097   9.326  0.8076  1.0082 -1.1943
  162SOPE  H12S18162   2.608   3.944   9.360 -0.0881 -0.8319 -2.1155
  162SOPE  C21318163   2.729   4.111   9.283  0.0715  0.2942 -0.1764
  162SOPE  H13R18164   2.820   4.097   9.344 -0.8657 -1.0679  0.9513
  162SOPE  H13S18165   2.714   4.220   9.267 -2.0150 -0.2172 -1.9662
  162SOPE  C21418166   2.731   4.038   9.155  0.4022  0.0971 -0.4615
  162SOPE  H14R18167   2.732   3.928   9.171  0.5287 -0.1906 -2.3709
  162SOPE  H14S18168   2.823   4.062   9.099  1.7737 -1.4854  1.0720
  162SOPE  C21518169   2.610   4.072   9.064  0.1500 -0.1598 -0.2371
  162SOPE  H15R18170   2.581   4.180   9.064 -0.6325 -0.3601  1.7821
  162SOPE  H15S18171   2.519   4.018   9.097  0.1406  0.0666  0.1179
  162SOPE  C21618172   2.651   4.044   8.921 -0.1280  0.5631  0.1599
  162SOPE  H16R18173   2.571   4.063   8.846 -0.1684 -2.9685 -0.7812
  162SOPE  H16S18174   2.672   3.936   8.911  0.0852  0.4763  1.4506
  162SOPE  C21718175   2.777   4.113   8.873  0.0354 -0.5820 -0.5086
  162SOPE  H17R18176   2.869   4.063   8.912 -0.9227 -2.3761 -0.4784
  162SOPE  H17S18177   2.777   4.220   8.903 -3.2150  0.0749 -2.6749
  162SOPE  C21818178   2.788   4.102   8.715  0.9707 -0.2652 -0.1447
  162SOPE  H18R18179   2.797   3.996   8.685  1.8342 -0.8073  1.9679
  162SOPE  H18S18180   2.866   4.172   8.678  1.3071 -0.8280 -0.5141
  162SOPE  H18T18181   2.693   4.148   8.680  0.1764 -1.3336  0.5864
  162SOPE   C3318182   2.200   3.963  10.276 -0.1370 -0.1265  0.6954
  162SOPE   H3X18183   2.208   3.857  10.245  0.3078  0.7552 -2.3506
  162SOPE   H3Y18184   2.307   3.993  10.280  0.3229 -1.8856  1.9648
  162SOPE   C3418185   2.142   4.028  10.147  0.5073  0.7059  0.0631
  162SOPE   H4X18186   2.035   4.006  10.130 -0.1139  3.7550 -0.2782
  162SOPE   H4Y18187   2.199   3.980  10.065 -1.8616 -0.6456 -0.8406
  162SOPE   C3518188   2.179   4.174  10.131  0.2247  0.7491 -0.1353
  162SOPE   H5X18189   2.288   4.190  10.141  0.3245 -0.1430  0.2470
  162SOPE   H5Y18190   2.130   4.224  10.218  0.3133 -1.6557  1.3502
  162SOPE   C3618191   2.127   4.236  10.001 -0.1852  0.4252 -0.1233
  162SOPE   H6X18192   2.137   4.346  10.002 -1.4033  0.5378  1.8614
  162SOPE   H6Y18193   2.023   4.205   9.978 -0.4692 -0.1742  1.8855
  162SOPE   C3718194   2.214   4.190   9.884  0.7995 -0.0049  0.3585
  162SOPE   H7X18195   2.223   4.080   9.878 -1.1882 -0.0803 -1.8768
  162SOPE   H7Y18196   2.315   4.235   9.886  1.8313 -2.2689  0.8629
  162SOPE   C3818197   2.159   4.243   9.752  0.5727  0.2717 -0.7652
  162SOPE   H8X18198   2.169   4.354   9.758 -0.3269  0.3171  0.1189
  162SOPE   H8Y18199   2.058   4.201   9.734  1.1785 -1.5523 -0.0259
  162SOPE   C3918200   2.246   4.208   9.629 -0.3049 -0.4120  0.1672
  162SOPE   H9X18201   2.242   4.098   9.621  1.4374 -0.5811  1.4249
  162SOPE   H9Y18202   2.353   4.235   9.644 -0.6677  0.8087  0.6180
  162SOPE  C31018203   2.179   4.261   9.502 -0.4826  0.5259  0.3471
  162SOPE  H10X18204   2.175   4.371   9.521 -0.4673  0.8461 -1.4083
  162SOPE  H10Y18205   2.076   4.222   9.487 -0.1346 -0.4009  0.3579
  162SOPE  C31118206   2.261   4.240   9.374  0.6339  0.0545 -0.3787
  162SOPE  H11X18207   2.265   4.133   9.344  0.5494 -0.3356  0.9871
  162SOPE  H11Y18208   2.364   4.280   9.380  0.3966  0.5284  0.4469
  162SOPE  C31218209   2.205   4.314   9.247  0.1923 -0.1335 -0.0287
  162SOPE  H12X18210   2.194   4.422   9.268  2.8675  0.3240 -0.7641
  162SOPE  H12Y18211   2.103   4.271   9.230  0.9289 -1.7395 -0.4754
  162SOPE  C31318212   2.288   4.306   9.112 -0.2867 -0.1794 -1.3995
  162SOPE  H13X18213   2.334   4.208   9.091  0.8233 -0.0480  0.3040
  162SOPE  H13Y18214   2.377   4.371   9.120 -0.2572 -0.4049  0.3931
  162SOPE  C31418215   2.213   4.332   8.979 -0.7019  0.0905  0.4123
  162SOPE  H14X18216   2.208   4.443   8.972  2.6609  0.1638 -1.7523
  162SOPE  H14Y18217   2.112   4.286   8.973  0.5957 -2.4644 -3.0632
  162SOPE  C31518218   2.304   4.284   8.855 -0.3772 -0.1961 -0.3339
  162SOPE  H15X18219   2.322   4.175   8.861  2.8616  0.2642 -0.4229
  162SOPE  H15Y18220   2.395   4.346   8.874 -0.5496 -1.1766  4.3784
  162SOPE  C31618221   2.237   4.338   8.724  0.6612 -0.0271 -0.1832
  162SOPE  H16X18222   2.251   4.448   8.733  1.1089 -0.1701  0.8265
  162SOPE  H16Y18223   2.130   4.310   8.710 -0.0723  1.6110  1.9366
  162SOPE  C31718224   2.305   4.289   8.596 -0.5412 -0.0086 -0.4594
  162SOPE  H17X18225   2.413   4.315   8.603 -1.1052  2.7397 -1.3486
  162SOPE  H17Y18226   2.271   4.348   8.508 -0.8833  1.8507  0.8781
  162SOPE  C31818227   2.287   4.142   8.574  0.8502  0.3459  0.1548
  162SOPE  H18X18228   2.269   4.072   8.659  0.7342  0.6880  0.4097
  162SOPE  H18Y18229   2.369   4.110   8.506  0.8400 -2.9253  1.5880
  162SOPE  H18Z18230   2.204   4.126   8.502  0.9440  2.4925 -0.4718
  163SOPE     N18231   3.169   0.690  10.886  0.4107  0.1186 -0.9914
  163SOPE   HN118232   3.185   0.630  10.969 -1.4762  0.8826 -0.0303
  163SOPE   HN218233   3.220   0.779  10.906 -0.7470  0.8533 -1.2565
  163SOPE   HN318234   3.070   0.712  10.862 -0.4301 -2.2569  0.1217
  163SOPE   C1218235   3.235   0.645  10.756 -0.4999 -0.2092  0.1300
  163SOPE  H12A18236   3.158   0.600  10.689  2.6084 -1.4699 -2.7476
  163SOPE  H12B18237   3.319   0.580  10.786 -0.1221 -0.7575 -2.0618
  163SOPE   C1118238   3.278   0.772  10.686  0.0640  0.0872  0.0321
  163SOPE  H11A18239   3.190   0.839  10.682 -0.1733 -0.2401 -0.2305
  163SOPE  H11B18240   3.313   0.762  10.580 -1.2521 -0.7347 -0.3334
  163SOPE     P18241   3.424   0.982  10.752 -0.2337 -0.6310  0.3494
  163SOPE   O1318242   3.542   1.012  10.836 -0.0217  0.1459 -0.3102
  163SOPE   O1418243   3.300   1.058  10.789 -0.0831  0.1716  0.1239
  163SOPE   O1218244   3.379   0.837  10.771 -0.3514  0.0832 -0.2727
  163SOPE   O1118245   3.459   0.994  10.601  0.3217  0.1382 -0.5130
  163SOPE    C118246   3.572   0.928  10.552  0.2961 -0.2371 -0.1058
  163SOPE    HA18247   3.537   0.857  10.474 -0.9298 -0.5197  0.6847
  163SOPE    HB18248   3.615   0.856  10.625  1.3390  3.6003  3.2562
  163SOPE    C218249   3.684   1.028  10.495 -0.0365  0.1947  0.0519
  163SOPE    HS18250   3.677   1.116  10.562 -0.4929 -1.5009  2.2780
  163SOPE   O2118251   3.645   1.053  10.361  0.6188 -0.0154 -0.2437
  163SOPE   C2118252   3.637   1.177  10.313  0.8094 -0.2125  0.0838
  163SOPE   O2218253   3.658   1.282  10.375  0.1701  0.1806 -0.0222
  163SOPE   C2218254   3.584   1.171  10.174 -0.1074  0.2962  0.6604
  163SOPE   H2R18255   3.482   1.126  10.178 -0.3448  0.7095 -0.5106
  163SOPE   H2S18256   3.655   1.106  10.120 -0.2512  0.4344  0.3021
  163SOPE    C318257   3.828   0.967  10.499  0.1555  0.0798 -0.1087
  163SOPE    HX18258   3.815   0.865  10.456 -1.9442  1.0640 -1.9669
  163SOPE    HY18259   3.870   0.967  10.601  0.0224  0.9239 -0.0552
  163SOPE   O3118260   3.918   1.034  10.412 -0.2575 -0.8856  0.6314
  163SOPE   C3118261   3.995   1.130  10.456 -0.3383 -0.2372  0.4032
  163SOPE   O3218262   4.002   1.173  10.570  0.0382  0.3669  0.5847
  163SOPE   C3218263   4.082   1.184  10.340 -0.2861  1.0429  0.0289
  163SOPE   H2X18264   4.158   1.103  10.327 -0.2752  1.1414 -0.5356
  163SOPE   H2Y18265   4.129   1.279  10.372 -0.1354  0.2888  2.1098
  163SOPE   C2318266   3.578   1.304  10.100 -0.1691 -0.3260 -0.5589
  163SOPE   H3R18267   3.682   1.344  10.091 -0.6828  2.4043  4.0888
  163SOPE   H3S18268   3.523   1.380  10.159 -0.5769 -0.5099 -0.6983
  163SOPE   C2418269   3.507   1.291   9.963  0.2755 -0.3776 -0.5716
  163SOPE   H4R18270   3.420   1.225   9.982  2.0474 -1.8700  2.9774
  163SOPE   H4S18271   3.476   1.396   9.945  1.5048  0.5861  2.5484
  163SOPE   C2518272   3.602   1.256   9.846  0.9232 -0.1861 -0.3743
  163SOPE   H5R18273   3.691   1.321   9.859 -0.2558  1.3350  0.1787
  163SOPE   H5S18274   3.635   1.150   9.854 -2.6289 -1.4245 -1.1748
  163SOPE   C2618275   3.541   1.278   9.709  0.0329 -0.1567 -0.3464
  163SOPE   H6R18276   3.439   1.233   9.713  0.3371 -0.7338  1.5683
  163SOPE   H6S18277   3.524   1.388   9.706 -0.0573 -0.1307  0.6446
  163SOPE   C2718278   3.612   1.218   9.588  0.6197  0.6708  0.2476
  163SOPE   H7R18279   3.705   1.278   9.576  0.6037  1.0754  2.0171
  163SOPE   H7S18280   3.625   1.110   9.613  0.3873  0.8560  1.1809
  163SOPE   C2818281   3.531   1.222   9.462 -0.2948 -0.1535  0.2419
  163SOPE   H8R18282   3.453   1.145   9.483  0.6326 -1.6216 -1.5447
  163SOPE   H8S18283   3.472   1.315   9.453 -1.9435 -1.3349 -1.4467
  163SOPE   C2918284   3.617   1.193   9.346  0.8065  0.3922  0.1963
  163SOPE   H9118285   3.724   1.215   9.359  0.3973  2.3568  0.3556
  163SOPE  C21018286   3.575   1.142   9.228 -0.4066 -0.4206  0.2573
  163SOPE  H10118287   3.650   1.132   9.148  0.9117  0.0819  1.3962
  163SOPE  C21118288   3.433   1.104   9.188 -0.1675 -0.4027 -0.1414
  163SOPE  H11R18289   3.388   1.198   9.149 -1.4411  0.9334  4.2173
  163SOPE  H11S18290   3.381   1.066   9.279  1.3644 -3.6905 -0.5654
  163SOPE  C21218291   3.414   0.997   9.078  0.9570 -0.1375  0.0171
  163SOPE  H12R18292   3.458   0.901   9.111  2.8729  0.8303  0.3325
  163SOPE  H12S18293   3.449   1.035   8.980  3.5122 -2.2419  0.0602
  163SOPE  C21318294   3.262   0.962   9.057 -0.7503  0.3721 -0.6776
  163SOPE  H13R18295   3.218   0.927   9.152  0.1022  3.3574  0.8655
  163SOPE  H13S18296   3.257   0.885   8.977 -1.5714 -0.2940  0.0049
  163SOPE  C21418297   3.173   1.070   8.998  0.2453  0.0216 -0.0464
  163SOPE  H14R18298   3.152   1.147   9.076  0.5280 -1.8831  1.9693
  163SOPE  H14S18299   3.086   1.013   8.958 -0.1968  1.6157 -1.4418
  163SOPE  C21518300   3.240   1.145   8.883 -0.1468 -0.3680 -0.1417
  163SOPE  H15R18301   3.279   1.075   8.806  2.4616  0.0405  0.7505
  163SOPE  H15S18302   3.323   1.210   8.918  0.6073 -2.0242  1.2061
  163SOPE  C21618303   3.161   1.248   8.796 -0.2595 -0.6314 -0.4509
  163SOPE  H16R18304   3.228   1.299   8.725  2.0078  1.0907  2.8262
  163SOPE  H16S18305   3.104   1.323   8.855 -0.4769 -0.8379 -0.3920
  163SOPE  C21718306   3.056   1.177   8.711  0.1253 -0.2844 -0.1564
  163SOPE  H17R18307   2.981   1.136   8.782 -0.5125  1.3556  0.1311
  163SOPE  H17S18308   3.097   1.089   8.657 -0.6615 -2.1476  2.1746
  163SOPE  C21818309   3.000   1.286   8.626  0.6682 -0.6418 -0.7584
  163SOPE  H18R18310   2.906   1.253   8.575 -0.6321  1.8338 -0.0391
  163SOPE  H18S18311   3.078   1.313   8.551  1.1962  1.0436  0.3724
  163SOPE  H18T18312   2.983   1.380   8.684 -0.4884 -1.5788  0.4608
  163SOPE   C3318313   4.009   1.218  10.208 -0.7939  1.0590 -0.4580
  163SOPE   H3X18314   4.062   1.299  10.154  1.4161 -1.0329 -1.5266
  163SOPE   H3Y18315   3.906   1.253  10.233 -1.4734 -0.9335 -0.3720
  163SOPE   C3418316   3.999   1.104  10.106  0.6454 -0.0146 -0.0003
  163SOPE   H4X18317   3.936   1.019  10.141  1.3378 -1.2086 -1.5992
  163SOPE   H4Y18318   4.106   1.076  10.096  0.9523  0.1541  2.4111
  163SOPE   C3518319   3.945   1.152   9.965 -0.1760 -0.3098  0.4663
  163SOPE   H5X18320   3.972   1.259   9.957  0.4294 -0.2334  2.9165
  163SOPE   H5Y18321   3.835   1.135   9.960  0.1048 -1.9543 -0.3836
  163SOPE   C3618322   4.006   1.066   9.851 -0.3689 -0.0424  1.3871
  163SOPE   H6X18323   3.967   0.962   9.856  0.9050 -0.7053 -1.3093
  163SOPE   H6Y18324   4.112   1.049   9.877 -1.0069 -1.5448  3.0727
  163SOPE   C3718325   3.996   1.151   9.713  0.0942  0.7155  0.3165
  163SOPE   H7X18326   4.068   1.236   9.718  0.2528  0.5596  0.6603
  163SOPE   H7Y18327   3.894   1.191   9.701  0.6215  2.1058  0.3820
  163SOPE   C3818328   4.032   1.064   9.592 -0.6489 -0.3167  0.4570
  163SOPE   H8X18329   3.965   0.977   9.577 -1.4050 -0.0204  2.0821
  163SOPE   H8Y18330   4.135   1.022   9.603 -0.0808  0.5175 -1.3989
  163SOPE   C3918331   4.019   1.141   9.456  0.0702  0.0862  0.0450
  163SOPE   H9X18332   4.105   1.209   9.444 -0.6637  1.1369  0.6846
  163SOPE   H9Y18333   3.926   1.200   9.467 -0.3862 -0.3152 -1.6374
  163SOPE  C31018334   3.993   1.046   9.342  0.2368  0.1307 -0.3557
  163SOPE  H10X18335   3.900   0.987   9.358 -0.1309  1.1326  1.3296
  163SOPE  H10Y18336   4.084   0.988   9.316  0.1679  0.6933 -1.8625
  163SOPE  C31118337   3.960   1.140   9.226 -0.2065 -0.1494 -0.1435
  163SOPE  H11X18338   3.878   1.207   9.260  0.5690 -0.4433  2.4009
  163SOPE  H11Y18339   3.922   1.084   9.138 -0.3493 -0.9180  0.4080
  163SOPE  C31218340   4.076   1.225   9.177  0.3776  0.2000  0.1351
  163SOPE  H12X18341   4.166   1.160   9.180  1.0363  1.1292  0.7696
  163SOPE  H12Y18342   4.095   1.323   9.225  0.2160  0.2931  0.0093
  163SOPE  C31318343   4.064   1.259   9.031  0.2607  0.8932 -0.2515
  163SOPE  H13X18344   3.989   1.341   9.028 -0.3768  0.3388  0.4027
  163SOPE  H13Y18345   4.032   1.176   8.965 -2.1738  0.9461  0.7994
  163SOPE  C31418346   4.203   1.299   8.983 -0.0315  0.5549  0.9774
  163SOPE  H14X18347   4.263   1.205   8.983 -0.3369  0.3457  2.2131
  163SOPE  H14Y18348   4.250   1.376   9.048 -0.8023  0.5513  1.5495
  163SOPE  C31518349   4.210   1.364   8.844  0.0986  0.2238  0.2999
  163SOPE  H15X18350   4.316   1.388   8.824  0.5426 -2.7802 -1.2285
  163SOPE  H15Y18351   4.146   1.453   8.857  0.7051  0.7962 -0.5483
  163SOPE  C31618352   4.160   1.272   8.723 -0.4799  0.2381 -0.6043
  163SOPE  H16X18353   4.066   1.224   8.756  0.1609  1.8505  3.9597
  163SOPE  H16Y18354   4.242   1.199   8.704 -1.0664 -0.2394 -1.3467
  163SOPE  C31718355   4.126   1.340   8.591  0.2798  0.3218 -0.4842
  163SOPE  H17X18356   4.086   1.270   8.514  1.5501  1.0895 -1.8571
  163SOPE  H17Y18357   4.211   1.380   8.532  0.4112 -0.7440 -1.0459
  163SOPE  C31818358   4.004   1.440   8.608 -0.6127  0.4995 -0.2399
  163SOPE  H18X18359   4.026   1.519   8.683  0.7558  1.0893 -1.2422
  163SOPE  H18Y18360   3.911   1.394   8.647 -1.7786  1.6168 -1.6623
  163SOPE  H18Z18361   3.988   1.492   8.511  4.2030  1.1218 -0.8482
  164SOPE     N18362   6.067   6.615  10.877  0.8387  0.4772  0.4389
  164SOPE   HN118363   6.126   6.695  10.846 -0.8150  2.0027  1.1440
  164SOPE   HN218364   5.966   6.634  10.863  0.5459 -1.4279 -0.1570
  164SOPE   HN318365   6.084   6.602  10.979 -1.1717 -2.4196  0.4748
  164SOPE   C1218366   6.105   6.492  10.800  0.2618 -0.0458  0.1700
  164SOPE  H12A18367   6.024   6.416  10.806  0.3809 -0.1944 -0.0971
  164SOPE  H12B18368   6.185   6.447  10.863  0.2924  0.8536  0.7921
  164SOPE   C1118369   6.167   6.522  10.662  0.1775  0.3526  0.3850
  164SOPE  H11A18370   6.078   6.559  10.607  0.4313  2.6827  1.4691
  164SOPE  H11B18371   6.212   6.430  10.620  1.7275  0.5783  1.5123
  164SOPE     P18372   6.417   6.618  10.682 -0.0118 -0.1217 -0.5041
  164SOPE   O1318373   6.468   6.537  10.574  0.0686  0.6176  0.0458
  164SOPE   O1418374   6.450   6.574  10.821 -0.6144 -0.0764  0.2679
  164SOPE   O1218375   6.261   6.632  10.664 -0.5148  0.3769 -0.5265
  164SOPE   O1118376   6.474   6.762  10.659  0.0670  0.7063  0.2563
  164SOPE    C118377   6.471   6.807  10.524 -0.0293 -0.3768  0.7217
  164SOPE    HA18378   6.441   6.913  10.530  2.5522  0.4681 -0.2851
  164SOPE    HB18379   6.391   6.756  10.467  0.6617 -0.0195 -0.5954
  164SOPE    C218380   6.615   6.798  10.444 -0.1251 -0.0176 -0.2866
  164SOPE    HS18381   6.661   6.705  10.482 -1.4991 -1.2712 -1.6190
  164SOPE   O2118382   6.703   6.905  10.475 -0.2706  0.3370  0.0624
  164SOPE   C2118383   6.833   6.883  10.462 -0.0296 -0.3535 -0.5196
  164SOPE   O2218384   6.893   6.782  10.432  0.6787 -0.0058  0.1444
  164SOPE   C2218385   6.910   7.024  10.479 -0.1174  0.5269  0.6089
  164SOPE   H2R18386   7.020   7.004  10.476 -0.1438  0.5994 -1.3877
  164SOPE   H2S18387   6.873   7.062  10.576 -2.1082  2.7852 -1.0008
  164SOPE    C318388   6.597   6.783  10.286 -0.1524  0.6120  0.4567
  164SOPE    HX18389   6.515   6.711  10.265  0.0908  0.2907  0.5970
  164SOPE    HY18390   6.692   6.739  10.248 -0.9884 -0.4962 -0.3911
  164SOPE   O3118391   6.591   6.904  10.213 -0.3067 -0.1592  0.1586
  164SOPE   C3118392   6.487   6.981  10.217  0.4619  0.4821 -0.3934
  164SOPE   O3218393   6.389   6.965  10.284 -0.1532 -0.4566 -0.0726
  164SOPE   C3218394   6.511   7.102  10.130 -0.1580  0.9133  0.1268
  164SOPE   H2X18395   6.604   7.150  10.169  0.8468 -0.5159 -0.4774
  164SOPE   H2Y18396   6.423   7.170  10.129 -1.3059 -0.5625  0.1541
  164SOPE   C2318397   6.898   7.119  10.360 -0.2228  0.3508  0.0194
  164SOPE   H3R18398   6.927   7.222  10.391  2.2684 -0.6728  1.2659
  164SOPE   H3S18399   6.792   7.122  10.328  0.6859  0.6970 -3.1094
  164SOPE   C2418400   6.990   7.077  10.250 -0.1657 -0.3466  0.0618
  164SOPE   H4R18401   7.093   7.093  10.289 -0.1003  0.8183 -0.5714
  164SOPE   H4S18402   6.988   6.968  10.229  0.9642 -0.6392  1.4341
  164SOPE   C2518403   6.960   7.152  10.112 -0.1657 -0.4934 -0.2982
  164SOPE   H5R18404   6.854   7.137  10.084 -0.1907 -1.5708  0.3682
  164SOPE   H5S18405   6.970   7.262  10.126  1.7286 -0.3984 -2.0432
  164SOPE   C2618406   7.054   7.095  10.001 -0.6091 -0.6272  0.5896
  164SOPE   H6R18407   7.160   7.113  10.030 -0.9898  1.3812  0.7859
  164SOPE   H6S18408   7.041   6.985  10.000  1.1414 -0.8440  0.1217
  164SOPE   C2718409   7.017   7.163   9.862  0.5009 -0.3182 -0.0505
  164SOPE   H7R18410   6.908   7.142   9.857  0.5027 -0.3242 -0.0647
  164SOPE   H7S18411   7.031   7.273   9.870  0.2588 -0.3781  1.3285
  164SOPE   C2818412   7.085   7.097   9.741 -0.3245 -0.3765 -0.1802
  164SOPE   H8R18413   7.073   6.989   9.761  1.1159 -0.2350  1.5675
  164SOPE   H8S18414   7.025   7.123   9.651 -1.8787  0.2369  1.0014
  164SOPE   C2918415   7.235   7.137   9.733 -0.1258  0.7331  0.0179
  164SOPE   H9118416   7.302   7.145   9.820 -2.4395 -0.5646  1.9767
  164SOPE  C21018417   7.292   7.169   9.620 -0.3987 -0.5280 -0.6364
  164SOPE  H10118418   7.397   7.203   9.619 -0.9852  1.2968 -0.6823
  164SOPE  C21118419   7.244   7.179   9.475 -0.5569 -0.0489 -0.2763
  164SOPE  H11R18420   7.267   7.285   9.451  0.8785  0.2495  2.2162
  164SOPE  H11S18421   7.135   7.157   9.475  0.0952 -3.8292  2.0240
  164SOPE  C21218422   7.312   7.091   9.366 -0.2830 -0.1783  0.1119
  164SOPE  H12R18423   7.256   7.102   9.271 -0.1399  1.5322  0.2125
  164SOPE  H12S18424   7.309   6.981   9.383  0.6401 -0.6901 -2.7648
  164SOPE  C21318425   7.456   7.122   9.332 -0.4615  0.4664 -0.4430
  164SOPE  H13R18426   7.520   7.099   9.420 -1.3966 -0.5618 -0.0179
  164SOPE  H13S18427   7.474   7.228   9.303  0.5998  0.2560 -0.5632
  164SOPE  C21418428   7.504   7.022   9.219  0.2929  0.0073  0.6202
  164SOPE  H14R18429   7.460   6.924   9.246 -1.9936  0.6253 -0.7668
  164SOPE  H14S18430   7.615   7.016   9.217  0.1342 -3.6235 -2.9303
  164SOPE  C21518431   7.471   7.037   9.074  0.1511  0.2945 -1.5049
  164SOPE  H15R18432   7.360   7.032   9.069 -0.1095  2.2846  1.0090
  164SOPE  H15S18433   7.513   6.950   9.019  2.1678  0.4330 -0.2161
  164SOPE  C21618434   7.537   7.162   9.005 -0.1251 -0.0236 -0.3762
  164SOPE  H16R18435   7.642   7.166   9.041 -0.2744  0.5716 -0.0028
  164SOPE  H16S18436   7.477   7.244   9.050 -0.0433  0.0360 -0.3763
  164SOPE  C21718437   7.527   7.166   8.853  0.0884 -0.0341 -0.4003
  164SOPE  H17R18438   7.564   7.065   8.825 -0.8080 -0.9271  1.4971
  164SOPE  H17S18439   7.594   7.248   8.822  1.2560 -0.9600 -0.3705
  164SOPE  C21818440   7.386   7.179   8.797 -0.2983  0.3608  0.8723
  164SOPE  H18R18441   7.329   7.259   8.850 -0.6270  0.1265  0.8722
  164SOPE  H18S18442   7.338   7.083   8.825 -1.1510  0.3571 -0.6113
  164SOPE  H18T18443   7.384   7.196   8.688 -1.2534 -1.4077  0.5966
  164SOPE   C3318444   6.520   7.053   9.983  0.3617  0.4550  0.0319
  164SOPE   H3X18445   6.430   6.996   9.954  0.4095 -0.6475  1.9430
  164SOPE   H3Y18446   6.608   6.985   9.977 -0.9866 -1.3414  0.3245
  164SOPE   C3418447   6.551   7.183   9.898  0.0094  0.4543 -0.3279
  164SOPE   H4X18448   6.630   7.250   9.938 -1.7649  1.5849  1.3806
  164SOPE   H4Y18449   6.473   7.261   9.904  0.2449  0.6932 -0.3611
  164SOPE   C3518450   6.599   7.143   9.754 -0.6826  0.1721  0.1561
  164SOPE   H5X18451   6.510   7.109   9.696 -1.7973  1.5546  1.0066
  164SOPE   H5Y18452   6.669   7.059   9.770 -2.0153 -1.6900 -3.3122
  164SOPE   C3618453   6.668   7.251   9.670 -0.2871  0.1324  0.1602
  164SOPE   H6X18454   6.749   7.298   9.730 -0.7883  1.6916 -0.3498
  164SOPE   H6Y18455   6.593   7.331   9.653 -0.8146 -0.6581 -1.2545
  164SOPE   C3718456   6.732   7.195   9.547  0.2655 -0.2854  0.6654
  164SOPE   H7X18457   6.657   7.164   9.472 -1.5709  1.5927  1.6852
  164SOPE   H7Y18458   6.788   7.100   9.565  0.3471 -0.5840 -1.0312
  164SOPE   C3818459   6.837   7.289   9.478 -0.3807  0.0785  0.0146
  164SOPE   H8X18460   6.927   7.304   9.541  0.6696 -0.0390 -1.4239
  164SOPE   H8Y18461   6.793   7.391   9.470 -1.6379 -0.3960  0.8964
  164SOPE   C3918462   6.875   7.248   9.339  0.6703  0.0432  0.3193
  164SOPE   H9X18463   6.787   7.204   9.286 -0.6965  2.7671  0.2831
  164SOPE   H9Y18464   6.953   7.169   9.350 -1.5905 -2.3041  0.0920
  164SOPE  C31018465   6.929   7.367   9.247  0.4127  0.4234  0.5469
  164SOPE  H10X18466   7.006   7.425   9.302  1.4959  2.7224 -3.2001
  164SOPE  H10Y18467   6.842   7.436   9.242 -0.1282 -0.2864 -0.0013
  164SOPE  C31118468   6.976   7.320   9.109  0.0637 -0.6050 -0.3848
  164SOPE  H11X18469   6.906   7.242   9.072 -0.1388  0.1262 -1.5996
  164SOPE  H11Y18470   7.074   7.270   9.122  0.5090  0.7722  1.7648
  164SOPE  C31218471   7.004   7.431   9.003 -0.3466  1.0080  0.8192
  164SOPE  H12X18472   7.098   7.487   9.024 -0.6528  0.8895  2.5710
  164SOPE  H12Y18473   6.919   7.502   9.016 -1.0466  0.0860  1.3054
  164SOPE  C31318474   7.018   7.375   8.856  0.4588  0.2479  0.2620
  164SOPE  H13X18475   6.946   7.291   8.851  0.4765  0.1763  1.2315
  164SOPE  H13Y18476   7.111   7.315   8.847  1.5095  1.6627  1.4051
  164SOPE  C31418477   6.999   7.479   8.746  0.2333  0.4840 -0.3330
  164SOPE  H14X18478   6.895   7.519   8.752 -0.2266 -0.7795  0.3303
  164SOPE  H14Y18479   7.010   7.427   8.648 -4.3433 -1.1029 -0.1224
  164SOPE  C31518480   7.094   7.598   8.744  0.5044 -0.0984 -0.7312
  164SOPE  H15X18481   7.199   7.560   8.736  0.2381 -1.0477  0.2179
  164SOPE  H15Y18482   7.090   7.643   8.845 -0.4471  0.8203 -1.1778
  164SOPE  C31618483   7.067   7.698   8.637  0.1967  0.2641  0.1058
  164SOPE  H16X18484   7.117   7.667   8.543 -0.5695  0.7361 -0.4703
  164SOPE  H16Y18485   7.110   7.798   8.659  0.8388 -0.3065  1.4473
  164SOPE  C31718486   6.916   7.725   8.607  0.6042 -0.4407 -0.5579
  164SOPE  H17X18487   6.865   7.755   8.702 -1.4599  0.3825 -1.8861
  164SOPE  H17Y18488   6.862   7.635   8.571 -1.9301  0.6269  0.4352
  164SOPE  C31818489   6.911   7.838   8.507 -0.2565 -0.5229 -0.9117
  164SOPE  H18X18490   6.805   7.851   8.476 -0.6328 -0.6585  0.2998
  164SOPE  H18Y18491   6.952   7.817   8.406  2.6646  0.8263 -0.0713
  164SOPE  H18Z18492   6.944   7.933   8.554  0.6037 -1.4520  0.3978
  165SOPE     N18493   4.214   0.649  10.788  0.0682 -0.2384  0.1985
  165SOPE   HN118494   4.230   0.643  10.890  0.5110 -0.2682  0.1263
  165SOPE   HN218495   4.158   0.734  10.770  2.5073  0.4362 -5.4740
  165SOPE   HN318496   4.162   0.562  10.763  1.9678 -0.9360 -1.4683
  165SOPE   C1218497   4.345   0.644  10.710 -0.3327  0.2346  0.3672
  165SOPE  H12A18498   4.393   0.744  10.717 -0.8484  0.6227 -1.3857
  165SOPE  H12B18499   4.313   0.612  10.609  0.7149 -1.3065  0.5156
  165SOPE   C1118500   4.441   0.527  10.739 -0.3816 -0.7272 -0.2008
  165SOPE  H11A18501   4.485   0.546  10.839  0.3518 -0.4339 -0.5811
  165SOPE  H11B18502   4.524   0.527  10.666 -0.2843 -1.3401 -0.0923
  165SOPE     P18503   4.429   0.280  10.796  0.0957  0.3334  0.1576
  165SOPE   O1318504   4.333   0.170  10.791  0.1157  0.1838  0.5178
  165SOPE   O1418505   4.483   0.314  10.931 -0.0137 -0.1171 -0.3556
  165SOPE   O1218506   4.361   0.410  10.729 -0.2511  0.1376  0.1070
  165SOPE   O1118507   4.549   0.243  10.700  0.5066  0.1778 -0.2382
  165SOPE    C118508   4.536   0.261  10.556 -0.1702  0.0004 -0.3553
  165SOPE    HA18509   4.480   0.351  10.522  0.4947  0.5950  0.1103
  165SOPE    HB18510   4.497   0.163  10.520  0.2633 -1.1388  2.1914
  165SOPE    C218511   4.672   0.276  10.492  0.5058  0.1643 -0.3513
  165SOPE    HS18512   4.719   0.376  10.498  1.9965 -0.4448 -1.5039
  165SOPE   O2118513   4.650   0.246  10.351  0.2154  0.2067  0.1573
  165SOPE   C2118514   4.618   0.353  10.275 -0.3465  0.6155 -0.3821
  165SOPE   O2218515   4.576   0.460  10.312 -0.4798 -0.5908  0.5831
  165SOPE   C2218516   4.632   0.298  10.132 -0.3057 -0.3449  0.5288
  165SOPE   H2R18517   4.630   0.188  10.121 -0.8449 -0.3496  0.6267
  165SOPE   H2S18518   4.730   0.346  10.109  0.8723 -1.2409  3.4397
  165SOPE    C318519   4.777   0.181  10.552  0.4735 -0.4193 -0.4523
  165SOPE    HX18520   4.738   0.076  10.554  1.4719 -0.7827  0.2166
  165SOPE    HY18521   4.785   0.216  10.657 -0.8242 -2.1740  0.2793
  165SOPE   O3118522   4.896   0.173  10.471 -0.2259 -0.3568  0.3577
  165SOPE   C3118523   4.998   0.255  10.509 -0.7671 -0.4161 -0.1542
  165SOPE   O3218524   4.993   0.340  10.594 -0.0746 -0.3865 -0.1629
  165SOPE   C3218525   5.128   0.215  10.434 -0.8934 -0.4616  0.3807
  165SOPE   H2X18526   5.122   0.105  10.430  2.3443 -0.7687  2.5063
  165SOPE   H2Y18527   5.205   0.254  10.503 -1.7247  0.3685  0.8625
  165SOPE   C2318528   4.537   0.364  10.029 -0.2631  0.1564  0.2804
  165SOPE   H3R18529   4.542   0.475  10.040  0.5856  0.4135 -2.2430
  165SOPE   H3S18530   4.430   0.333  10.033  0.7400 -3.6817 -1.1143
  165SOPE   C2418531   4.583   0.326   9.885  0.3362  0.0884 -0.1539
  165SOPE   H4R18532   4.693   0.319   9.896  0.4140 -0.8039 -1.5066
  165SOPE   H4S18533   4.558   0.220   9.861 -0.9088  0.5823 -1.1387
  165SOPE   C2518534   4.540   0.418   9.778  0.3485  0.1289  0.1756
  165SOPE   H5R18535   4.448   0.464   9.819 -1.0446 -1.8476 -0.6802
  165SOPE   H5S18536   4.613   0.500   9.760 -0.3800  0.7768  0.1245
  165SOPE   C2618537   4.491   0.345   9.652 -0.3696  0.0944 -0.3927
  165SOPE   H6R18538   4.568   0.295   9.589  0.7562  0.0447  1.0018
  165SOPE   H6S18539   4.431   0.254   9.672  0.1762 -0.0884  0.4673
  165SOPE   C2718540   4.394   0.427   9.569 -0.3685 -0.0560 -0.4185
  165SOPE   H7R18541   4.324   0.482   9.636 -0.3749  0.6348 -0.9855
  165SOPE   H7S18542   4.464   0.494   9.516  1.1494 -2.3711 -1.3786
  165SOPE   C2818543   4.300   0.339   9.479 -0.0330  0.1578  0.3331
  165SOPE   H8R18544   4.350   0.241   9.461  0.5816  0.1378  2.0509
  165SOPE   H8S18545   4.205   0.319   9.533  1.8910  0.1219  3.8532
  165SOPE   C2918546   4.276   0.406   9.347 -0.2600 -0.1220  0.1852
  165SOPE   H9118547   4.229   0.506   9.343 -0.4981 -0.3024 -3.1757
  165SOPE  C21018548   4.313   0.371   9.224  0.4274 -0.2747 -0.2045
  165SOPE  H10118549   4.284   0.437   9.141  0.0668  0.5472  0.5660
  165SOPE  C21118550   4.383   0.247   9.180  0.0831  0.3907  0.1728
  165SOPE  H11R18551   4.311   0.166   9.154 -0.9039  1.5015 -0.5729
  165SOPE  H11S18552   4.447   0.214   9.266 -1.1366 -1.9217  0.2387
  165SOPE  C21218553   4.467   0.270   9.051 -0.2974  0.2091  0.0070
  165SOPE  H12R18554   4.498   0.164   9.040  0.5115  0.0323  3.4331
  165SOPE  H12S18555   4.549   0.331   9.094 -0.3186  2.5676 -3.0654
  165SOPE  C21318556   4.392   0.335   8.930 -1.3170 -0.5275 -0.2708
  165SOPE  H13R18557   4.468   0.338   8.849  0.4223  1.4861  1.3661
  165SOPE  H13S18558   4.362   0.442   8.943  1.4908  0.4302 -1.3758
  165SOPE  C21418559   4.261   0.265   8.881 -0.2278  0.4605  0.6951
  165SOPE  H14R18560   4.183   0.282   8.958 -0.2883  1.5628  0.4096
  165SOPE  H14S18561   4.287   0.158   8.872  0.4666  0.5814  1.1635
  165SOPE  C21518562   4.202   0.313   8.750  0.1089 -1.0442  0.2565
  165SOPE  H15R18563   4.279   0.288   8.675 -0.7896 -1.1397 -0.6415
  165SOPE  H15S18564   4.185   0.423   8.757 -1.5738 -1.1882 -1.1228
  165SOPE  C21618565   4.068   0.243   8.717 -0.3119  0.2781  0.0486
  165SOPE  H16R18566   3.985   0.299   8.766 -1.9668 -1.9396 -0.0979
  165SOPE  H16S18567   4.072   0.135   8.743 -1.0899  0.3246  0.3953
  165SOPE  C21718568   4.035   0.256   8.568  0.0917 -0.3332  0.3223
  165SOPE  H17R18569   4.106   0.189   8.514 -0.2795 -0.0375 -0.5300
  165SOPE  H17S18570   4.052   0.362   8.542  1.9007 -0.8376 -0.6863
  165SOPE  C21818571   3.893   0.212   8.536 -0.0037 -0.0332 -0.2850
  165SOPE  H18R18572   3.823   0.275   8.596  2.3662  1.5618  0.8824
  165SOPE  H18S18573   3.887   0.107   8.572 -1.6050  0.0024 -0.4147
  165SOPE  H18T18574   3.874   0.217   8.426 -1.1003 -1.9030 -0.2070
  165SOPE   C3318575   5.135   0.282  10.290 -0.1064 -0.2702  0.5706
  165SOPE   H3X18576   5.238   0.276  10.250 -0.7260  0.5313 -1.1671
  165SOPE   H3Y18577   5.112   0.390  10.302  1.7335  0.2400 -0.2590
  165SOPE   C3418578   5.055   0.206  10.193  0.4466 -0.5415  0.2189
  165SOPE   H4X18579   4.948   0.220  10.219  0.2596  2.9123 -2.1907
  165SOPE   H4Y18580   5.079   0.097  10.200 -1.2392 -0.8960  0.7306
  165SOPE   C3518581   5.067   0.257  10.047 -0.2026 -0.2887  0.1851
  165SOPE   H5X18582   5.175   0.251  10.022 -0.3097  0.0264 -0.3666
  165SOPE   H5Y18583   5.025   0.360  10.049  1.1377  0.2403  2.2732
  165SOPE   C3618584   4.988   0.181   9.956 -0.1431 -0.2949 -0.1263
  165SOPE   H6X18585   4.882   0.168   9.990 -0.3124  0.5205 -0.3263
  165SOPE   H6Y18586   5.031   0.078   9.956 -0.9295 -0.6389 -0.8212
  165SOPE   C3718587   4.988   0.239   9.815  0.5913  0.6503 -0.4001
  165SOPE   H7X18588   5.087   0.271   9.775  1.2848  1.2000  1.7094
  165SOPE   H7Y18589   4.931   0.334   9.820  0.6603  0.6754 -0.1097
  165SOPE   C3818590   4.925   0.149   9.709  0.7881  0.4240 -0.5795
  165SOPE   H8X18591   4.830   0.114   9.753  0.3907  0.4313 -1.4201
  165SOPE   H8Y18592   4.990   0.062   9.687 -0.0595 -0.6071  0.9392
  165SOPE   C3918593   4.900   0.226   9.585 -0.0448 -0.3088  0.4244
  165SOPE   H9X18594   4.996   0.262   9.543 -0.3124  1.7412  1.4999
  165SOPE   H9Y18595   4.822   0.304   9.600  0.7103  0.3184  1.1875
  165SOPE  C31018596   4.834   0.140   9.472 -0.2701 -0.2245  0.2026
  165SOPE  H10X18597   4.733   0.107   9.503  0.8139 -3.5589  0.3830
  165SOPE  H10Y18598   4.906   0.055   9.469  1.2655  1.0797 -1.0664
  165SOPE  C31118599   4.835   0.203   9.330 -0.1875  0.0320 -0.2745
  165SOPE  H11X18600   4.931   0.252   9.302  0.5248 -0.0491  1.9187
  165SOPE  H11Y18601   4.758   0.283   9.327 -1.5410 -1.2588 -0.3690
  165SOPE  C31218602   4.815   0.101   9.227 -0.2391 -0.3721  0.3270
  165SOPE  H12X18603   4.716   0.052   9.239 -0.5933 -0.2282 -1.8845
  165SOPE  H12Y18604   4.892   0.021   9.232  1.1125  0.9482  1.1012
  165SOPE  C31318605   4.809   0.148   9.078  0.5513 -0.1384 -0.3412
  165SOPE  H13X18606   4.724   0.218   9.061 -0.1901 -1.0587 -0.4885
  165SOPE  H13Y18607   4.798   0.051   9.026 -0.9451 -0.4839  0.5850
  165SOPE  C31418608   4.938   0.222   9.029  1.0260  0.0209 -0.6501
  165SOPE  H14X18609   5.021   0.149   9.037  0.2423 -0.8366 -0.2714
  165SOPE  H14Y18610   4.947   0.310   9.095  0.3006 -0.7697  0.5332
  165SOPE  C31518611   4.936   0.250   8.883 -0.0383  0.3716  0.0983
  165SOPE  H15X18612   4.868   0.335   8.862  0.2821  0.3352 -1.0972
  165SOPE  H15Y18613   4.913   0.160   8.821 -0.7219  1.7865 -1.7546
  165SOPE  C31618614   5.075   0.308   8.840  0.2641  0.2582  0.3736
  165SOPE  H16X18615   5.150   0.241   8.888 -0.3005 -0.3084  0.4649
  165SOPE  H16Y18616   5.078   0.400   8.902  0.6992 -0.4655  1.4432
  165SOPE  C31718617   5.090   0.327   8.691  0.7708 -0.0840 -0.0905
  165SOPE  H17X18618   5.053   0.236   8.640 -0.7784  1.1772 -1.2771
  165SOPE  H17Y18619   5.196   0.339   8.661  0.3330  0.7477 -1.3271
  165SOPE  C31818620   5.020   0.458   8.636 -0.8238  0.1076 -0.6056
  165SOPE  H18X18621   4.914   0.454   8.668 -0.4872 -0.8299  0.4576
  165SOPE  H18Y18622   5.023   0.464   8.525  1.2998 -1.2128 -0.6564
  165SOPE  H18Z18623   5.080   0.543   8.676 -0.8654 -0.2082  0.1377
  166SOPE     N18624   1.442   0.274  10.796  0.6528 -0.2695 -0.7797
  166SOPE   HN118625   1.443   0.283  10.692  1.0274 -1.3775 -0.8808
  166SOPE   HN218626   1.540   0.269  10.828  0.5436  0.6225 -0.3163
  166SOPE   HN318627   1.405   0.180  10.823  0.6221  0.0899  0.4183
  166SOPE   C1218628   1.367   0.395  10.863  0.4498  0.3831  0.0168
  166SOPE  H12A18629   1.371   0.382  10.973  0.6429  0.0450 -0.0310
  166SOPE  H12B18630   1.264   0.403  10.820  0.8785 -1.0115 -1.3126
  166SOPE   C1118631   1.445   0.515  10.822 -0.2487  0.4672  0.1501
  166SOPE  H11A18632   1.410   0.604  10.879 -0.2123  1.0810 -0.7773
  166SOPE  H11B18633   1.416   0.526  10.715 -0.5887 -0.6601  0.1193
  166SOPE     P18634   1.689   0.591  10.782 -0.0691  0.0348 -0.1957
  166SOPE   O1318635   1.777   0.510  10.694  0.1382 -0.0487 -0.0591
  166SOPE   O1418636   1.754   0.668  10.888  0.0966 -0.1197 -0.0230
  166SOPE   O1218637   1.582   0.496  10.845  0.1183  0.1179 -0.1966
  166SOPE   O1118638   1.607   0.698  10.708 -0.0989  0.4413 -0.1459
  166SOPE    C118639   1.599   0.687  10.559  0.2155 -0.6403 -0.1268
  166SOPE    HA18640   1.498   0.718  10.526  0.5920 -0.7794 -1.4647
  166SOPE    HB18641   1.602   0.583  10.519  0.2368 -0.6290 -0.1552
  166SOPE    C218642   1.706   0.778  10.497 -0.6677 -0.4167 -0.8643
  166SOPE    HS18643   1.807   0.739  10.523 -1.0267 -0.5797  0.3201
  166SOPE   O2118644   1.672   0.908  10.553  0.2355 -0.3460 -0.4714
  166SOPE   C2118645   1.778   0.996  10.561 -0.3199 -0.0811 -0.5393
  166SOPE   O2218646   1.899   0.966  10.545  0.3087 -0.2148  0.0917
  166SOPE   C2218647   1.729   1.142  10.589  0.1638  0.1328  0.0050
  166SOPE   H2R18648   1.830   1.187  10.576  0.2561 -0.0537  0.0762
  166SOPE   H2S18649   1.691   1.155  10.693 -1.4795  0.4950 -0.6282
  166SOPE    C318650   1.689   0.793  10.339 -0.1899  0.2641  0.4180
  166SOPE    HX18651   1.763   0.866  10.300 -1.4632  0.7247 -1.2552
  166SOPE    HY18652   1.584   0.828  10.322 -0.6182 -0.6880  1.0564
  166SOPE   O3118653   1.704   0.663  10.276  0.4050 -0.3424 -0.6318
  166SOPE   C3118654   1.827   0.613  10.268  0.0934  0.9440  0.0398
  166SOPE   O3218655   1.927   0.677  10.288 -0.2081 -0.6957  0.3834
  166SOPE   C3218656   1.819   0.464  10.227 -0.6528 -0.1321  0.0319
  166SOPE   H2X18657   1.740   0.462  10.150  0.8126  2.1530 -1.5798
  166SOPE   H2Y18658   1.783   0.407  10.316  0.5898  0.9681  1.2630
  166SOPE   C2318659   1.625   1.197  10.494  0.0763 -0.1116 -0.6102
  166SOPE   H3R18660   1.615   1.303  10.523 -3.3636  0.2463 -2.7090
  166SOPE   H3S18661   1.525   1.160  10.527 -0.3104  1.6756  0.2860
  166SOPE   C2418662   1.656   1.187  10.342  0.1165 -0.1192 -0.0787
  166SOPE   H4R18663   1.761   1.222  10.332 -0.6136  1.9900 -0.6383
  166SOPE   H4S18664   1.653   1.082  10.304 -3.6732 -0.4875  1.0545
  166SOPE   C2518665   1.572   1.277  10.253 -0.3240  0.0277  1.0407
  166SOPE   H5R18666   1.465   1.260  10.276 -0.3573 -1.1674  0.0161
  166SOPE   H5S18667   1.592   1.383  10.281  2.1293 -0.6352  1.9407
  166SOPE   C2618668   1.594   1.243  10.107  0.7162  0.6804 -0.7778
  166SOPE   H6R18669   1.702   1.225  10.092  0.8217  1.7430 -1.3064
  166SOPE   H6S18670   1.556   1.145  10.071  0.7422  0.6013 -0.5908
  166SOPE   C2718671   1.549   1.355  10.012  0.1636 -0.0555  0.2757
  166SOPE   H7R18672   1.439   1.363  10.025 -0.0089 -2.4974  0.5300
  166SOPE   H7S18673   1.591   1.451  10.048  1.3195  0.5947 -2.6563
  166SOPE   C2818674   1.567   1.328   9.862 -0.0831 -0.5665 -0.0129
  166SOPE   H8R18675   1.538   1.226   9.829 -2.5421  0.1263 -0.1269
  166SOPE   H8S18676   1.492   1.394   9.813 -1.0526 -0.9882  0.8739
  166SOPE   C2918677   1.692   1.362   9.786  0.3594 -0.1787  0.3772
  166SOPE   H9118678   1.777   1.392   9.850 -1.4635 -0.6018  3.0474
  166SOPE  C21018679   1.708   1.353   9.649 -0.2240 -0.6562  0.4561
  166SOPE  H10118680   1.811   1.371   9.615  0.1001 -1.7221  0.8510
  166SOPE  C21118681   1.601   1.319   9.542  0.4566  0.1549 -0.0702
  166SOPE  H11R18682   1.527   1.402   9.547  0.1326 -0.1587  0.3826
  166SOPE  H11S18683   1.538   1.232   9.571 -0.5505  1.0140  0.3673
  166SOPE  C21218684   1.651   1.308   9.399 -0.3114 -0.0180  0.3039
  166SOPE  H12R18685   1.718   1.395   9.385 -2.3629  1.2627 -1.8741
  166SOPE  H12S18686   1.583   1.298   9.312 -1.1197 -1.9033  1.1277
  166SOPE  C21318687   1.753   1.196   9.383 -0.0414  0.2352 -0.2073
  166SOPE  H13R18688   1.712   1.100   9.421  0.1485  0.2293 -0.0220
  166SOPE  H13S18689   1.844   1.209   9.445 -1.3055  0.3722  1.6461
  166SOPE  C21418690   1.797   1.175   9.238  0.1449 -0.4227 -0.3298
  166SOPE  H14R18691   1.803   1.266   9.175  0.1235  0.3705  0.8035
  166SOPE  H14S18692   1.722   1.102   9.200 -1.6295  1.0081  0.3371
  166SOPE  C21518693   1.925   1.097   9.225  0.3553 -0.0606  0.3183
  166SOPE  H15R18694   1.922   0.999   9.277 -1.6487 -0.4446 -0.4394
  166SOPE  H15S18695   2.011   1.153   9.267  0.6902  0.7682 -1.4231
  166SOPE  C21618696   1.964   1.061   9.078  0.3416 -0.2954 -0.4501
  166SOPE  H16R18697   1.967   1.154   9.018  0.0085  0.1748  0.2558
  166SOPE  H16S18698   1.886   0.992   9.040 -0.5237 -0.4030  1.4831
  166SOPE  C21718699   2.109   1.018   9.059 -0.5284 -0.4768 -0.1798
  166SOPE  H17R18700   2.148   0.987   9.158 -0.6941  1.5347  0.5486
  166SOPE  H17S18701   2.173   1.104   9.027 -0.6688 -0.6548 -0.9487
  166SOPE  C21818702   2.116   0.907   8.953 -0.5789  0.1358 -0.1926
  166SOPE  H18R18703   2.047   0.822   8.973  1.5388 -0.8520  3.3497
  166SOPE  H18S18704   2.215   0.858   8.958 -0.9234 -0.5606 -0.2102
  166SOPE  H18T18705   2.103   0.951   8.851 -0.6896  0.1315 -0.1805
  166SOPE   C3318706   1.957   0.417  10.174 -0.3077 -0.2777  0.3515
  166SOPE   H3X18707   2.023   0.437  10.261  2.4295  0.3742 -1.7841
  166SOPE   H3Y18708   1.989   0.492  10.098 -0.1088 -1.3339 -0.6213
  166SOPE   C3418709   1.965   0.272  10.112  0.3261 -0.6118  1.1356
  166SOPE   H4X18710   1.868   0.222  10.135  1.1473 -0.9151  4.1951
  166SOPE   H4Y18711   2.048   0.216  10.161 -0.5566 -2.4466  0.5655
  166SOPE   C3518712   1.993   0.267   9.960  0.3714 -0.0173 -0.0356
  166SOPE   H5X18713   2.044   0.173   9.929 -1.0092 -0.0122 -2.4679
  166SOPE   H5Y18714   2.061   0.350   9.931  0.1066  0.8162  1.6955
  166SOPE   C3618715   1.859   0.278   9.888 -0.2977  0.2437 -0.0694
  166SOPE   H6X18716   1.821   0.377   9.919  1.4561  0.5281  1.2533
  166SOPE   H6Y18717   1.789   0.198   9.921 -1.3413  1.9715  2.0752
  166SOPE   C3718718   1.869   0.276   9.736 -0.7105  0.5362  1.1347
  166SOPE   H7X18719   1.937   0.192   9.710 -2.4538 -1.2566  2.2894
  166SOPE   H7Y18720   1.925   0.370   9.715 -0.0043  0.9132  4.3402
  166SOPE   C3818721   1.737   0.272   9.664  0.4011  0.2657  0.8868
  166SOPE   H8X18722   1.678   0.363   9.688 -0.6791 -0.6585  1.7648
  166SOPE   H8Y18723   1.678   0.191   9.713 -1.4602  2.1439  1.8309
  166SOPE   C3918724   1.752   0.248   9.515  0.2891 -0.9106 -0.0953
  166SOPE   H9X18725   1.768   0.144   9.481 -0.2473 -0.9529 -0.2259
  166SOPE   H9Y18726   1.832   0.321   9.488  0.2177 -1.0044 -0.5600
  166SOPE  C31018727   1.635   0.305   9.431  0.3345 -0.3244  0.0033
  166SOPE  H10X18728   1.652   0.413   9.450  0.2395 -0.4458  0.8326
  166SOPE  H10Y18729   1.539   0.273   9.478  1.7100 -2.0085  1.7444
  166SOPE  C31118730   1.637   0.272   9.280 -0.8259 -0.2281 -0.1363
  166SOPE  H11X18731   1.657   0.163   9.275 -1.1192 -0.1918 -3.4517
  166SOPE  H11Y18732   1.729   0.302   9.227 -2.9724  1.3015 -3.1990
  166SOPE  C31218733   1.512   0.307   9.207  1.0447 -0.4819  0.0103
  166SOPE  H12X18734   1.503   0.418   9.207  2.8991 -0.3140 -0.5227
  166SOPE  H12Y18735   1.421   0.266   9.256  1.4445 -0.4353  0.8057
  166SOPE  C31318736   1.514   0.271   9.062  0.0967 -0.3764  0.2029
  166SOPE  H13X18737   1.516   0.162   9.039 -0.3595 -0.2509 -0.4481
  166SOPE  H13Y18738   1.606   0.307   9.011  1.6357 -2.1589  1.6324
  166SOPE  C31418739   1.377   0.320   8.998  0.6676 -0.0182 -0.2243
  166SOPE  H14X18740   1.373   0.429   9.020 -0.7540  0.2266 -1.6770
  166SOPE  H14Y18741   1.303   0.290   9.075  0.1365  1.4287 -0.1656
  166SOPE  C31518742   1.370   0.286   8.855  0.0564 -0.5734 -0.0524
  166SOPE  H15X18743   1.268   0.309   8.819  0.7734 -0.5504 -2.1370
  166SOPE  H15Y18744   1.378   0.176   8.841  0.8051 -0.3655 -1.3867
  166SOPE  C31618745   1.471   0.348   8.771  0.3005  0.6732  0.5882
  166SOPE  H16X18746   1.572   0.319   8.807  1.3485  1.1159 -1.8488
  166SOPE  H16Y18747   1.458   0.458   8.783 -1.2048  0.7497 -1.4663
  166SOPE  C31718748   1.453   0.304   8.621  0.0415 -0.1899 -0.4457
  166SOPE  H17X18749   1.463   0.193   8.629 -1.0403 -0.3282 -1.0248
  166SOPE  H17Y18750   1.544   0.349   8.575  0.5909 -2.1863 -1.3747
  166SOPE  C31818751   1.312   0.331   8.553  0.0632 -0.2247 -0.0793
  166SOPE  H18X18752   1.319   0.340   8.442 -2.6570  0.5248 -0.2057
  166SOPE  H18Y18753   1.260   0.423   8.585 -3.1752 -1.4253 -1.6904
  166SOPE  H18Z18754   1.245   0.246   8.574  1.1414 -1.5174 -1.7290
  167SOPE     N18755   2.749   5.460   6.293  0.1260 -0.2734  0.4640
  167SOPE   HN118756   2.683   5.536   6.321  0.9468  0.7025 -0.1922
  167SOPE   HN218757   2.688   5.376   6.295 -0.0197 -0.2905 -2.0596
  167SOPE   HN318758   2.812   5.452   6.375 -0.6483  0.6850  1.1657
  167SOPE   C1218759   2.807   5.471   6.151  0.0806 -0.6726  0.0611
  167SOPE  H12A18760   2.804   5.582   6.145 -0.2640 -0.6402  0.9114
  167SOPE  H12B18761   2.726   5.436   6.083  1.0797  1.4935 -2.3839
  167SOPE   C1118762   2.946   5.414   6.140 -0.5519  0.1479 -0.2490
  167SOPE  H11A18763   2.969   5.406   6.031 -0.3154  1.0311 -0.2686
  167SOPE  H11B18764   2.942   5.312   6.182 -0.8287  0.4110  0.3693
  167SOPE     P18765   3.114   5.452   6.338 -0.1455 -0.0278 -0.6550
  167SOPE   O1318766   3.154   5.569   6.422  0.3595 -0.1549 -0.1707
  167SOPE   O1418767   3.211   5.351   6.293  0.3672  0.1222 -0.4607
  167SOPE   O1218768   3.039   5.501   6.207 -0.2580 -0.0845 -1.3298
  167SOPE   O1118769   2.997   5.378   6.413 -0.5687 -0.2748 -0.5154
  167SOPE    C118770   3.027   5.284   6.517  0.4709 -0.0364 -0.5051
  167SOPE    HA18771   3.115   5.326   6.571 -0.5924  1.6851 -0.0453
  167SOPE    HB18772   3.051   5.186   6.472 -0.0494 -0.6249  0.4920
  167SOPE    C218773   2.929   5.274   6.635 -0.1297 -0.0657  0.4904
  167SOPE    HS18774   2.823   5.255   6.609  1.0229 -2.9236 -2.4647
  167SOPE   O2118775   2.942   5.391   6.721  0.7938 -0.0112 -0.7034
  167SOPE   C2118776   2.864   5.489   6.694  1.0481  0.2143 -0.0192
  167SOPE   O2218777   2.805   5.495   6.587 -0.2462  0.3417  0.8340
  167SOPE   C2218778   2.865   5.588   6.813 -1.1173  0.4816 -0.3801
  167SOPE   H2R18779   2.824   5.685   6.776 -1.0490  0.5889 -0.1784
  167SOPE   H2S18780   2.974   5.598   6.832 -1.1160  0.6896 -0.4870
  167SOPE    C318781   2.953   5.139   6.722  0.2554 -0.2461 -0.3690
  167SOPE    HX18782   2.958   5.049   6.657  1.8983 -1.3508  1.2617
  167SOPE    HY18783   2.866   5.124   6.789 -0.3266  0.9170 -0.8536
  167SOPE   O3118784   3.074   5.153   6.803  0.2843  0.3103 -0.3390
  167SOPE   C3118785   3.189   5.099   6.759  0.1666 -0.0412 -0.8256
  167SOPE   O3218786   3.199   5.040   6.654 -0.3694  0.0062  0.2849
  167SOPE   C3218787   3.293   5.139   6.864 -0.0780 -0.7947 -0.2373
  167SOPE   H2X18788   3.258   5.106   6.965  0.1238 -0.7852 -0.1639
  167SOPE   H2Y18789   3.293   5.250   6.869  2.3704 -0.7460 -0.3335
  167SOPE   C2318790   2.796   5.539   6.936  0.0498  0.1964  0.2851
  167SOPE   H3R18791   2.835   5.436   6.946  1.5403  0.4467 -2.4353
  167SOPE   H3S18792   2.685   5.551   6.934 -0.0048 -0.3376 -1.4540
  167SOPE   C2418793   2.852   5.620   7.055  0.5646 -0.1150 -0.2376
  167SOPE   H4R18794   2.962   5.606   7.065  0.8356  1.7800 -0.3647
  167SOPE   H4S18795   2.822   5.725   7.033 -0.9982 -0.7076 -0.9646
  167SOPE   C2518796   2.791   5.573   7.185  0.1534 -0.1668 -0.0747
  167SOPE   H5R18797   2.684   5.602   7.172  0.7127  1.1404 -2.0271
  167SOPE   H5S18798   2.805   5.463   7.185  0.5546 -0.1557  3.0646
  167SOPE   C2618799   2.848   5.633   7.306  0.0202  0.9938 -0.5033
  167SOPE   H6R18800   2.956   5.607   7.312 -0.2736  0.4293  3.3086
  167SOPE   H6S18801   2.836   5.742   7.321 -0.0423  0.8367  0.6212
  167SOPE   C2718802   2.779   5.565   7.433 -0.5594  0.5898 -1.0975
  167SOPE   H7R18803   2.785   5.637   7.517  0.3098 -0.5072 -0.2124
  167SOPE   H7S18804   2.671   5.559   7.408 -0.4162 -0.2449 -1.5525
  167SOPE   C2818805   2.826   5.424   7.468  0.2997  0.2815 -0.4731
  167SOPE   H8R18806   2.764   5.367   7.540  0.1510 -1.7681 -2.1727
  167SOPE   H8S18807   2.823   5.361   7.376 -1.4473 -0.6541  0.1999
  167SOPE   C2918808   2.966   5.437   7.526  0.6480  0.1729 -0.3618
  167SOPE   H9118809   3.048   5.441   7.453  0.7239 -1.3737 -0.3746
  167SOPE  C21018810   2.993   5.440   7.662 -0.5711  0.6832  0.7527
  167SOPE  H10118811   3.097   5.461   7.691 -0.1993  0.4445 -0.3803
  167SOPE  C21118812   2.896   5.457   7.782 -0.4700 -0.0444 -0.5558
  167SOPE  H11R18813   2.829   5.368   7.780 -0.7586  0.1975 -2.0575
  167SOPE  H11S18814   2.838   5.549   7.759  1.9421  1.6015 -0.1866
  167SOPE  C21218815   2.954   5.491   7.919 -0.4232 -0.4414  0.2430
  167SOPE  H12R18816   3.033   5.568   7.924  2.4071 -3.2959  1.7070
  167SOPE  H12S18817   3.003   5.395   7.946 -0.3851 -0.1387  1.2834
  167SOPE  C21318818   2.856   5.548   8.023  0.4161  0.1376 -0.2137
  167SOPE  H13R18819   2.777   5.470   8.026  1.6504 -1.4513 -5.2251
  167SOPE  H13S18820   2.808   5.636   7.976  0.1323  0.0288 -0.1257
  167SOPE  C21418821   2.914   5.568   8.162  0.1686  1.1233 -0.1886
  167SOPE  H14R18822   2.836   5.622   8.220 -1.5795 -2.2180  0.7052
  167SOPE  H14S18823   3.007   5.629   8.165  0.5733  0.5084  4.3186
  167SOPE  C21518824   2.940   5.445   8.249  0.0389  0.1836  0.0587
  167SOPE  H15R18825   3.031   5.387   8.220 -0.2335  0.4815 -1.4571
  167SOPE  H15S18826   2.856   5.373   8.244 -0.4904  0.8935 -1.6329
  167SOPE  C21618827   2.964   5.473   8.402  0.1831 -0.3128 -0.2274
  167SOPE  H16R18828   2.868   5.471   8.458  1.5472 -1.0341  2.1305
  167SOPE  H16S18829   2.993   5.581   8.404 -3.6628  0.8012 -0.1792
  167SOPE  C21718830   3.072   5.388   8.472  0.0026 -0.0383 -0.4043
  167SOPE  H17R18831   3.097   5.416   8.577  0.9273 -0.1847 -0.5727
  167SOPE  H17S18832   3.165   5.415   8.417  0.0859 -0.2705 -0.3775
  167SOPE  C21818833   3.036   5.237   8.479 -0.2967  0.6908  0.1399
  167SOPE  H18R18834   3.036   5.193   8.377  0.0893  0.2424  0.3302
  167SOPE  H18S18835   2.937   5.212   8.522 -0.1949 -3.0392 -1.5924
  167SOPE  H18T18836   3.108   5.180   8.542 -1.1144  1.2235  1.5805
  167SOPE   C3318837   3.438   5.104   6.838  0.5011 -0.3864 -0.5043
  167SOPE   H3X18838   3.471   5.175   6.758  0.0989  0.1456 -0.2052
  167SOPE   H3Y18839   3.439   4.994   6.829 -2.1112 -0.3804 -1.1521
  167SOPE   C3418840   3.514   5.122   6.973  0.3549  0.2656 -0.4540
  167SOPE   H4X18841   3.472   5.043   7.039 -0.8505  2.9201  2.0793
  167SOPE   H4Y18842   3.481   5.219   7.015  0.4007 -0.3494  1.0379
  167SOPE   C3518843   3.667   5.112   6.954  0.2167 -0.1119 -0.3995
  167SOPE   H5X18844   3.696   5.170   6.864 -3.2244 -2.3332 -3.0748
  167SOPE   H5Y18845   3.687   5.005   6.930  0.0077  0.1375 -1.7068
  167SOPE   C3618846   3.737   5.151   7.082  0.1504 -0.1290  0.2185
  167SOPE   H6X18847   3.713   5.259   7.095 -0.4417 -0.3862  1.2768
  167SOPE   H6Y18848   3.847   5.151   7.069  0.2187  2.5950  0.5428
  167SOPE   C3718849   3.698   5.081   7.210 -0.3353 -0.2111 -0.5853
  167SOPE   H7X18850   3.743   4.980   7.205  2.6838  0.9391  2.1750
  167SOPE   H7Y18851   3.591   5.055   7.228 -0.3762  0.3497  0.0195
  167SOPE   C3818852   3.760   5.159   7.331  0.3923 -0.0059 -0.1210
  167SOPE   H8X18853   3.704   5.254   7.333  0.6454  0.2165 -2.5126
  167SOPE   H8Y18854   3.867   5.186   7.315  0.3918 -0.3363 -0.6842
  167SOPE   C3918855   3.765   5.081   7.466 -0.5146 -0.1117 -0.9706
  167SOPE   H9X18856   3.844   5.003   7.466 -1.6641 -1.3042 -0.9505
  167SOPE   H9Y18857   3.672   5.020   7.472 -2.4251  2.5937 -1.6988
  167SOPE  C31018858   3.786   5.174   7.582  0.2211  0.2648 -0.8458
  167SOPE  H10X18859   3.712   5.257   7.578 -1.2347 -1.0540 -2.0506
  167SOPE  H10Y18860   3.888   5.217   7.580  1.0790 -1.6393  0.5458
  167SOPE  C31118861   3.771   5.103   7.722 -0.1022 -0.4761  0.0057
  167SOPE  H11X18862   3.855   5.032   7.742 -0.5943 -0.7259  1.2289
  167SOPE  H11Y18863   3.681   5.037   7.716 -0.4857  0.0556 -0.0933
  167SOPE  C31218864   3.762   5.202   7.839 -0.4517  0.0037  0.3260
  167SOPE  H12X18865   3.694   5.285   7.811 -0.3658  0.3580  1.1578
  167SOPE  H12Y18866   3.859   5.256   7.843 -0.2521 -0.3701  0.5127
  167SOPE  C31318867   3.723   5.135   7.972 -0.8986 -0.2535  0.1069
  167SOPE  H13X18868   3.769   5.034   7.967  1.8367  0.8185  1.9176
  167SOPE  H13Y18869   3.613   5.141   7.975 -0.9055 -0.6490  3.4088
  167SOPE  C31418870   3.776   5.215   8.086  0.1068 -0.9857  0.3568
  167SOPE  H14X18871   3.740   5.319   8.074  1.3696 -0.5353  0.3820
  167SOPE  H14Y18872   3.886   5.232   8.095 -0.5556  2.6579  2.4240
  167SOPE  C31518873   3.734   5.145   8.219  0.1527  0.2564 -0.4387
  167SOPE  H15X18874   3.768   5.041   8.231  1.3852  0.6507 -0.4644
  167SOPE  H15Y18875   3.625   5.166   8.229  0.1519 -0.1520  0.4027
  167SOPE  C31618876   3.800   5.206   8.344  0.0992  0.2399  0.5213
  167SOPE  H16X18877   3.780   5.315   8.338  2.9209  0.7034 -1.9209
  167SOPE  H16Y18878   3.910   5.203   8.330 -0.2619 -0.8897 -2.6525
  167SOPE  C31718879   3.772   5.140   8.485 -0.3280 -0.9359 -0.3194
  167SOPE  H17X18880   3.664   5.119   8.500 -0.1790 -1.8911 -0.5813
  167SOPE  H17Y18881   3.791   5.216   8.564 -0.2491 -1.2354 -0.0489
  167SOPE  C31818882   3.853   5.019   8.521  0.2114 -0.5168  0.5256
  167SOPE  H18X18883   3.828   4.984   8.624 -0.7975  0.1653  0.5284
  167SOPE  H18Y18884   3.963   5.032   8.514 -0.1168  1.3064 -1.8230
  167SOPE  H18Z18885   3.831   4.936   8.451 -0.8686  0.8048 -0.7242
  168SOPE     N18886   2.780   2.132   6.016 -0.6980 -0.7092  0.0804
  168SOPE   HN118887   2.704   2.197   6.046 -0.6922  0.1509 -1.6744
  168SOPE   HN218888   2.779   2.121   5.913 -0.0373  0.0788 -0.0163
  168SOPE   HN318889   2.764   2.036   6.051  1.3529 -1.1337 -0.1043
  168SOPE   C1218890   2.910   2.179   6.078  1.2372 -0.3363  0.1338
  168SOPE  H12A18891   2.936   2.271   6.021 -1.1519  0.2812 -0.0111
  168SOPE  H12B18892   2.989   2.103   6.063  1.5107 -0.3957  1.7636
  168SOPE   C1118893   2.898   2.206   6.234 -0.0661  0.6825 -0.5794
  168SOPE  H11A18894   2.870   2.115   6.291  0.4083  1.6198  1.1808
  168SOPE  H11B18895   2.811   2.273   6.250  0.6649  0.8954  2.8721
  168SOPE     P18896   3.054   2.260   6.440 -0.5837  0.1499 -0.2303
  168SOPE   O1318897   3.089   2.394   6.487 -0.0983  0.6269  0.7215
  168SOPE   O1418898   3.161   2.157   6.453 -0.0019  0.0983  0.3466
  168SOPE   O1218899   3.016   2.273   6.283 -0.1292  0.0145  0.4791
  168SOPE   O1118900   2.921   2.216   6.524 -1.1325  0.0106  0.3563
  168SOPE    C118901   2.826   2.305   6.551  0.5852 -0.5307 -0.2386
  168SOPE    HA18902   2.730   2.264   6.513  0.3515 -0.3048  0.1095
  168SOPE    HB18903   2.839   2.407   6.507  0.2081  0.4007  1.7366
  168SOPE    C218904   2.807   2.324   6.705 -0.9370  0.2516  1.2501
  168SOPE    HS18905   2.896   2.373   6.751  0.3485 -1.4393  0.6311
  168SOPE   O2118906   2.784   2.197   6.766 -0.4699  0.2831 -0.2376
  168SOPE   C2118907   2.891   2.130   6.787  0.2683  0.1893 -0.0087
  168SOPE   O2218908   3.008   2.166   6.800 -0.0221  0.0952  0.1157
  168SOPE   C2218909   2.850   1.984   6.807  0.1420 -0.6523  1.2514
  168SOPE   H2R18910   2.949   1.933   6.809  1.0187  1.0117  0.7353
  168SOPE   H2S18911   2.804   1.951   6.711 -0.4735  1.2596  0.8806
  168SOPE    C318912   2.682   2.414   6.727 -0.5394  0.0939  0.1611
  168SOPE    HX18913   2.592   2.362   6.687  1.0923 -2.3343 -0.4438
  168SOPE    HY18914   2.704   2.507   6.671  1.3922  0.4676  1.5263
  168SOPE   O3118915   2.664   2.443   6.869  0.0912  0.3511 -0.4998
  168SOPE   C3118916   2.745   2.540   6.914 -0.7267  0.0119 -0.0817
  168SOPE   O3218917   2.837   2.593   6.858 -0.2641  0.2781  0.0297
  168SOPE   C3218918   2.696   2.551   7.058  0.1342 -0.1301 -0.3126
  168SOPE   H2X18919   2.700   2.455   7.115  1.8426 -0.9595 -1.7844
  168SOPE   H2Y18920   2.594   2.592   7.049  0.5457  1.0336  0.2652
  168SOPE   C2318921   2.764   1.950   6.930  0.0941 -0.0106  0.1358
  168SOPE   H3R18922   2.722   1.847   6.926 -1.8066  0.7878 -1.6145
  168SOPE   H3S18923   2.676   2.018   6.938 -2.0127 -2.2021 -2.9397
  168SOPE   C2418924   2.845   1.961   7.055  0.3859  0.7603  0.1644
  168SOPE   H4R18925   2.931   1.890   7.049 -0.8641 -0.6944 -0.8707
  168SOPE   H4S18926   2.883   2.065   7.060  0.6415  0.6461  0.6528
  168SOPE   C2518927   2.770   1.926   7.183  0.1448 -0.3777  0.2544
  168SOPE   H5R18928   2.683   1.995   7.186 -0.0589 -0.5893 -0.6070
  168SOPE   H5S18929   2.734   1.821   7.179  1.0239 -0.6543 -0.6049
  168SOPE   C2618930   2.853   1.941   7.314  0.2308  0.0182  0.5835
  168SOPE   H6R18931   2.944   1.880   7.297  0.1118  0.6207 -2.4695
  168SOPE   H6S18932   2.876   2.050   7.318 -1.6298  0.6117 -3.1823
  168SOPE   C2718933   2.768   1.895   7.427 -0.7378 -0.4745  0.8853
  168SOPE   H7R18934   2.674   1.953   7.412 -0.4404  0.3159  1.9836
  168SOPE   H7S18935   2.742   1.788   7.409 -0.4131 -0.3477 -0.3584
  168SOPE   C2818936   2.837   1.923   7.559  0.3852 -1.0778  0.0238
  168SOPE   H8R18937   2.790   1.859   7.637 -1.4428  0.0085 -0.1751
  168SOPE   H8S18938   2.945   1.900   7.542  0.6411 -0.2349  0.4741
  168SOPE   C2918939   2.810   2.068   7.594  0.7144 -0.1537  0.3005
  168SOPE   H9118940   2.880   2.145   7.559 -0.8831  1.7590  1.2388
  168SOPE  C21018941   2.703   2.107   7.667  0.3897 -0.5956 -1.3017
  168SOPE  H10118942   2.687   2.212   7.693 -0.8889 -0.8886 -0.8474
  168SOPE  C21118943   2.590   2.022   7.725 -0.8612 -0.3749 -0.7392
  168SOPE  H11R18944   2.583   1.921   7.681  0.3923 -1.5197  1.5664
  168SOPE  H11S18945   2.493   2.075   7.716 -1.0125 -0.5395 -0.1058
  168SOPE  C21218946   2.613   2.006   7.884 -0.2358  0.4191 -0.2096
  168SOPE  H12R18947   2.603   2.106   7.931  1.8471  1.1735 -1.2875
  168SOPE  H12S18948   2.717   1.967   7.891 -0.7546 -0.8072  0.7389
  168SOPE  C21318949   2.522   1.902   7.946  0.4360  0.1153 -0.2343
  168SOPE  H13R18950   2.562   1.798   7.951 -0.9351 -0.4681 -0.9267
  168SOPE  H13S18951   2.425   1.897   7.891  0.4921 -1.3084 -0.2172
  168SOPE  C21418952   2.493   1.935   8.094  0.7020 -0.3635  0.5260
  168SOPE  H14R18953   2.465   2.042   8.104 -0.3532 -0.5787 -0.0980
  168SOPE  H14S18954   2.580   1.921   8.162  0.4006 -1.2386  0.7346
  168SOPE  C21518955   2.373   1.849   8.142 -0.1956 -0.4906  0.1116
  168SOPE  H15R18956   2.383   1.746   8.102  0.3363 -0.2488 -0.3964
  168SOPE  H15S18957   2.283   1.893   8.094 -0.3034 -0.8433 -0.0137
  168SOPE  C21618958   2.338   1.854   8.291  0.6182 -0.4442  0.5277
  168SOPE  H16R18959   2.305   1.954   8.326 -0.9016 -1.5504  2.3578
  168SOPE  H16S18960   2.429   1.813   8.340 -0.2352 -2.3940  0.5157
  168SOPE  C21718961   2.219   1.762   8.313  0.1568 -0.7856  0.0363
  168SOPE  H17R18962   2.139   1.778   8.237  0.0036 -0.3358  0.2950
  168SOPE  H17S18963   2.160   1.783   8.404 -2.4777 -0.6550 -1.6290
  168SOPE  C21818964   2.263   1.620   8.317 -0.1170  0.4353 -0.3252
  168SOPE  H18R18965   2.170   1.564   8.342  0.0334  1.8294  3.5974
  168SOPE  H18S18966   2.344   1.591   8.387  0.7028  0.2508 -1.3225
  168SOPE  H18T18967   2.293   1.585   8.215  0.0168 -2.4093  0.6401
  168SOPE   C3318968   2.791   2.648   7.136 -0.3884 -0.0937  0.4112
  168SOPE   H3X18969   2.828   2.736   7.079  1.5337 -0.3248  1.2841
  168SOPE   H3Y18970   2.882   2.589   7.160 -0.4958 -0.0205  0.9952
  168SOPE   C3418971   2.717   2.692   7.266  0.0753  0.1771  0.6880
  168SOPE   H4X18972   2.611   2.719   7.244 -0.7779 -1.8658  2.0736
  168SOPE   H4Y18973   2.771   2.781   7.303  0.1114  0.9545 -1.1647
  168SOPE   C3518974   2.719   2.582   7.376 -0.6920 -0.2312 -0.4079
  168SOPE   H5X18975   2.827   2.564   7.395 -0.6325  0.7049  0.1351
  168SOPE   H5Y18976   2.675   2.488   7.335 -1.7131 -0.1158  0.4033
  168SOPE   C3618977   2.661   2.628   7.506  0.2541 -0.2222 -0.6759
  168SOPE   H6X18978   2.554   2.656   7.499 -0.3842 -2.5038 -0.3987
  168SOPE   H6Y18979   2.716   2.720   7.536  1.7589 -1.0370 -0.8594
  168SOPE   C3718980   2.663   2.526   7.619 -1.0829 -0.1829 -0.2927
  168SOPE   H7X18981   2.763   2.483   7.636 -1.1436  0.3178  1.3640
  168SOPE   H7Y18982   2.590   2.446   7.596 -0.7711 -0.3030 -0.8931
  168SOPE   C3818983   2.638   2.588   7.756  0.2804 -0.6451 -0.1616
  168SOPE   H8X18984   2.536   2.631   7.757  0.2968 -0.5968 -0.4292
  168SOPE   H8Y18985   2.694   2.681   7.778 -3.8237  1.9372 -0.2677
  168SOPE   C3918986   2.644   2.486   7.875  0.2365 -0.3179  0.4726
  168SOPE   H9X18987   2.751   2.456   7.880  0.8896  2.1086  1.3634
  168SOPE   H9Y18988   2.584   2.398   7.844 -1.5080  1.0379 -0.0701
  168SOPE  C31018989   2.605   2.546   8.006  0.1759 -0.1596 -0.1628
  168SOPE  H10X18990   2.495   2.561   7.992  0.2541  2.1236  1.4708
  168SOPE  H10Y18991   2.642   2.649   8.027 -2.5562  0.6622  0.8753
  168SOPE  C31118992   2.632   2.455   8.118  0.0060 -0.4600 -0.0273
  168SOPE  H11X18993   2.743   2.441   8.122 -0.0060 -1.9748 -3.1663
  168SOPE  H11Y18994   2.599   2.354   8.085  1.5983 -0.5686 -1.3665
  168SOPE  C31218995   2.582   2.499   8.258  0.5560  0.0371  0.0109
  168SOPE  H12X18996   2.472   2.518   8.255  0.6001  0.2393 -0.3442
  168SOPE  H12Y18997   2.640   2.593   8.268 -2.3165  1.8516  0.0712
  168SOPE  C31318998   2.623   2.411   8.370 -0.3797 -0.8750 -0.0197
  168SOPE  H13X18999   2.606   2.446   8.474 -0.6266 -0.3399 -0.2382
  168SOPE  H13Y19000   2.731   2.400   8.347 -0.2587  0.4477 -0.1421
  168SOPE  C31419001   2.559   2.274   8.376 -0.0392  0.1879 -0.0736
  168SOPE  H14X19002   2.576   2.237   8.272  0.2982 -0.6413  0.2776
  168SOPE  H14Y19003   2.451   2.287   8.398 -0.0020  4.5162 -1.8271
  168SOPE  C31519004   2.623   2.178   8.481  0.8322 -0.4045  0.3313
  168SOPE  H15X19005   2.550   2.098   8.504 -0.5210  1.4207  2.7293
  168SOPE  H15Y19006   2.620   2.213   8.587  0.7597 -0.7200  0.4346
  168SOPE  C31619007   2.759   2.116   8.446 -0.2859  0.0708 -0.4418
  168SOPE  H16X19008   2.828   2.195   8.482 -1.1522  0.9309 -0.6798
  168SOPE  H16Y19009   2.780   2.116   8.337  0.7175  0.6741 -0.2645
  168SOPE  C31719010   2.784   1.987   8.520  0.0336  0.2697 -0.4915
  168SOPE  H17X19011   2.760   2.006   8.627 -1.7154  2.1322 -1.1905
  168SOPE  H17Y19012   2.892   1.960   8.514 -0.4265 -2.5504  2.3442
  168SOPE  C31819013   2.705   1.876   8.462  0.6299  0.4556  0.1923
  168SOPE  H18X19014   2.721   1.857   8.354 -0.2001  1.3427 -0.0970
  168SOPE  H18Y19015   2.596   1.899   8.463  0.7399  1.0365 -0.6453
  168SOPE  H18Z19016   2.730   1.783   8.518 -0.5741 -0.5706 -0.9603
  169SOPE     N19017   4.627   3.902   6.293 -0.0507  0.3832 -0.0319
  169SOPE   HN119018   4.697   3.964   6.247  0.6340 -0.5880 -0.3187
  169SOPE   HN219019   4.662   3.806   6.273 -1.9257 -0.4771  0.7334
  169SOPE   HN319020   4.540   3.902   6.236  0.5982  0.1640 -1.0488
  169SOPE   C1219021   4.609   3.922   6.440 -0.0301 -0.5696  0.2980
  169SOPE  H12A19022   4.584   3.825   6.488  1.4022  0.1104  2.5165
  169SOPE  H12B19023   4.522   3.991   6.450  0.4954  0.0390  0.7668
  169SOPE   C1119024   4.739   3.972   6.503 -0.1196  0.6565 -0.2586
  169SOPE  H11A19025   4.817   3.892   6.503  0.2742  1.0286 -1.6035
  169SOPE  H11B19026   4.720   3.994   6.610  0.3150  1.9526 -0.4464
  169SOPE     P19027   4.746   4.228   6.483 -0.5786 -0.0733 -0.0662
  169SOPE   O1319028   4.604   4.221   6.520 -0.0940  0.1764  0.0657
  169SOPE   O1419029   4.790   4.329   6.381 -0.1051  0.4366  0.3819
  169SOPE   O1219030   4.802   4.085   6.441  0.8370  1.0165 -0.3244
  169SOPE   O1119031   4.830   4.267   6.614  0.0597  0.1194  0.3246
  169SOPE    C119032   4.977   4.256   6.617 -0.2635 -0.0264 -0.1974
  169SOPE    HA19033   5.026   4.281   6.521 -0.1029 -1.6798 -0.5696
  169SOPE    HB19034   5.006   4.148   6.616 -1.9446 -0.5171  1.2154
  169SOPE    C219035   5.039   4.355   6.722  0.1372  0.1382  0.1425
  169SOPE    HS19036   5.146   4.341   6.750  0.0908 -0.1079  0.1960
  169SOPE   O2119037   4.965   4.338   6.841  0.4366 -0.3480  0.1495
  169SOPE   C2119038   4.958   4.207   6.873  0.2791  0.0189 -0.2004
  169SOPE   O2219039   5.037   4.119   6.848 -0.0431  0.4184 -0.2864
  169SOPE   C2219040   4.818   4.179   6.938  0.4966 -0.2850 -0.0300
  169SOPE   H2R19041   4.743   4.201   6.859 -1.6982  1.7866  2.5324
  169SOPE   H2S19042   4.816   4.252   7.022  1.2676  0.6009 -0.7689
  169SOPE    C319043   5.020   4.507   6.678  0.0082  0.2168  0.1950
  169SOPE    HX19044   4.912   4.533   6.690 -0.6169 -2.6708  1.2662
  169SOPE    HY19045   5.052   4.513   6.572  1.5128  0.5891  0.6641
  169SOPE   O3119046   5.093   4.587   6.759  0.1712 -0.6241 -0.2581
  169SOPE   C3119047   5.138   4.703   6.715 -0.2955  0.1650  0.1027
  169SOPE   O3219048   5.118   4.753   6.600  0.3802 -0.0844  0.3779
  169SOPE   C3219049   5.209   4.783   6.827 -0.0488  0.9921 -0.9303
  169SOPE   H2X19050   5.182   4.891   6.818  0.9117  1.5139  2.0014
  169SOPE   H2Y19051   5.317   4.774   6.802  0.4506  2.1693  0.6682
  169SOPE   C2319052   4.811   4.028   6.973  0.1112 -0.3221  0.0546
  169SOPE   H3R19053   4.902   3.999   7.029 -2.0923 -0.1376  3.9170
  169SOPE   H3S19054   4.801   3.975   6.876  1.0398  0.5868 -0.5367
  169SOPE   C2419055   4.685   3.992   7.060 -0.5345 -0.5567 -0.0312
  169SOPE   H4R19056   4.592   4.020   7.006  1.2437  0.1775 -2.8252
  169SOPE   H4S19057   4.675   3.881   7.065  1.9673 -0.7673  1.3150
  169SOPE   C2519058   4.695   4.062   7.201  0.1300  0.1736 -0.5526
  169SOPE   H5R19059   4.784   4.018   7.251  0.3039  0.6717 -0.4239
  169SOPE   H5S19060   4.715   4.171   7.199 -0.2677  0.2507 -0.4453
  169SOPE   C2619061   4.577   4.042   7.296  0.0703 -0.0240 -0.7788
  169SOPE   H6R19062   4.491   4.100   7.256 -0.7722 -0.1637  0.7715
  169SOPE   H6S19063   4.558   3.933   7.280 -0.4264 -0.0296 -0.1654
  169SOPE   C2719064   4.602   4.075   7.443  0.0719 -0.6144 -0.3990
  169SOPE   H7R19065   4.706   4.041   7.461  0.9723  0.8755 -2.5814
  169SOPE   H7S19066   4.589   4.178   7.480  0.2251  0.6836 -3.7618
  169SOPE   C2819067   4.543   3.978   7.548  0.2775 -0.1027  0.4554
  169SOPE   H8R19068   4.566   3.872   7.523 -2.1873 -0.0672 -2.1724
  169SOPE   H8S19069   4.593   4.006   7.643 -1.3659 -0.5283  1.4656
  169SOPE   C2919070   4.391   3.987   7.560  0.6328  0.2252  0.9777
  169SOPE   H9119071   4.333   4.005   7.469  1.6658  0.3248  0.3291
  169SOPE  C21019072   4.319   3.975   7.673 -0.7156  0.7505 -0.4758
  169SOPE  H10119073   4.209   3.975   7.670 -0.7083  1.8866 -0.9238
  169SOPE  C21119074   4.381   3.929   7.803  0.5759 -0.9205 -0.4203
  169SOPE  H11R19075   4.481   3.880   7.795  1.4787  0.4932  1.7273
  169SOPE  H11S19076   4.314   3.845   7.831  1.5383 -1.7903 -0.6854
  169SOPE  C21219077   4.386   4.032   7.921  0.1730  0.5037 -0.2494
  169SOPE  H12R19078   4.291   4.089   7.933  1.5434  2.5856  1.0544
  169SOPE  H12S19079   4.463   4.104   7.885  0.3746  0.7569  0.6892
  169SOPE  C21319080   4.436   3.980   8.060 -0.1497 -0.0630 -0.1512
  169SOPE  H13R19081   4.535   3.936   8.040 -1.4629 -3.5133  0.6715
  169SOPE  H13S19082   4.360   3.907   8.095 -0.1559  0.6156  1.2847
  169SOPE  C21419083   4.449   4.099   8.159  0.6392  0.1398  0.7682
  169SOPE  H14R19084   4.346   4.138   8.178  1.0606  3.2178 -2.6105
  169SOPE  H14S19085   4.513   4.178   8.114 -0.1110  0.8380  0.8985
  169SOPE  C21519086   4.511   4.060   8.298  0.4583  0.2171  0.0011
  169SOPE  H15R19087   4.616   4.025   8.297 -0.2465 -2.0718  1.9873
  169SOPE  H15S19088   4.451   3.974   8.335 -1.3123  1.3251 -0.2584
  169SOPE  C21619089   4.499   4.178   8.398 -0.5595 -0.5456  0.1192
  169SOPE  H16R19090   4.547   4.274   8.367 -0.1142 -0.6116  0.5861
  169SOPE  H16S19091   4.557   4.144   8.486  0.8299 -0.9417 -0.9363
  169SOPE  C21719092   4.349   4.213   8.450 -0.7981 -0.1518  0.4305
  169SOPE  H17R19093   4.304   4.115   8.479  1.0853 -0.9462  0.7086
  169SOPE  H17S19094   4.277   4.235   8.368  0.4417  2.3572 -0.0110
  169SOPE  C21819095   4.345   4.310   8.571 -0.8169  0.1988  0.0343
  169SOPE  H18R19096   4.385   4.405   8.529 -1.4914  0.1369 -0.7898
  169SOPE  H18S19097   4.409   4.268   8.651 -0.5887  0.0079 -0.2476
  169SOPE  H18T19098   4.247   4.323   8.623  0.3918  3.4529  1.5904
  169SOPE   C3319099   5.168   4.739   6.970  0.5921 -0.1374  0.4075
  169SOPE   H3X19100   5.207   4.635   6.978 -0.7809 -1.0040 -3.2983
  169SOPE   H3Y19101   5.057   4.735   6.976  0.5277  0.5205 -0.3239
  169SOPE   C3419102   5.222   4.830   7.080 -0.1607  0.6300  0.2057
  169SOPE   H4X19103   5.163   4.924   7.072  0.2200  0.9136  0.6864
  169SOPE   H4Y19104   5.329   4.857   7.071 -0.2722  1.7581  2.0650
  169SOPE   C3519105   5.189   4.772   7.221  0.2720 -0.6649 -0.1918
  169SOPE   H5X19106   5.232   4.670   7.227 -0.4812 -0.8645  2.3150
  169SOPE   H5Y19107   5.079   4.762   7.227  0.2485  0.0221  0.7278
  169SOPE   C3619108   5.251   4.840   7.342 -0.3843  0.3733 -0.2882
  169SOPE   H6X19109   5.255   4.950   7.334  0.5315  0.4425  0.9778
  169SOPE   H6Y19110   5.353   4.797   7.354 -0.8804 -0.6065  0.5217
  169SOPE   C3719111   5.175   4.797   7.470  0.3298  0.0869  0.7656
  169SOPE   H7X19112   5.202   4.689   7.477 -2.7205 -0.7095  1.1946
  169SOPE   H7Y19113   5.064   4.805   7.463  0.3531  0.1935  0.5263
  169SOPE   C3819114   5.236   4.862   7.593 -0.2598 -0.7179 -0.3779
  169SOPE   H8X19115   5.332   4.811   7.617  0.0997  0.1928  0.1262
  169SOPE   H8Y19116   5.256   4.971   7.581  1.9159 -0.7537  2.3742
  169SOPE   C3919117   5.157   4.843   7.723  0.6101 -0.0674 -0.3044
  169SOPE   H9X19118   5.055   4.882   7.703 -0.3389 -1.4569  1.6349
  169SOPE   H9Y19119   5.222   4.880   7.805  1.7099  0.4753 -1.4070
  169SOPE  C31019120   5.121   4.692   7.762 -0.0460 -0.0351 -0.4970
  169SOPE  H10X19121   5.212   4.636   7.794 -0.8411 -0.4076  1.1720
  169SOPE  H10Y19122   5.082   4.644   7.670  2.3794  1.2246 -2.2365
  169SOPE  C31119123   5.033   4.663   7.880 -0.0975  0.6279  0.3211
  169SOPE  H11X19124   5.006   4.556   7.870  2.0351 -0.0157  1.2846
  169SOPE  H11Y19125   4.942   4.726   7.869  0.5105  1.1847 -1.7357
  169SOPE  C31219126   5.113   4.694   8.007 -0.3158  0.7813 -0.6815
  169SOPE  H12X19127   5.130   4.803   8.018  2.2355  0.1725  1.9428
  169SOPE  H12Y19128   5.210   4.641   8.000 -0.9441 -0.5322  0.4069
  169SOPE  C31319129   5.029   4.646   8.125  0.2823  1.1707  0.6932
  169SOPE  H13X19130   5.026   4.535   8.117  2.3576  1.0856  0.9985
  169SOPE  H13Y19131   4.925   4.685   8.124 -0.1940 -0.0755  0.1073
  169SOPE  C31419132   5.099   4.676   8.265  0.2349  0.1793  0.3975
  169SOPE  H14X19133   5.045   4.617   8.342 -0.1791 -2.3787 -1.7836
  169SOPE  H14Y19134   5.089   4.785   8.282 -0.0424  0.2510 -0.2306
  169SOPE  C31519135   5.241   4.632   8.278 -0.0490 -0.6481 -0.6899
  169SOPE  H15X19136   5.295   4.707   8.216  1.0721 -0.5030  0.4280
  169SOPE  H15Y19137   5.262   4.529   8.240 -4.5553 -1.7790 -0.4191
  169SOPE  C31619138   5.288   4.631   8.422  0.5858 -0.3444 -0.8268
  169SOPE  H16X19139   5.221   4.567   8.484 -0.5374  0.2800 -1.3885
  169SOPE  H16Y19140   5.284   4.737   8.456  0.0273 -0.5346 -0.2908
  169SOPE  C31719141   5.438   4.591   8.440  0.1561 -0.4450 -0.3087
  169SOPE  H17X19142   5.451   4.611   8.548  2.9704 -3.2192 -0.0582
  169SOPE  H17Y19143   5.504   4.663   8.386 -1.0692  1.7804  1.0911
  169SOPE  C31819144   5.468   4.448   8.400  0.5845  0.2578  0.4256
  169SOPE  H18X19145   5.471   4.439   8.289  0.0391  1.2059  0.3303
  169SOPE  H18Y19146   5.408   4.370   8.451  0.3608  0.7597  0.9202
  169SOPE  H18Z19147   5.571   4.427   8.438  2.5655 -2.9503 -5.8712
  170SOPE     N19148   5.721   2.884   6.116  0.5125 -0.3869 -0.0996
  170SOPE   HN119149   5.743   2.890   6.014 -2.3738  1.1017 -0.6885
  170SOPE   HN219150   5.619   2.878   6.130 -0.2574 -0.6100 -4.9118
  170SOPE   HN319151   5.769   2.971   6.148  0.1612 -0.5007  0.7316
  170SOPE   C1219152   5.792   2.766   6.177  0.4843  0.3258  0.1035
  170SOPE  H12A19153   5.899   2.776   6.147  0.6994  1.4173  1.1672
  170SOPE  H12B19154   5.748   2.676   6.131  1.7363 -0.2063 -0.0689
  170SOPE   C1119155   5.773   2.768   6.332  0.0946  0.6787  0.0275
  170SOPE  H11A19156   5.816   2.862   6.373 -0.1295  0.7460  0.1111
  170SOPE  H11B19157   5.830   2.686   6.380 -1.1838 -0.5901 -0.5854
  170SOPE     P19158   5.532   2.661   6.367  0.4582  0.3365  0.0171
  170SOPE   O1319159   5.553   2.560   6.259  0.6149 -0.1474 -0.4784
  170SOPE   O1419160   5.397   2.719   6.378 -0.5979 -0.4674 -0.1771
  170SOPE   O1219161   5.638   2.775   6.364 -0.2435 -0.0734  0.8639
  170SOPE   O1119162   5.555   2.598   6.514 -0.0342  0.1748 -0.4391
  170SOPE    C119163   5.661   2.637   6.599 -0.5039  0.6980  0.1484
  170SOPE    HA19164   5.678   2.746   6.600  4.5468 -0.0149  1.2220
  170SOPE    HB19165   5.754   2.596   6.554 -1.8726 -1.9562 -0.3670
  170SOPE    C219166   5.642   2.571   6.737 -0.9050 -0.4786  0.5301
  170SOPE    HS19167   5.721   2.625   6.793 -2.0507  1.5056  0.2882
  170SOPE   O2119168   5.644   2.430   6.726 -0.7913 -0.3604 -1.1390
  170SOPE   C2119169   5.748   2.375   6.800  0.0037 -0.4040 -0.1177
  170SOPE   O2219170   5.830   2.439   6.858  0.3440  0.0732  0.2730
  170SOPE   C2219171   5.720   2.222   6.812  0.6732 -0.0275 -0.1029
  170SOPE   H2R19172   5.742   2.178   6.712  0.5271 -0.9999  0.2878
  170SOPE   H2S19173   5.613   2.213   6.837  0.2278  0.1028 -1.8707
  170SOPE    C319174   5.502   2.620   6.801  0.0819  0.0056  0.7375
  170SOPE    HX19175   5.423   2.574   6.737  1.1897 -0.2531 -0.4598
  170SOPE    HY19176   5.485   2.730   6.789  1.1170 -0.0501 -1.5727
  170SOPE   O3119177   5.488   2.576   6.935  0.1337 -0.3675  0.1103
  170SOPE   C3119178   5.568   2.647   7.016  0.0367  0.0737  0.4791
  170SOPE   O3219179   5.629   2.745   6.982  0.2712  0.1479  0.1922
  170SOPE   C3219180   5.561   2.592   7.159 -0.2361  0.1776 -0.1331
  170SOPE   H2X19181   5.622   2.500   7.153 -1.3472 -0.5794  0.0552
  170SOPE   H2Y19182   5.458   2.561   7.186 -0.2409 -1.4542 -1.9363
  170SOPE   C2319183   5.805   2.153   6.912 -0.4041 -0.1324  0.1268
  170SOPE   H3R19184   5.908   2.195   6.919  0.2310 -1.7993  1.2698
  170SOPE   H3S19185   5.824   2.048   6.881  0.1387 -0.1875  0.6282
  170SOPE   C2419186   5.737   2.143   7.050  0.1424 -0.4427  0.1451
  170SOPE   H4R19187   5.700   2.242   7.082  1.5293  1.2383 -3.1958
  170SOPE   H4S19188   5.650   2.078   7.025  0.1723 -0.8398  1.0672
  170SOPE   C2519189   5.824   2.081   7.167 -0.5949  0.5070 -0.0701
  170SOPE   H5R19190   5.760   2.030   7.242  0.5719 -3.1310 -1.4863
  170SOPE   H5S19191   5.883   1.999   7.122  2.0510  2.1831  0.2388
  170SOPE   C2619192   5.913   2.168   7.244  0.4582  0.4025 -0.3477
  170SOPE   H6R19193   6.008   2.116   7.268 -0.0983 -0.6676 -0.4754
  170SOPE   H6S19194   5.954   2.237   7.167  0.2031  0.3366 -0.5426
  170SOPE   C2719195   5.850   2.225   7.376 -0.3321  0.4535 -0.0522
  170SOPE   H7R19196   5.766   2.288   7.341 -0.4278  1.2694  1.6110
  170SOPE   H7S19197   5.811   2.134   7.426  0.6867  0.5640  0.9562
  170SOPE   C2819198   5.944   2.307   7.459 -0.6677  0.1629 -0.4326
  170SOPE   H8R19199   5.882   2.335   7.546 -1.8156  1.6321 -1.6840
  170SOPE   H8S19200   6.021   2.249   7.515  0.4186  2.2865  0.3377
  170SOPE   C2919201   6.013   2.421   7.393 -0.0448  0.7740 -0.1665
  170SOPE   H9119202   6.082   2.395   7.311 -2.1686  0.9559 -2.0630
  170SOPE  C21019203   6.007   2.551   7.425 -0.1876 -1.0013 -0.4098
  170SOPE  H10119204   6.071   2.616   7.364 -1.1193 -0.4827 -0.8581
  170SOPE  C21119205   5.925   2.615   7.535  0.2773 -0.2681  0.2543
  170SOPE  H11R19206   5.848   2.540   7.562 -0.0436 -0.1705 -0.3681
  170SOPE  H11S19207   5.872   2.706   7.498 -0.3833 -0.8975 -0.3613
  170SOPE  C21219208   6.014   2.652   7.653 -0.1016  0.4693 -0.1003
  170SOPE  H12R19209   6.098   2.716   7.620  0.6213 -0.6416 -0.4658
  170SOPE  H12S19210   6.053   2.552   7.684  0.2068  0.7713  0.4895
  170SOPE  C21319211   5.930   2.711   7.762 -0.4308  0.5717 -0.3425
  170SOPE  H13R19212   5.826   2.670   7.765  0.3120 -1.3188  0.4920
  170SOPE  H13S19213   5.922   2.820   7.743  1.7483  0.9932  0.9942
  170SOPE  C21419214   5.984   2.684   7.904 -0.5451  0.0814 -0.4732
  170SOPE  H14R19215   6.078   2.741   7.921 -0.4191 -0.4505  0.6557
  170SOPE  H14S19216   6.001   2.574   7.905  1.1654  0.3334  0.3562
  170SOPE  C21519217   5.882   2.710   8.014  0.0475 -0.4186 -0.2958
  170SOPE  H15R19218   5.796   2.646   7.986  0.9639 -1.4633 -0.7862
  170SOPE  H15S19219   5.855   2.816   7.999 -0.8009 -0.4702  0.8367
  170SOPE  C21619220   5.940   2.672   8.152  1.0890  0.4713  0.1011
  170SOPE  H16R19221   6.022   2.598   8.144 -0.2481 -0.8560 -1.9715
  170SOPE  H16S19222   5.854   2.627   8.207  2.9417 -0.7672  2.0115
  170SOPE  C21719223   5.973   2.800   8.233 -0.5568 -0.5233 -0.5112
  170SOPE  H17R19224   5.900   2.884   8.226 -2.4779 -1.9196  1.9036
  170SOPE  H17S19225   6.074   2.823   8.191 -0.4070 -3.2125 -1.7308
  170SOPE  C21819226   5.987   2.767   8.382 -0.4798  0.1224 -0.3797
  170SOPE  H18R19227   6.023   2.858   8.435  2.1787 -2.8794  3.2692
  170SOPE  H18S19228   6.058   2.684   8.403 -0.5813  0.0515 -0.3119
  170SOPE  H18T19229   5.890   2.739   8.429  1.4906 -2.6161  2.2535
  170SOPE   C3319230   5.630   2.693   7.257  0.6168  0.6802 -0.2577
  170SOPE   H3X19231   5.729   2.731   7.226  1.4058 -1.3672 -0.3783
  170SOPE   H3Y19232   5.647   2.646   7.356  0.7480 -0.1905 -0.6787
  170SOPE   C3419233   5.524   2.807   7.280  0.3392  0.2848  0.4256
  170SOPE   H4X19234   5.427   2.755   7.299  0.9362 -1.3088 -0.6900
  170SOPE   H4Y19235   5.517   2.878   7.195  0.9271  1.4659  1.3565
  170SOPE   C3519236   5.567   2.894   7.401  0.5466  0.1038 -0.7019
  170SOPE   H5X19237   5.498   2.981   7.396  0.7484  0.3327  0.2908
  170SOPE   H5Y19238   5.675   2.920   7.395  0.0554  2.7973  0.9021
  170SOPE   C3619239   5.540   2.829   7.542  0.0668 -0.0464  0.8952
  170SOPE   H6X19240   5.583   2.727   7.543 -0.5197 -0.3598 -1.7927
  170SOPE   H6Y19241   5.430   2.809   7.549  0.1301 -2.1076 -2.8874
  170SOPE   C3719242   5.588   2.906   7.667  0.0084 -0.1192  0.5389
  170SOPE   H7X19243   5.525   2.997   7.672  0.8297  0.6840 -2.3944
  170SOPE   H7Y19244   5.697   2.927   7.656 -0.2862  0.9963 -0.3254
  170SOPE   C3819245   5.567   2.833   7.798 -0.1545 -0.0677  0.4162
  170SOPE   H8X19246   5.606   2.893   7.884 -1.5495  0.9656  0.3498
  170SOPE   H8Y19247   5.620   2.736   7.789  1.3021  0.7374  0.2059
  170SOPE   C3919248   5.421   2.802   7.826  0.3527  0.3944 -0.2083
  170SOPE   H9X19249   5.375   2.735   7.751 -1.6882  2.4359 -0.8416
  170SOPE   H9Y19250   5.357   2.893   7.830  0.0393  0.2323 -1.4215
  170SOPE  C31019251   5.400   2.712   7.949 -0.5081 -0.4381 -0.0684
  170SOPE  H10X19252   5.479   2.635   7.937 -0.4010 -0.9871  3.4682
  170SOPE  H10Y19253   5.308   2.649   7.948 -1.3031  0.7223 -0.1469
  170SOPE  C31119254   5.438   2.775   8.077 -0.0018  0.2520  0.9326
  170SOPE  H11X19255   5.402   2.880   8.082 -0.2380  0.2060  0.2682
  170SOPE  H11Y19256   5.549   2.784   8.071  0.3080 -3.4246  0.3558
  170SOPE  C31219257   5.398   2.708   8.207  0.6809 -0.6288 -0.6944
  170SOPE  H12X19258   5.430   2.602   8.193 -0.0633 -0.8837 -0.5087
  170SOPE  H12Y19259   5.288   2.711   8.222  0.8859  1.7607  0.5376
  170SOPE  C31319260   5.468   2.765   8.325  0.2746 -0.2127 -0.8104
  170SOPE  H13X19261   5.463   2.875   8.317 -0.2830 -0.0927  0.9633
  170SOPE  H13Y19262   5.574   2.732   8.331  0.1945 -0.0984  1.2959
  170SOPE  C31419263   5.405   2.711   8.454 -0.0720  1.1121 -0.5491
  170SOPE  H14X19264   5.412   2.600   8.453 -1.4377  1.0055 -1.8185
  170SOPE  H14Y19265   5.295   2.727   8.449 -0.8931 -3.4561  0.8051
  170SOPE  C31519266   5.454   2.767   8.588  0.1385 -0.2439  0.2003
  170SOPE  H15X19267   5.428   2.875   8.583 -0.0086 -0.3073 -0.5567
  170SOPE  H15Y19268   5.564   2.761   8.599 -0.0849 -1.1632  2.1470
  170SOPE  C31619269   5.400   2.690   8.719  0.0400  0.3491  0.2374
  170SOPE  H16X19270   5.474   2.687   8.802 -2.1051 -0.4931  2.1782
  170SOPE  H16Y19271   5.385   2.590   8.675  1.1894  2.0347 -4.2784
  170SOPE  C31719272   5.254   2.736   8.779 -0.4748  0.6608  0.0965
  170SOPE  H17X19273   5.183   2.739   8.693  1.7043 -3.0573 -1.9758
  170SOPE  H17Y19274   5.265   2.841   8.812  2.1102  0.9586 -1.6103
  170SOPE  C31819275   5.207   2.651   8.901 -0.3493  0.1484  0.1754
  170SOPE  H18X19276   5.131   2.710   8.956 -0.9333  1.1672 -1.6850
  170SOPE  H18Y19277   5.290   2.609   8.962  1.6222  0.8355 -1.9724
  170SOPE  H18Z19278   5.156   2.565   8.851  1.6447 -0.4559 -0.8712
  171SOPE     N19279   6.450   0.032   6.469 -0.0827 -0.6765  0.5304
  171SOPE   HN119280   6.359   0.075   6.443 -0.2107 -1.2697 -0.0447
  171SOPE   HN219281   6.457   0.019   6.571  1.3341  2.6386  0.9251
  171SOPE   HN319282   6.526   0.095   6.436  0.9952 -2.2632 -0.0434
  171SOPE   C1219283   6.463  -0.106   6.415  0.2296  0.0331 -0.2003
  171SOPE  H12A19284   6.571  -0.129   6.402  0.4034  0.3392  0.6605
  171SOPE  H12B19285   6.423  -0.104   6.311  0.2346  0.9971 -0.1930
  171SOPE   C1119286   6.389  -0.208   6.497 -0.6280  0.0104 -0.8338
  171SOPE  H11A19287   6.422  -0.187   6.601 -0.6062 -0.2097 -0.7959
  171SOPE  H11B19288   6.434  -0.307   6.472 -0.8313 -0.1612 -0.5221
  171SOPE     P19289   6.163  -0.236   6.371  0.4987  0.2745 -0.0787
  171SOPE   O1319290   6.244  -0.278   6.257 -0.6897 -0.8158 -0.8184
  171SOPE   O1419291   6.083  -0.111   6.338 -0.6509  0.0601  0.0257
  171SOPE   O1219292   6.249  -0.195   6.493 -0.0781  0.2189 -0.1444
  171SOPE   O1119293   6.080  -0.359   6.425  0.6712 -0.3285 -0.5808
  171SOPE    C119294   6.137  -0.487   6.405  0.0992  0.3995 -0.0325
  171SOPE    HA19295   6.248  -0.483   6.413  0.0171 -0.1595  1.6308
  171SOPE    HB19296   6.101  -0.541   6.315  1.6675 -1.9848  0.7118
  171SOPE    C219297   6.090  -0.579   6.519 -0.2713 -0.1512  0.3130
  171SOPE    HS19298   5.981  -0.598   6.503 -0.5549  1.8873 -0.3119
  171SOPE   O2119299   6.107  -0.509   6.645 -0.0400  0.8341  0.1679
  171SOPE   C2119300   5.994  -0.441   6.692 -0.8309 -0.1801 -0.3737
  171SOPE   O2219301   5.884  -0.432   6.643  0.2110 -0.0987 -0.3382
  171SOPE   C2219302   6.027  -0.376   6.828 -0.7723  0.0064  0.0866
  171SOPE   H2R19303   6.116  -0.311   6.812 -0.3342 -0.3472  1.0411
  171SOPE   H2S19304   6.059  -0.455   6.899  0.6615 -1.8527 -2.5886
  171SOPE    C319305   6.168  -0.711   6.517  0.1556  0.0742 -0.3821
  171SOPE    HX19306   6.271  -0.674   6.537  0.1795  0.4857 -1.2483
  171SOPE    HY19307   6.168  -0.759   6.416  0.7647 -0.8110  0.0372
  171SOPE   O3119308   6.126  -0.801   6.623  0.2972 -0.1989 -0.3217
  171SOPE   C3119309   6.021  -0.876   6.584  0.1220 -0.7301 -0.1293
  171SOPE   O3219310   5.989  -0.890   6.468 -0.4134  0.0024 -0.3462
  171SOPE   C3219311   5.948  -0.946   6.708 -0.6482  0.2660  0.5014
  171SOPE   H2X19312   5.967  -1.054   6.728 -1.7697  0.0877  0.6640
  171SOPE   H2Y19313   5.843  -0.944   6.670 -0.3149 -0.2254 -0.4579
  171SOPE   C2319314   5.909  -0.300   6.887 -0.1723 -0.1842 -0.1538
  171SOPE   H3R19315   5.810  -0.344   6.862  0.1904 -0.0424 -1.8791
  171SOPE   H3S19316   5.910  -0.194   6.857 -0.6728 -0.5393 -1.4746
  171SOPE   C2419317   5.901  -0.303   7.045  0.2047  0.3134 -0.7948
  171SOPE   H4R19318   5.908  -0.407   7.084 -0.4636 -0.0704 -1.6632
  171SOPE   H4S19319   5.988  -0.245   7.080 -0.0311  2.6061 -3.7977
  171SOPE   C2519320   5.764  -0.242   7.096  0.1480  0.1801 -0.3441
  171SOPE   H5R19321   5.778  -0.136   7.065  0.7901  0.4272  0.7359
  171SOPE   H5S19322   5.683  -0.294   7.041  0.2483 -1.7351  1.2340
  171SOPE   C2619323   5.744  -0.239   7.247 -0.6733 -0.2395 -0.3092
  171SOPE   H6R19324   5.834  -0.198   7.298  0.1603 -2.9227  0.4687
  171SOPE   H6S19325   5.659  -0.175   7.278 -2.3335 -1.6673 -1.7930
  171SOPE   C2719326   5.721  -0.377   7.302  0.2759  0.1334  0.5501
  171SOPE   H7R19327   5.617  -0.407   7.277  0.3733  0.4708 -0.3087
  171SOPE   H7S19328   5.782  -0.447   7.241  0.5006 -0.4127  1.4064
  171SOPE   C2819329   5.770  -0.401   7.444 -0.8003 -0.7062 -0.0256
  171SOPE   H8R19330   5.770  -0.511   7.454 -0.0932 -0.7590 -0.5331
  171SOPE   H8S19331   5.877  -0.373   7.458 -0.7135 -2.0656  2.2039
  171SOPE   C2919332   5.671  -0.347   7.537  0.0595 -0.5196  0.0867
  171SOPE   H9119333   5.579  -0.309   7.490  0.5039 -0.6909 -0.9407
  171SOPE  C21019334   5.676  -0.346   7.668 -0.1357  0.0425  0.3471
  171SOPE  H10119335   5.581  -0.317   7.715 -0.1862  1.0651 -0.3801
  171SOPE  C21119336   5.791  -0.404   7.747 -0.2114 -0.2399 -0.6112
  171SOPE  H11R19337   5.855  -0.315   7.766 -0.0843 -0.0925 -1.6622
  171SOPE  H11S19338   5.856  -0.473   7.688  0.6159 -0.6327  0.7583
  171SOPE  C21219339   5.735  -0.462   7.878  0.3835 -0.3383 -0.2335
  171SOPE  H12R19340   5.806  -0.532   7.928  0.3662  1.9567  3.1353
  171SOPE  H12S19341   5.646  -0.525   7.854 -2.5344  3.1243  1.0689
  171SOPE  C21319342   5.702  -0.357   7.983  0.4400  0.0350  0.2235
  171SOPE  H13R19343   5.630  -0.278   7.951  0.7935  0.8315  1.3608
  171SOPE  H13S19344   5.787  -0.289   8.003  1.6712 -1.4139 -0.0137
  171SOPE  C21419345   5.657  -0.428   8.106  0.2658  0.7082 -0.7044
  171SOPE  H14R19346   5.729  -0.500   8.150 -0.9585 -0.0664  0.0546
  171SOPE  H14S19347   5.567  -0.490   8.084  1.4188 -0.8004 -1.2326
  171SOPE  C21519348   5.615  -0.325   8.211 -0.4260  0.4651 -0.7928
  171SOPE  H15R19349   5.538  -0.373   8.276  0.2184  0.2217 -0.2025
  171SOPE  H15S19350   5.565  -0.234   8.171 -0.9828  0.5552  0.0938
  171SOPE  C21619351   5.735  -0.275   8.296 -0.0953  0.2501 -0.2715
  171SOPE  H16R19352   5.792  -0.203   8.234  1.7890 -1.9008 -1.0814
  171SOPE  H16S19353   5.798  -0.365   8.310 -0.3109  0.1373 -0.0216
  171SOPE  C21719354   5.697  -0.204   8.429 -0.7430  0.1004  0.0436
  171SOPE  H17R19355   5.666  -0.278   8.506 -0.9249 -0.9425 -1.0103
  171SOPE  H17S19356   5.617  -0.131   8.407 -0.6041 -0.1411 -1.3483
  171SOPE  C21819357   5.830  -0.145   8.487  0.5905  0.1938  0.0503
  171SOPE  H18R19358   5.830  -0.034   8.482  1.1861  0.3739  2.9611
  171SOPE  H18S19359   5.925  -0.175   8.438  0.4536 -0.6977  0.3281
  171SOPE  H18T19360   5.841  -0.186   8.589  1.0404 -0.8474 -0.4144
  171SOPE   C3319361   5.969  -0.864   6.840  0.6753 -0.3821  0.3012
  171SOPE   H3X19362   5.940  -0.760   6.816 -2.8952 -0.8597  2.2631
  171SOPE   H3Y19363   6.079  -0.866   6.859  0.4031  1.4254  2.1688
  171SOPE   C3419364   5.877  -0.909   6.947 -0.1477 -0.8147  0.1270
  171SOPE   H4X19365   5.867  -1.020   6.943  0.2409 -0.8492  0.0774
  171SOPE   H4Y19366   5.774  -0.870   6.934  1.3872  2.6310 -2.4038
  171SOPE   C3519367   5.937  -0.858   7.083 -0.1153  0.3396  0.9765
  171SOPE   H5X19368   5.912  -0.750   7.090  0.9561  0.5559  1.5275
  171SOPE   H5Y19369   6.046  -0.879   7.072 -1.1150 -4.4751 -0.8462
  171SOPE   C3619370   5.908  -0.950   7.202 -0.1017  0.5636  0.1252
  171SOPE   H6X19371   5.966  -1.044   7.191  0.2940  1.0134 -1.8975
  171SOPE   H6Y19372   5.802  -0.980   7.192  0.2989 -1.3654  1.4422
  171SOPE   C3719373   5.929  -0.880   7.334 -0.1777 -0.3201 -0.0005
  171SOPE   H7X19374   5.844  -0.809   7.340 -1.4036 -1.4261 -3.2513
  171SOPE   H7Y19375   6.023  -0.820   7.340 -1.6394  1.8349  2.4727
  171SOPE   C3819376   5.913  -0.973   7.458  1.0174  0.5196  0.1013
  171SOPE   H8X19377   5.997  -1.045   7.452 -0.3657 -1.2466  1.4666
  171SOPE   H8Y19378   5.830  -1.043   7.437  1.4333 -0.4640  1.6815
  171SOPE   C3919379   5.898  -0.910   7.595 -0.6787 -0.0961  0.8538
  171SOPE   H9X19380   5.820  -0.831   7.591  0.2144  0.8322  1.7117
  171SOPE   H9Y19381   5.996  -0.869   7.625 -0.2950 -3.0940  4.1232
  171SOPE  C31019382   5.852  -1.009   7.701  0.4383  0.1684 -0.1865
  171SOPE  H10X19383   5.919  -1.096   7.684  0.8460  0.3496  0.4863
  171SOPE  H10Y19384   5.745  -1.035   7.692 -0.4124  2.7137  1.7956
  171SOPE  C31119385   5.882  -0.945   7.834 -0.0155  0.2551 -0.0823
  171SOPE  H11X19386   5.835  -0.845   7.833 -0.0526  0.2895  2.3050
  171SOPE  H11Y19387   5.991  -0.920   7.836 -0.6550  3.1459  1.3388
  171SOPE  C31219388   5.822  -1.019   7.956  0.4049  0.2550  0.4284
  171SOPE  H12X19389   5.881  -1.112   7.970  0.4695 -0.0861 -1.8618
  171SOPE  H12Y19390   5.723  -1.056   7.921  0.8095  0.0748 -0.5523
  171SOPE  C31319391   5.805  -0.923   8.070  0.0504 -0.7347 -0.2370
  171SOPE  H13X19392   5.766  -0.829   8.026 -0.6056 -1.6392 -1.6393
  171SOPE  H13Y19393   5.904  -0.906   8.117 -1.4387 -0.0913  2.8288
  171SOPE  C31419394   5.684  -0.954   8.161 -0.0350 -0.1537  0.5923
  171SOPE  H14X19395   5.724  -1.025   8.236  1.6700  0.0873 -0.0650
  171SOPE  H14Y19396   5.591  -0.983   8.108 -1.6448  2.4473  1.8568
  171SOPE  C31519397   5.634  -0.839   8.232 -0.4980  0.6868 -0.4142
  171SOPE  H15X19398   5.551  -0.868   8.300  0.5757 -0.1656  0.5526
  171SOPE  H15Y19399   5.597  -0.758   8.165 -0.0353  0.3497 -1.0842
  171SOPE  C31619400   5.741  -0.777   8.329  0.0286  0.3142 -0.2947
  171SOPE  H16X19401   5.822  -0.738   8.264  0.1275  2.3327  1.0170
  171SOPE  H16Y19402   5.776  -0.868   8.383  1.4212  0.5271 -0.8296
  171SOPE  C31719403   5.693  -0.667   8.420 -0.3165  0.3498  0.4822
  171SOPE  H17X19404   5.611  -0.691   8.491 -3.4175  2.2851 -2.2562
  171SOPE  H17Y19405   5.659  -0.581   8.358  0.8612 -0.5633 -1.4813
  171SOPE  C31819406   5.801  -0.604   8.505  0.3575  0.5510  0.3059
  171SOPE  H18X19407   5.834  -0.669   8.589  0.3428 -0.0418 -0.1406
  171SOPE  H18Y19408   5.754  -0.509   8.539 -0.8178  1.1515 -2.9037
  171SOPE  H18Z19409   5.890  -0.566   8.451 -1.7773  1.6177 -2.5173
  172SOPE     N19410   0.491   1.135   6.279  0.0215 -0.0368 -0.1879
  172SOPE   HN119411   0.531   1.195   6.205 -1.0382 -0.4211 -1.0925
  172SOPE   HN219412   0.521   1.037   6.263  0.6032 -0.0315  0.8054
  172SOPE   HN319413   0.387   1.142   6.276 -0.0315 -0.2768  0.6959
  172SOPE   C1219414   0.526   1.194   6.412  1.0927  0.1690 -0.2614
  172SOPE  H12A19415   0.494   1.300   6.418 -1.0515 -0.5066  0.9178
  172SOPE  H12B19416   0.637   1.190   6.420  1.2162  0.3090 -1.8264
  172SOPE   C1119417   0.472   1.100   6.521  0.8919 -0.9824 -0.0214
  172SOPE  H11A19418   0.522   1.126   6.617 -0.6404  0.7473  0.3474
  172SOPE  H11B19419   0.508   0.997   6.500  0.1975 -0.7303 -2.5853
  172SOPE     P19420   0.256   1.000   6.594 -0.3824  0.1855 -0.2865
  172SOPE   O1319421   0.302   0.863   6.556  0.6568  0.2481  0.2963
  172SOPE   O1419422   0.115   1.035   6.575 -0.5625  0.2342  0.4021
  172SOPE   O1219423   0.328   1.114   6.517  0.3366 -0.2123 -0.2621
  172SOPE   O1119424   0.292   1.019   6.749 -0.8472 -0.7490 -0.2714
  172SOPE    C119425   0.306   1.139   6.818  0.6557  1.0077 -0.1016
  172SOPE    HA19426   0.207   1.188   6.828  0.1315 -0.3649  1.5389
  172SOPE    HB19427   0.359   1.219   6.761 -0.6388  2.3611  0.5656
  172SOPE    C219428   0.360   1.104   6.964 -0.5461 -0.3405 -0.0005
  172SOPE    HS19429   0.470   1.091   6.951 -0.3280  1.0434  0.4276
  172SOPE   O2119430   0.308   0.987   7.018  0.5985  0.3322  0.6491
  172SOPE   C2119431   0.177   0.958   6.998 -0.8960  0.4202 -0.1230
  172SOPE   O2219432   0.088   1.017   6.938  0.0317  0.6467  0.2782
  172SOPE   C2219433   0.155   0.823   7.071 -0.2611 -1.3725 -0.3480
  172SOPE   H2R19434   0.222   0.740   7.041  1.4843 -0.6396  1.4129
  172SOPE   H2S19435   0.053   0.797   7.034 -1.3162  1.0382  0.7436
  172SOPE    C319436   0.353   1.221   7.066  0.4179  0.2108  0.2979
  172SOPE    HX19437   0.252   1.263   7.048  1.5778  2.9755 -0.0728
  172SOPE    HY19438   0.428   1.300   7.040  0.9679  0.0177  1.2798
  172SOPE   O3119439   0.378   1.185   7.205 -0.1313  0.2504  0.8531
  172SOPE   C3119440   0.271   1.173   7.279  1.0247 -0.6068  0.6096
  172SOPE   O3219441   0.155   1.166   7.237 -0.5314 -0.1168  0.1789
  172SOPE   C3219442   0.306   1.141   7.422  0.0500 -0.7860 -0.1954
  172SOPE   H2X19443   0.387   1.212   7.447  0.9032 -1.1419 -1.9333
  172SOPE   H2Y19444   0.336   1.034   7.430 -0.0440 -0.7166  1.2776
  172SOPE   C2319445   0.162   0.812   7.224 -0.1090 -0.3622 -0.7888
  172SOPE   H3R19446   0.087   0.884   7.265 -1.9302 -1.8753 -1.4422
  172SOPE   H3S19447   0.261   0.852   7.256 -0.2284 -1.3797  0.9221
  172SOPE   C2419448   0.143   0.670   7.285 -0.6533 -0.4602 -0.1246
  172SOPE   H4R19449   0.060   0.620   7.230  0.0302 -0.4797 -1.1468
  172SOPE   H4S19450   0.237   0.623   7.252  1.3027  1.8369  1.9634
  172SOPE   C2519451   0.115   0.679   7.433  1.0677  0.5548 -1.0677
  172SOPE   H5R19452   0.174   0.755   7.488  0.2669  1.3757 -1.3210
  172SOPE   H5S19453   0.007   0.704   7.446  0.4530 -2.2056 -0.7358
  172SOPE   C2619454   0.126   0.545   7.500  0.4916  0.0100  0.3243
  172SOPE   H6R19455   0.101   0.460   7.434  1.9583  0.9516 -1.5199
  172SOPE   H6S19456   0.236   0.541   7.520  0.9852  2.1451 -1.7248
  172SOPE   C2719457   0.041   0.531   7.630  0.3610 -0.0302 -0.0812
  172SOPE   H7R19458  -0.067   0.511   7.617  0.9197 -2.8280 -0.7563
  172SOPE   H7S19459   0.067   0.438   7.685 -0.0598  0.8735  1.6495
  172SOPE   C2819460   0.056   0.650   7.728 -0.1453  0.1980  0.0163
  172SOPE   H8R19461   0.033   0.745   7.675 -1.8310  0.4831  1.2252
  172SOPE   H8S19462  -0.030   0.633   7.796 -0.5459 -0.9035 -0.7524
  172SOPE   C2919463   0.190   0.663   7.784  0.3931  0.2066  0.2161
  172SOPE   H9119464   0.276   0.669   7.715  0.4748  1.5744  0.4240
  172SOPE  C21019465   0.217   0.647   7.913  0.4855  0.0653 -0.3225
  172SOPE  H10119466   0.320   0.642   7.950  0.3380 -0.7375 -0.0191
  172SOPE  C21119467   0.122   0.605   8.017 -0.8735 -0.1736 -0.0955
  172SOPE  H11R19468   0.074   0.510   7.983 -1.2098 -0.4852  1.2138
  172SOPE  H11S19469   0.048   0.687   8.010  1.9152  2.2880 -2.0370
  172SOPE  C21219470   0.163   0.591   8.166 -0.2548  0.1326  0.4695
  172SOPE  H12R19471   0.073   0.597   8.230  0.6898 -1.1943  1.9902
  172SOPE  H12S19472   0.223   0.684   8.170  1.5262 -1.0163  1.1327
  172SOPE  C21319473   0.236   0.464   8.217  0.0680 -0.3024 -0.0034
  172SOPE  H13R19474   0.317   0.424   8.152 -1.0460 -1.4588 -0.6980
  172SOPE  H13S19475   0.159   0.386   8.235 -0.5701  0.4481  0.5429
  172SOPE  C21419476   0.305   0.501   8.353 -0.0758 -0.4693  0.7002
  172SOPE  H14R19477   0.227   0.513   8.431  0.2426  1.9487  0.7018
  172SOPE  H14S19478   0.368   0.591   8.336 -1.2648  0.3918  0.7857
  172SOPE  C21519479   0.394   0.387   8.398  0.7940  0.0935  0.0229
  172SOPE  H15R19480   0.411   0.411   8.505  0.4428 -0.2002  0.1428
  172SOPE  H15S19481   0.490   0.393   8.343  0.7626  1.5842  0.0862
  172SOPE  C21619482   0.341   0.248   8.395  0.5529  0.2034 -0.1246
  172SOPE  H16R19483   0.337   0.213   8.290  2.0748  0.6688 -0.3411
  172SOPE  H16S19484   0.239   0.242   8.439  0.6981 -1.3978  0.0160
  172SOPE  C21719485   0.422   0.151   8.483 -0.4727 -0.1955  0.3994
  172SOPE  H17R19486   0.399   0.167   8.590 -0.0160 -0.7089  0.5755
  172SOPE  H17S19487   0.531   0.167   8.468 -0.7265 -0.5204 -2.1363
  172SOPE  C21819488   0.408  -0.000   8.457  0.6233  0.4280  0.3271
  172SOPE  H18R19489   0.458  -0.026   8.362  2.0382  2.4211  0.5173
  172SOPE  H18S19490   0.299  -0.023   8.451  0.1852  1.8141  2.2468
  172SOPE  H18T19491   0.455  -0.049   8.545 -1.4177  1.7253  2.1991
  172SOPE   C3319492   0.191   1.157   7.527 -0.1410  0.3204 -0.3902
  172SOPE   H3X19493   0.122   1.078   7.493 -0.3359  1.3721 -2.5326
  172SOPE   H3Y19494   0.141   1.256   7.518 -1.3740 -0.0242  2.3081
  172SOPE   C3419495   0.238   1.144   7.677  0.6995 -0.1146  0.0583
  172SOPE   H4X19496   0.313   1.223   7.699 -0.3335  0.5155  1.3859
  172SOPE   H4Y19497   0.301   1.054   7.695 -1.4037 -1.7078 -0.3529
  172SOPE   C3519498   0.120   1.148   7.769 -0.3490  0.6315  0.4409
  172SOPE   H5X19499   0.032   1.089   7.735 -0.3574  0.9940 -0.1927
  172SOPE   H5Y19500   0.079   1.251   7.776 -1.6049  0.2756 -1.3080
  172SOPE   C3619501   0.160   1.100   7.911  0.6677 -0.3277 -0.2863
  172SOPE   H6X19502   0.241   1.163   7.955 -0.5610  1.9967 -1.2212
  172SOPE   H6Y19503   0.198   0.998   7.894  0.5751 -0.6140  1.1584
  172SOPE   C3719504   0.042   1.104   8.011  0.7552 -0.3371 -0.0351
  172SOPE   H7X19505   0.034   1.004   8.059  0.2687 -0.5757 -0.6111
  172SOPE   H7Y19506  -0.058   1.122   7.966  0.5615 -0.4232  0.3566
  172SOPE   C3819507   0.058   1.205   8.125  0.1935  0.0947  0.2777
  172SOPE   H8X19508   0.079   1.305   8.082 -0.7629 -0.1008 -0.6674
  172SOPE   H8Y19509   0.143   1.196   8.196 -0.0837 -0.5971  0.5298
  172SOPE   C3919510  -0.077   1.207   8.199 -0.4388 -0.3459 -0.6896
  172SOPE   H9X19511  -0.097   1.106   8.240  1.0848  0.1003  1.2343
  172SOPE   H9Y19512  -0.157   1.235   8.128 -1.2200  0.1363  0.3776
  172SOPE  C31019513  -0.066   1.292   8.333 -0.7277  0.1028  0.2328
  172SOPE  H10X19514  -0.025   1.394   8.317 -1.7328  0.1680 -2.2633
  172SOPE  H10Y19515   0.007   1.242   8.400 -0.0462 -0.9357 -1.2601
  172SOPE  C31119516  -0.200   1.303   8.410 -0.2561 -0.3603  0.7068
  172SOPE  H11X19517  -0.248   1.205   8.428  0.1031  0.3280  6.2118
  172SOPE  H11Y19518  -0.268   1.345   8.333  1.4991  1.3276  0.0222
  172SOPE  C31219519  -0.203   1.383   8.541 -0.0102  0.0886 -0.5767
  172SOPE  H12X19520  -0.167   1.488   8.534 -2.6971  1.0459 -0.7285
  172SOPE  H12Y19521  -0.137   1.332   8.614  0.2055 -1.7871 -2.0637
  172SOPE  C31319522  -0.344   1.379   8.609  0.3619 -0.1438  0.8633
  172SOPE  H13X19523  -0.342   1.411   8.715  1.5339  0.9531  0.5341
  172SOPE  H13Y19524  -0.377   1.273   8.612 -2.0602  0.5903  1.2174
  172SOPE  C31419525  -0.455   1.468   8.541  0.2729  0.2459 -0.0763
  172SOPE  H14X19526  -0.473   1.435   8.436 -0.3509  1.0076 -0.2190
  172SOPE  H14Y19527  -0.425   1.575   8.534  1.8037 -0.0705  1.5169
  172SOPE  C31519528  -0.589   1.474   8.623  0.4763 -0.4465  0.0393
  172SOPE  H15X19529  -0.574   1.530   8.718  1.2512 -1.3072  0.4346
  172SOPE  H15Y19530  -0.602   1.364   8.635  2.3853 -0.8893 -1.6642
  172SOPE  C31619531  -0.699   1.550   8.536  0.1342  0.0353  1.0421
  172SOPE  H16X19532  -0.718   1.479   8.452  1.3062  0.4261  0.4393
  172SOPE  H16Y19533  -0.670   1.647   8.492 -3.3208  0.9869  0.6808
  172SOPE  C31719534  -0.829   1.558   8.620 -0.1923  0.3813 -0.1384
  172SOPE  H17X19535  -0.913   1.613   8.571 -0.0127  1.6868  0.9862
  172SOPE  H17Y19536  -0.809   1.632   8.700 -1.2826  0.4831  0.0579
  172SOPE  C31819537  -0.879   1.423   8.671  0.0178  0.6325 -0.3389
  172SOPE  H18X19538  -0.927   1.359   8.593  2.2297  0.0134 -1.2395
  172SOPE  H18Y19539  -0.954   1.432   8.752 -1.4415  0.0154 -1.5838
  172SOPE  H18Z19540  -0.799   1.355   8.708 -3.5259 -1.7317  3.4150
  173SAPI   C1219541   2.398   5.555  10.728 -0.2246  0.5490  0.2314
  173SAPI    H219542   2.307   5.494  10.745  1.7722 -2.6948 -0.4329
  173SAPI    O219543   2.394   5.620  10.602 -0.5820 -0.5072 -0.5440
  173SAPI   HO219544   2.308   5.649  10.572 -0.8262 -0.5660  0.0974
  173SAPI   C1319545   2.406   5.651  10.844 -0.5539 -0.6716  0.1595
  173SAPI    H319546   2.431   5.593  10.935  1.4463 -2.0436 -1.2191
  173SAPI    O319547   2.283   5.718  10.857 -0.0853  0.0797 -0.5114
  173SAPI   HO319548   2.246   5.765  10.782 -0.4145  0.7223  0.0457
  173SAPI   C1419549   2.526   5.743  10.826 -0.7640  0.1060  0.0870
  173SAPI    H419550   2.526   5.802  10.733  1.0649  0.2650  0.1724
  173SAPI    O419551   2.531   5.838  10.938 -0.1296  0.5772 -0.4481
  173SAPI   HO419552   2.529   5.927  10.902  0.9961  0.1464 -1.6123
  173SAPI   C1519553   2.655   5.653  10.819  0.4922 -0.0626 -0.4840
  173SAPI    H519554   2.654   5.604  10.919 -0.5213 -1.3298 -1.0973
  173SAPI    O519555   2.772   5.732  10.807 -0.1938  0.2343 -0.1375
  173SAPI   HO519556   2.841   5.681  10.850 -1.4651 -1.5270 -0.1566
  173SAPI   C1619557   2.651   5.539  10.719  0.0952  0.5530  0.4546
  173SAPI    H619558   2.651   5.585  10.618  0.5897 -1.2915 -0.4067
  173SAPI    O619559   2.765   5.450  10.726  0.1659 -0.7236 -0.8967
  173SAPI   HO619560   2.745   5.363  10.761  0.2707 -1.0491 -1.6395
  173SAPI   C1119561   2.518   5.458  10.734  0.3452  0.6552 -0.4240
  173SAPI    H119562   2.516   5.414  10.836 -0.9796  0.0385 -0.7049
  173SAPI     P19563   2.430   5.218  10.674  0.4218  0.2986  0.1268
  173SAPI   O1319564   2.283   5.235  10.682 -0.7625  0.1409  0.5837
  173SAPI   O1419565   2.490   5.162  10.801  0.5000 -0.0953  0.1357
  173SAPI   O1219566   2.495   5.357  10.638  0.1548 -0.9690  0.0607
  173SAPI   O1119567   2.471   5.123  10.549 -0.2287 -0.3090  0.8201
  173SAPI    C119568   2.605   5.127  10.502 -0.1616 -0.4389 -0.8487
  173SAPI    HA19569   2.672   5.200  10.552 -1.1062  0.8294 -1.3957
  173SAPI    HB19570   2.642   5.024  10.521 -1.0413 -0.4140  1.1349
  173SAPI    C219571   2.606   5.140  10.349 -0.0029  0.0525 -0.0686
  173SAPI    HS19572   2.711   5.154  10.314  0.0783  0.5195  0.3462
  173SAPI   O2119573   2.525   5.256  10.317 -0.1648 -0.6854 -0.3171
  173SAPI   C2119574   2.592   5.377  10.331 -0.1732  0.1846 -0.2628
  173SAPI   O2219575   2.712   5.394  10.337  0.1033  0.3751 -0.1049
  173SAPI   C2219576   2.485   5.487  10.322 -0.2411  0.0155  0.3083
  173SAPI   H2R19577   2.406   5.457  10.394  1.7686 -1.6066  1.9190
  173SAPI   H2S19578   2.521   5.586  10.360 -0.0643 -0.0563  0.3303
  173SAPI    C319579   2.541   5.010  10.305  0.2420  0.0820 -0.0775
  173SAPI    HX19580   2.437   4.999  10.340  0.4681  0.1793  0.6396
  173SAPI    HY19581   2.585   4.927  10.364 -3.3320 -1.6359  0.2763
  173SAPI   O3119582   2.565   4.982  10.168  0.7617  0.5153 -0.3509
  173SAPI   C3119583   2.468   5.038  10.095  0.2457  0.2130  0.6335
  173SAPI   O3219584   2.360   5.076  10.130  0.4026  0.8872  0.0240
  173SAPI   C3219585   2.510   5.039   9.951  0.0522 -0.3718 -0.2422
  173SAPI   H2X19586   2.593   4.967   9.935 -0.0214 -0.4249 -0.3878
  173SAPI   H2Y19587   2.548   5.137   9.915 -0.8710 -0.1674 -0.6923
  173SAPI   C2319588   2.445   5.490  10.177  0.2939  0.1134 -0.0285
  173SAPI   H3R19589   2.368   5.568  10.167  1.0336  0.4499 -3.9557
  173SAPI   H3S19590   2.399   5.393  10.149 -0.4997  0.5998 -0.4156
  173SAPI   C2419591   2.551   5.529  10.074 -0.2515 -0.3027 -0.2933
  173SAPI   H4R19592   2.628   5.585  10.133  0.5835 -0.6528 -1.0346
  173SAPI   H4S19593   2.502   5.604  10.009  2.0082  0.9769 -0.5732
  173SAPI   C2519594   2.606   5.413   9.989  0.3480 -0.1020 -0.7800
  173SAPI   H5R19595   2.666   5.338  10.042  1.1034 -0.4504 -2.1107
  173SAPI   C2619596   2.581   5.386   9.855 -0.7559  0.0445 -0.9105
  173SAPI   H6R19597   2.621   5.296   9.807 -0.3953  0.3782 -1.2345
  173SAPI   C2719598   2.504   5.476   9.765  0.4403  0.3349 -0.1678
  173SAPI   H7R19599   2.442   5.551   9.818 -1.9592  0.3821 -2.9096
  173SAPI   H7S19600   2.419   5.426   9.714  1.6467  1.1854 -3.1315
  173SAPI   C2819601   2.610   5.541   9.672  0.3613  0.4600  0.3565
  173SAPI   H8R19602   2.714   5.532   9.708 -0.1066  2.0439  2.1813
  173SAPI   C2919603   2.586   5.580   9.543 -0.3885 -0.2903 -0.5824
  173SAPI   H9R19604   2.671   5.620   9.486  1.7457 -0.3865  2.4852
  173SAPI  C21019605   2.456   5.573   9.472 -0.1251 -0.1603 -0.2953
  173SAPI  H10R19606   2.447   5.652   9.395  1.9073  0.6439  0.2806
  173SAPI  H10S19607   2.374   5.603   9.541 -0.9578 -0.5642 -1.0834
  173SAPI  C21119608   2.420   5.434   9.415 -1.1200  0.2788  0.3363
  173SAPI  H11R19609   2.429   5.354   9.490 -0.0205  0.3957  0.3356
  173SAPI  C21219610   2.394   5.403   9.284  0.1940  0.1250 -0.1707
  173SAPI  H12R19611   2.393   5.297   9.256  0.9242  0.3872 -1.2259
  173SAPI  C21319612   2.385   5.504   9.174  0.4143 -0.5463  0.4733
  173SAPI  H13R19613   2.483   5.555   9.168 -1.1500  2.3192 -3.1461
  173SAPI  H13S19614   2.313   5.584   9.203  0.7662  0.4637 -1.3417
  173SAPI  C21419615   2.349   5.441   9.040  0.5613  0.1566 -0.2728
  173SAPI  H14R19616   2.250   5.453   8.993  0.7088  1.4352 -0.2772
  173SAPI  C21519617   2.432   5.365   8.960 -0.1632 -0.5149  0.4809
  173SAPI  H15R19618   2.386   5.335   8.865  0.8241 -3.1794  0.8004
  173SAPI  C21619619   2.575   5.320   8.981  0.0054  0.0286 -0.4839
  173SAPI  H16R19620   2.576   5.209   8.984 -3.0507 -0.0357 -0.1757
  173SAPI  H16S19621   2.607   5.364   9.078 -1.7579 -1.6288  0.8911
  173SAPI  C21719622   2.680   5.376   8.889  0.5009 -0.2153  0.3013
  173SAPI  H17R19623   2.786   5.365   8.922  0.5631 -0.1685  0.1220
  173SAPI  H17S19624   2.681   5.488   8.888 -0.6222 -0.2014 -2.3733
  173SAPI  C21819625   2.670   5.334   8.740 -0.1964  0.0998 -0.1157
  173SAPI  H18R19626   2.754   5.385   8.688  0.0797 -0.4701 -0.2389
  173SAPI  H18S19627   2.575   5.376   8.700 -0.0264 -0.2613 -0.9204
  173SAPI  C21919628   2.673   5.180   8.713 -0.6292 -0.4041 -0.0201
  173SAPI  H19R19629   2.699   5.165   8.606  0.2414  3.3420 -0.4069
  173SAPI  H19S19630   2.577   5.129   8.736 -1.2664  1.9416  2.7430
  173SAPI  C22019631   2.777   5.102   8.797  0.5595  0.7730  0.2734
  173SAPI  H20R19632   2.768   4.993   8.774  1.9088  0.3486  1.6972
  173SAPI  H20S19633   2.770   5.126   8.905 -0.1445  1.1058  0.1542
  173SAPI  H20T19634   2.880   5.127   8.765  1.6835 -1.9198  1.5811
  173SAPI   C3319635   2.386   5.011   9.849  0.0534 -0.2514  0.6566
  173SAPI   H3X19636   2.304   5.081   9.875  0.2650  0.9879 -1.8377
  173SAPI   H3Y19637   2.343   4.910   9.864  0.9115 -0.5125  1.4388
  173SAPI   C3419638   2.434   5.045   9.703  0.5648 -0.1217  0.2589
  173SAPI   H4X19639   2.505   4.962   9.682  0.5362  0.0930 -0.7294
  173SAPI   H4Y19640   2.476   5.148   9.695 -0.3990  0.5885  3.6467
  173SAPI   C3519641   2.333   5.027   9.584  0.1060  0.7654  0.5795
  173SAPI   H5X19642   2.255   5.104   9.598 -0.9043  0.2235 -1.8787
  173SAPI   H5Y19643   2.280   4.930   9.595  0.8249  0.0192 -2.1052
  173SAPI   C3619644   2.401   5.028   9.447  0.2311  0.1043 -0.5999
  173SAPI   H6X19645   2.490   4.962   9.450  1.2093  1.4419  0.3002
  173SAPI   H6Y19646   2.441   5.129   9.423 -0.2175  0.1651 -1.1017
  173SAPI   C3719647   2.316   4.979   9.333 -0.0744 -0.1378 -0.0566
  173SAPI   H7X19648   2.236   5.054   9.313  1.5376  1.2893 -1.3100
  173SAPI   H7Y19649   2.259   4.888   9.362 -0.2565 -0.5533 -1.6834
  173SAPI   C3819650   2.398   4.960   9.201 -0.0262  0.1485 -0.8141
  173SAPI   H8X19651   2.485   4.891   9.204  0.6009  0.9792  0.8373
  173SAPI   H8Y19652   2.435   5.061   9.175 -2.2038  0.4000 -3.0810
  173SAPI   C3919653   2.311   4.909   9.088  0.4427 -0.4808  0.4860
  173SAPI   H9X19654   2.243   4.826   9.118 -2.7143  1.7120 -0.2744
  173SAPI   H9Y19655   2.371   4.867   9.004 -0.3993  0.6710 -0.7184
  173SAPI  C31019656   2.224   5.023   9.035  0.1511 -0.1726 -0.6598
  173SAPI  H10X19657   2.281   5.107   8.991 -0.2652 -0.6127 -2.0877
  173SAPI  H10Y19658   2.149   5.067   9.104  0.6355 -0.1504 -0.1509
  173SAPI  C31119659   2.139   4.968   8.914 -0.3455 -0.0395 -0.2043
  173SAPI  H11X19660   2.058   4.898   8.946 -1.8751  1.2913 -1.0699
  173SAPI  H11Y19661   2.199   4.912   8.839  4.0429  0.8473  2.4753
  173SAPI  C31219662   2.078   5.081   8.828 -0.8508 -0.7465 -0.0025
  173SAPI  H12X19663   2.157   5.125   8.763 -0.1299  0.2711  1.5419
  173SAPI  H12Y19664   2.036   5.155   8.899 -0.3279 -1.5550  1.1638
  173SAPI  C31319665   1.969   5.021   8.739 -0.1313  0.0977 -0.4639
  173SAPI  H13X19666   1.899   4.966   8.806  0.1441  3.1724  2.4450
  173SAPI  H13Y19667   1.990   4.956   8.651  0.6476 -0.6064  0.2354
  173SAPI  C31419668   1.883   5.126   8.663 -0.1363 -0.5882 -0.5211
  173SAPI  H14X19669   1.955   5.190   8.608 -0.4559 -1.8617 -2.4899
  173SAPI  H14Y19670   1.842   5.193   8.741 -2.6741 -1.3416 -1.1490
  173SAPI  C31519671   1.778   5.061   8.578  0.2733  0.5174  0.0658
  173SAPI  H15X19672   1.691   5.031   8.640  0.6644 -1.4466 -0.3168
  173SAPI  H15Y19673   1.809   4.971   8.521 -2.8418 -1.3898  1.2286
  173SAPI  C31619674   1.722   5.163   8.481  0.2629  0.8369 -0.6387
  173SAPI  H16X19675   1.717   5.257   8.539  0.4149 -0.2392  1.1651
  173SAPI  H16Y19676   1.617   5.142   8.452 -0.0492  2.5116 -0.7746
  173SAPI  C31719677   1.790   5.176   8.343  0.1716 -0.1731  0.2384
  173SAPI  H17X19678   1.750   5.087   8.289  0.4319 -0.7828  1.0415
  173SAPI  H17Y19679   1.899   5.176   8.362  0.4241  0.2016 -1.1543
  173SAPI  C31819680   1.736   5.303   8.272 -0.5178 -0.4385 -0.4135
  173SAPI  H18X19681   1.626   5.295   8.255 -0.5398 -1.0268 -0.0129
  173SAPI  H18Y19682   1.781   5.320   8.172 -1.6461  1.4225 -0.6244
  173SAPI  H18Z19683   1.752   5.392   8.336  0.3640 -0.2012 -0.9570
  174SAPI   C1219684   4.805   6.752  10.951 -0.7489 -0.7307  0.6407
  174SAPI    H219685   4.870   6.663  10.933 -0.2788 -0.4991  1.1831
  174SAPI    O219686   4.693   6.756  10.861  0.4717  0.0686 -0.2729
  174SAPI   HO219687   4.718   6.723  10.775  1.4609 -1.7242  0.6654
  174SAPI   C1319688   4.763   6.739  11.095  0.1231  0.1343 -0.1550
  174SAPI    H319689   4.863   6.747  11.143 -0.7257  0.6118  1.5511
  174SAPI    O319690   4.703   6.614  11.122  0.4110  0.2291 -0.1078
  174SAPI   HO319691   4.611   6.614  11.095  0.2599 -0.7467  0.3674
  174SAPI   C1419692   4.678   6.857  11.129 -0.0220  0.0036 -0.3171
  174SAPI    H419693   4.587   6.858  11.066 -0.7542 -1.6187  0.6758
  174SAPI    O419694   4.650   6.846  11.274  0.1107 -0.1563  0.1775
  174SAPI   HO419695   4.612   6.925  11.312 -1.2328 -0.6263 -0.1512
  174SAPI   C1519696   4.751   6.990  11.097  0.0366  0.0686 -0.6433
  174SAPI    H519697   4.840   6.987  11.163 -0.5414  1.0309  0.2031
  174SAPI    O519698   4.668   7.106  11.117 -0.7420 -0.2293 -0.4313
  174SAPI   HO519699   4.605   7.116  11.046 -0.8384 -1.7314 -0.5760
  174SAPI   C1619700   4.805   6.992  10.959  0.4191  0.0748  0.1698
  174SAPI    H619701   4.717   7.000  10.890  0.9174 -2.6883 -0.8257
  174SAPI    O619702   4.880   7.110  10.929  0.2696 -0.2897 -0.0813
  174SAPI   HO619703   4.926   7.091  10.846 -1.6520 -1.9529 -0.8139
  174SAPI   C1119704   4.887   6.876  10.929  0.9671 -0.2826 -0.6390
  174SAPI    H119705   4.973   6.882  10.999  0.8309 -1.5406 -0.3583
  174SAPI     P19706   5.085   6.812  10.758 -0.0091  0.4706  0.1431
  174SAPI   O1319707   5.110   6.700  10.850 -0.8718 -0.1940 -0.5059
  174SAPI   O1419708   5.186   6.924  10.754  0.3481  0.7534  0.1340
  174SAPI   O1219709   4.934   6.872  10.794 -0.1919  0.2229  0.1356
  174SAPI   O1119710   5.062   6.749  10.615 -0.4627  0.5578 -0.5466
  174SAPI    C119711   4.953   6.666  10.594 -0.1395  0.7371 -0.0722
  174SAPI    HA19712   4.941   6.593  10.677  2.4332 -0.1206 -0.4021
  174SAPI    HB19713   4.856   6.720  10.601 -1.2754 -1.5455  3.2765
  174SAPI    C219714   4.959   6.588  10.461 -0.1656 -0.0935 -0.7320
  174SAPI    HS19715   4.859   6.543  10.446 -0.4754  0.6311 -0.8674
  174SAPI   O2119716   5.067   6.495  10.460 -0.4104  0.0922 -0.4555
  174SAPI   C2119717   5.043   6.381  10.386  0.6027 -0.1478  0.2821
  174SAPI   O2219718   4.929   6.333  10.377  0.2384 -0.6211  0.3526
  174SAPI   C2219719   5.173   6.324  10.333 -0.4878  0.4146 -0.0024
  174SAPI   H2R19720   5.156   6.287  10.230  0.3437  2.5976 -0.9530
  174SAPI   H2S19721   5.242   6.411  10.325  2.8549 -1.8638  2.5812
  174SAPI    C319722   4.985   6.676  10.339  0.2771  0.4150  0.3452
  174SAPI    HX19723   5.087   6.716  10.354 -0.2001  1.4950  0.7255
  174SAPI    HY19724   4.916   6.762  10.351 -1.3695 -0.7455 -0.4987
  174SAPI   O3119725   4.960   6.600  10.217 -0.1093 -0.5028 -0.4119
  174SAPI   C3119726   4.861   6.649  10.137 -0.3726  0.4662 -0.4518
  174SAPI   O3219727   4.814   6.761  10.147 -0.8096  0.0779  0.1461
  174SAPI   C3219728   4.823   6.540  10.036  0.2792  0.2075 -0.0576
  174SAPI   H2X19729   4.822   6.597   9.941 -0.6122  0.0887 -0.1298
  174SAPI   H2Y19730   4.718   6.505  10.042 -0.4965  2.5343  0.5517
  174SAPI   C2319731   5.218   6.212  10.423 -1.0376  0.4284 -0.0794
  174SAPI   H3R19732   5.154   6.124  10.400  1.8902 -2.8576  3.5622
  174SAPI   H3S19733   5.189   6.244  10.526 -1.5051  0.6074 -0.2654
  174SAPI   C2419734   5.365   6.171  10.419  0.1182  0.4834  0.7441
  174SAPI   H4R19735   5.388   6.112  10.328 -0.1347  0.9476  0.3818
  174SAPI   H4S19736   5.386   6.114  10.512  0.3535  0.0691  0.4357
  174SAPI   C2519737   5.457   6.292  10.427  0.2343 -0.4837  0.3903
  174SAPI   H5R19738   5.443   6.368  10.505  0.7275  0.6129 -0.5796
  174SAPI   C2619739   5.551   6.318  10.333  0.7304  0.0992  0.2899
  174SAPI   H6R19740   5.599   6.417  10.325  2.0200 -0.4219  1.4317
  174SAPI   C2719741   5.593   6.236  10.214 -0.7372  0.1500 -0.1924
  174SAPI   H7R19742   5.578   6.127  10.227 -0.8393  0.4138  2.0539
  174SAPI   H7S19743   5.704   6.237  10.221 -0.7543 -2.6127  1.0013
  174SAPI   C2819744   5.530   6.292  10.088 -0.3589  0.0040  0.4152
  174SAPI   H8R19745   5.421   6.286  10.093 -0.6277  3.3257 -0.4416
  174SAPI   C2919746   5.602   6.347   9.982 -0.6023  1.0207 -0.3292
  174SAPI   H9R19747   5.557   6.370   9.885  0.4002  0.2243 -1.0015
  174SAPI  C21019748   5.750   6.365   9.969  0.3263  0.1402  0.0190
  174SAPI  H10R19749   5.795   6.350  10.070 -1.1457  1.3040  0.8908
  174SAPI  H10S19750   5.776   6.470   9.942  0.7784 -0.0008 -0.0971
  174SAPI  C21119751   5.801   6.275   9.863 -0.6251 -0.0662 -0.2229
  174SAPI  H11R19752   5.826   6.176   9.902 -0.7558 -0.1050 -0.2414
  174SAPI  C21219753   5.815   6.306   9.736  0.5072 -0.1887 -0.0046
  174SAPI  H12R19754   5.844   6.222   9.671 -0.5723 -0.7048  0.1841
  174SAPI  C21319755   5.788   6.435   9.660 -0.2613 -0.1382 -0.1870
  174SAPI  H13R19756   5.881   6.493   9.640  0.4888 -0.6402  1.7692
  174SAPI  H13S19757   5.726   6.499   9.726 -0.6480 -0.7328  0.0368
  174SAPI  C21419758   5.711   6.424   9.532  0.6823  0.0364  0.5904
  174SAPI  H14R19759   5.603   6.420   9.548  0.1271 -0.0904 -2.7082
  174SAPI  C21519760   5.763   6.406   9.412 -0.7369  0.7473  0.7792
  174SAPI  H15R19761   5.697   6.409   9.324  0.6864  1.2891 -0.3040
  174SAPI  C21619762   5.908   6.395   9.372  0.1122 -0.0001 -0.5138
  174SAPI  H16R19763   5.909   6.317   9.294 -0.8528  0.6097 -1.1522
  174SAPI  H16S19764   5.962   6.371   9.466 -1.3832  2.5199  1.0871
  174SAPI  C21719765   5.972   6.524   9.315  0.0099  0.2883 -0.2478
  174SAPI  H17R19766   6.083   6.519   9.311 -0.0469 -0.6566 -0.7551
  174SAPI  H17S19767   5.949   6.604   9.388  0.2877  0.1571 -0.0176
  174SAPI  C21819768   5.919   6.563   9.175 -0.5359 -0.3801 -0.2836
  174SAPI  H18R19769   5.817   6.608   9.179  0.3605  1.6631  0.1109
  174SAPI  H18S19770   5.912   6.466   9.122 -1.6138 -0.2774 -0.3597
  174SAPI  C21919771   5.993   6.669   9.085  0.0999  0.3093 -0.7974
  174SAPI  H19R19772   6.095   6.625   9.085 -0.1609 -0.3149 -1.0868
  174SAPI  H19S19773   5.986   6.769   9.132 -0.7325  0.3250 -0.9458
  174SAPI  C22019774   5.931   6.666   8.949 -0.3783 -0.1518 -0.5777
  174SAPI  H20R19775   5.992   6.729   8.881  1.3483 -0.0749  0.9872
  174SAPI  H20S19776   5.830   6.707   8.969  0.0205  1.4213 -1.7555
  174SAPI  H20T19777   5.931   6.562   8.908  2.4035  0.2735 -1.7714
  174SAPI   C3319778   4.911   6.411  10.032  0.3806  0.2327 -0.1675
  174SAPI   H3X19779   4.898   6.358  10.128  0.4230  2.2773  1.0036
  174SAPI   H3Y19780   5.020   6.431  10.025  0.3790  0.3643  0.1901
  174SAPI   C3419781   4.871   6.309   9.925  0.5013  0.7195  0.3503
  174SAPI   H4X19782   4.761   6.312   9.910  0.4118  0.0505  0.8867
  174SAPI   H4Y19783   4.887   6.210   9.973  0.7850 -0.2603 -1.6585
  174SAPI   C3519784   4.946   6.312   9.789 -0.7994  0.0707  0.2676
  174SAPI   H5X19785   4.955   6.210   9.746  0.5834 -0.7499  2.4477
  174SAPI   H5Y19786   5.050   6.346   9.810 -0.7487  0.3603 -0.4383
  174SAPI   C3619787   4.869   6.402   9.691 -0.2050 -0.0541  0.5508
  174SAPI   H6X19788   4.882   6.511   9.711 -3.1769  0.0015  2.6015
  174SAPI   H6Y19789   4.759   6.390   9.701 -0.7113  2.5206 -1.5021
  174SAPI   C3719790   4.906   6.360   9.551  0.3150 -0.3477 -0.6244
  174SAPI   H7X19791   4.876   6.255   9.529 -1.4168  0.2439 -1.1090
  174SAPI   H7Y19792   5.013   6.379   9.528 -0.5220  0.4180 -4.2237
  174SAPI   C3819793   4.825   6.454   9.452 -0.0489 -0.0134  0.4330
  174SAPI   H8X19794   4.838   6.560   9.483 -1.5561  0.1257  0.6089
  174SAPI   H8Y19795   4.717   6.431   9.466 -0.6764  2.8533  0.5336
  174SAPI   C3919796   4.855   6.416   9.302  0.3874 -0.6890 -0.3977
  174SAPI   H9X19797   4.777   6.462   9.239 -1.4142 -2.7577  0.2478
  174SAPI   H9Y19798   4.851   6.307   9.278  0.6107 -0.9760  0.8323
  174SAPI  C31019799   4.991   6.462   9.243 -0.2352 -0.1138 -0.0063
  174SAPI  H10X19800   5.065   6.397   9.292 -1.8923 -0.6653  1.8347
  174SAPI  H10Y19801   5.002   6.566   9.282  0.6865 -0.7028  1.3089
  174SAPI  C31119802   4.987   6.456   9.088 -0.2978 -0.2520 -0.3970
  174SAPI  H11X19803   4.909   6.531   9.063  0.0678  0.0358 -0.6681
  174SAPI  H11Y19804   4.960   6.356   9.048  0.2398  0.6980 -3.2505
  174SAPI  C31219805   5.115   6.497   9.021  0.7564  0.1742  0.0986
  174SAPI  H12X19806   5.188   6.419   9.051 -0.2848 -0.6071  0.6113
  174SAPI  H12Y19807   5.154   6.597   9.051 -1.0597  1.5496 -2.0119
  174SAPI  C31319808   5.099   6.517   8.871 -0.3616 -0.0907 -0.0864
  174SAPI  H13X19809   5.025   6.599   8.857 -0.4575  0.3109  2.4992
  174SAPI  H13Y19810   5.051   6.429   8.823  0.9378 -0.6080 -0.4377
  174SAPI  C31419811   5.224   6.566   8.794  0.3127  0.4491 -0.3259
  174SAPI  H14X19812   5.294   6.481   8.775  2.6085  1.3282  3.5460
  174SAPI  H14Y19813   5.277   6.644   8.852 -0.0593  0.7733 -0.4201
  174SAPI  C31519814   5.186   6.633   8.665 -0.2729  0.3560 -0.9883
  174SAPI  H15X19815   5.134   6.731   8.673  1.5628  1.4797 -2.5925
  174SAPI  H15Y19816   5.115   6.568   8.610 -1.5740  0.6505  0.2932
  174SAPI  C31619817   5.314   6.669   8.579 -0.3133  0.0902 -0.5005
  174SAPI  H16X19818   5.353   6.570   8.544  0.9449 -0.3627  2.0829
  174SAPI  H16Y19819   5.395   6.715   8.639  0.9027 -0.4378 -1.7027
  174SAPI  C31719820   5.270   6.759   8.467  0.4411  0.2084  0.3901
  174SAPI  H17X19821   5.358   6.813   8.426  0.0963 -0.2677 -1.0116
  174SAPI  H17Y19822   5.212   6.848   8.500  0.7686  1.4263 -2.2315
  174SAPI  C31819823   5.197   6.695   8.350  0.0431 -0.3212 -0.1196
  174SAPI  H18X19824   5.265   6.616   8.311  0.4484  1.0518 -2.2806
  174SAPI  H18Y19825   5.177   6.761   8.263 -1.3449 -3.3524 -2.2139
  174SAPI  H18Z19826   5.100   6.645   8.369  0.2301 -0.6312  0.0353
  175SAPI   C1219827   0.207   5.244   6.204  0.4356 -0.1262  0.7821
  175SAPI    H219828   0.184   5.146   6.253  1.3101 -0.0641  1.3247
  175SAPI    O219829   0.265   5.203   6.078  0.2688 -0.2183  0.0736
  175SAPI   HO219830   0.279   5.108   6.078 -3.0404 -0.7451  0.6672
  175SAPI   C1319831   0.073   5.315   6.188 -0.4914 -0.4345 -0.8827
  175SAPI    H319832   0.035   5.340   6.290  2.2085  0.3794 -0.0521
  175SAPI    O319833  -0.025   5.237   6.118  0.1682  0.4341  0.1468
  175SAPI   HO319834  -0.111   5.257   6.156 -0.8321 -2.8849 -0.2294
  175SAPI   C1419835   0.101   5.439   6.109  0.0174 -0.1868 -0.3346
  175SAPI    H419836   0.152   5.409   6.015 -0.4959 -2.3526  0.0585
  175SAPI    O419837  -0.021   5.514   6.080 -0.1965 -0.1856  0.0141
  175SAPI   HO419838  -0.074   5.513   6.160  2.1320 -0.9523  1.5723
  175SAPI   C1519839   0.199   5.535   6.189  0.0965  0.4987  0.4935
  175SAPI    H519840   0.137   5.554   6.279  0.3692 -0.6005  0.9269
  175SAPI    O519841   0.226   5.648   6.121  0.0651 -0.0435  0.6515
  175SAPI   HO519842   0.239   5.713   6.191 -0.3073 -2.1145  2.6899
  175SAPI   C1619843   0.324   5.454   6.232 -0.6952  0.5517 -0.8264
  175SAPI    H619844   0.383   5.451   6.138  1.5159  2.7556  0.4324
  175SAPI    O619845   0.401   5.534   6.321 -0.8451  0.0774  0.2429
  175SAPI   HO619846   0.389   5.499   6.409  0.8815 -0.8296  0.1257
  175SAPI   C1119847   0.304   5.322   6.294 -0.4947  0.2207  0.4649
  175SAPI    H119848   0.252   5.329   6.391 -0.3802  0.2152  0.5267
  175SAPI     P19849   0.449   5.104   6.388 -0.5036  0.2412  0.2559
  175SAPI   O1319850   0.592   5.079   6.381 -0.3393  0.5140  0.1169
  175SAPI   O1419851   0.372   4.988   6.335 -0.0862 -0.5080 -0.0763
  175SAPI   O1219852   0.423   5.249   6.309  0.6417  0.1211 -0.1000
  175SAPI   O1119853   0.400   5.128   6.527 -0.0130 -1.1376 -0.0525
  175SAPI    C119854   0.469   5.180   6.643  0.6872  0.3908  0.0942
  175SAPI    HA19855   0.573   5.209   6.618  0.1243 -0.3686 -3.4586
  175SAPI    HB19856   0.411   5.273   6.666 -1.9840 -1.1348 -0.2094
  175SAPI    C219857   0.456   5.085   6.770 -0.4281  0.0239  0.8708
  175SAPI    HS19858   0.486   4.985   6.731  1.4619  0.7236  0.5170
  175SAPI   O2119859   0.317   5.087   6.802  0.1578  0.3243  0.0412
  175SAPI   C2119860   0.269   4.982   6.867 -0.1802 -0.1225  0.4803
  175SAPI   O2219861   0.330   4.877   6.893 -0.3314 -0.2009 -0.0533
  175SAPI   C2219862   0.126   5.016   6.917 -0.9004 -0.2969  0.2861
  175SAPI   H2R19863   0.148   5.105   6.979 -1.3574 -1.2432  1.8260
  175SAPI   H2S19864   0.056   5.043   6.835 -0.3560 -0.6481 -0.2933
  175SAPI    C319865   0.538   5.116   6.893 -0.2904  0.1498  0.1805
  175SAPI    HX19866   0.493   5.204   6.943 -1.5688  0.0183 -0.7318
  175SAPI    HY19867   0.637   5.142   6.851 -0.4626 -0.1458 -0.4065
  175SAPI   O3119868   0.549   5.011   6.983  0.0184 -0.0732 -1.2760
  175SAPI   C3119869   0.628   4.909   6.956 -0.1275 -0.2624 -0.2145
  175SAPI   O3219870   0.702   4.897   6.859 -0.4632 -0.4118 -0.1963
  175SAPI   C3219871   0.624   4.810   7.074  0.4189  0.4406 -0.1696
  175SAPI   H2X19872   0.521   4.771   7.059  0.6340  0.1779 -0.9321
  175SAPI   H2Y19873   0.631   4.867   7.169  1.2887  0.7432 -0.4107
  175SAPI   C2319874   0.061   4.897   6.994 -1.3753 -0.4938  0.0363
  175SAPI   H3R19875   0.106   4.908   7.095 -3.3158  1.4020  0.7389
  175SAPI   H3S19876   0.107   4.803   6.956  1.0611  0.6862 -0.0553
  175SAPI   C2419877  -0.092   4.905   7.015 -0.3956 -0.0010  0.0894
  175SAPI   H4R19878  -0.121   4.940   6.914 -0.0290  1.3044  0.4265
  175SAPI   H4S19879  -0.115   4.974   7.099  0.8765 -0.9519  1.2436
  175SAPI   C2519880  -0.138   4.759   7.024 -0.4073  0.2909 -0.0225
  175SAPI   H5R19881  -0.160   4.716   6.925 -0.5202 -2.3966  1.1320
  175SAPI   C2619882  -0.164   4.675   7.126  0.4131  0.0926  0.5062
  175SAPI   H6R19883  -0.186   4.569   7.108  1.8337 -0.2108  0.5036
  175SAPI   C2719884  -0.159   4.708   7.269  0.0193 -0.2260 -0.4123
  175SAPI   H7R19885  -0.263   4.708   7.310  0.0011 -0.7169 -0.4550
  175SAPI   H7S19886  -0.113   4.808   7.284  1.6210 -0.7681 -1.6281
  175SAPI   C2819887  -0.081   4.607   7.358 -0.4138  0.1697  0.3767
  175SAPI   H8R19888   0.001   4.553   7.310 -0.5815 -0.8775  1.2309
  175SAPI   C2919889  -0.100   4.594   7.495 -0.0571 -0.0834  0.4544
  175SAPI   H9R19890  -0.046   4.518   7.554 -1.9544 -1.9153 -0.1006
  175SAPI  C21019891  -0.196   4.676   7.584  0.4082 -0.0692  0.2402
  175SAPI  H10R19892  -0.288   4.619   7.609  0.1702  0.5134  0.7035
  175SAPI  H10S19893  -0.226   4.777   7.547 -1.2095 -0.7068 -0.2407
  175SAPI  C21119894  -0.121   4.710   7.709  0.5348  0.4885  0.9968
  175SAPI  H11R19895  -0.059   4.800   7.703 -1.0241  1.6466  1.9409
  175SAPI  C21219896  -0.132   4.650   7.828 -0.8291  0.1935 -0.2891
  175SAPI  H12R19897  -0.066   4.688   7.907  2.1811 -1.4507 -1.9396
  175SAPI  C21319898  -0.216   4.536   7.876  0.5685  0.1709  0.6103
  175SAPI  H13R19899  -0.171   4.481   7.961 -1.2331 -0.8518  0.9167
  175SAPI  H13S19900  -0.220   4.455   7.801  1.8829 -0.5882  1.3235
  175SAPI  C21419901  -0.354   4.573   7.918 -0.2146  0.3484 -0.2470
  175SAPI  H14R19902  -0.387   4.677   7.902  0.1181  0.3282 -1.1297
  175SAPI  C21519903  -0.440   4.483   7.962  0.1493 -0.4032 -0.9158
  175SAPI  H15R19904  -0.533   4.516   8.012  1.8333  1.6783  0.9579
  175SAPI  C21619905  -0.425   4.328   7.963 -0.1250 -0.2452 -0.5805
  175SAPI  H16R19906  -0.324   4.280   7.959 -0.0541 -0.5981  3.2932
  175SAPI  H16S19907  -0.489   4.283   7.885 -0.1604 -1.1254 -0.0627
  175SAPI  C21719908  -0.484   4.277   8.091  0.1210  0.3018 -0.4139
  175SAPI  H17R19909  -0.585   4.319   8.111  0.3045  0.4291  0.2597
  175SAPI  H17S19910  -0.418   4.313   8.173  2.6109 -1.1811 -1.7306
  175SAPI  C21819911  -0.508   4.126   8.099 -0.3029  0.2719 -0.4388
  175SAPI  H18R19912  -0.429   4.085   8.033 -0.0707  0.5434 -0.3265
  175SAPI  H18S19913  -0.606   4.095   8.056 -0.2204 -1.3987  0.5248
  175SAPI  C21919914  -0.507   4.068   8.241 -0.0251  0.0698 -0.4453
  175SAPI  H19R19915  -0.416   4.107   8.292 -0.6367  0.2884  0.4826
  175SAPI  H19S19916  -0.503   3.958   8.257  0.3627  0.6356  4.0011
  175SAPI  C22019917  -0.624   4.113   8.327  0.9333 -0.2455 -0.1165
  175SAPI  H20R19918  -0.618   4.063   8.426  0.5338  0.1557  0.1094
  175SAPI  H20S19919  -0.721   4.091   8.277  1.0628  0.1332 -0.5353
  175SAPI  H20T19920  -0.616   4.221   8.350  0.9809  0.0165 -1.3596
  175SAPI   C3319921   0.714   4.686   7.071 -0.6965  0.0911 -0.5774
  175SAPI   H3X19922   0.720   4.642   6.969  0.8296 -0.5032 -0.2341
  175SAPI   H3Y19923   0.675   4.607   7.138 -2.1075  0.1656 -1.2891
  175SAPI   C3419924   0.860   4.729   7.108  0.1697  0.0092  0.1536
  175SAPI   H4X19925   0.869   4.838   7.089 -1.5676  0.1275 -0.0776
  175SAPI   H4Y19926   0.930   4.680   7.036 -2.5389 -3.1814 -0.4252
  175SAPI   C3519927   0.908   4.694   7.245 -0.1160 -0.0884 -0.3424
  175SAPI   H5X19928   1.015   4.723   7.259  0.0807 -0.3802 -1.2077
  175SAPI   H5Y19929   0.887   4.588   7.271 -0.0286  0.0822  0.4481
  175SAPI   C3619930   0.829   4.769   7.354  0.2262  0.2110 -0.3198
  175SAPI   H6X19931   0.720   4.765   7.334  0.3101 -1.7228 -0.4240
  175SAPI   H6Y19932   0.865   4.874   7.355 -0.5719  0.4910  1.2680
  175SAPI   C3719933   0.848   4.707   7.494  0.2076  0.0774  0.1925
  175SAPI   H7X19934   0.955   4.681   7.511 -0.0557 -0.6548  0.8034
  175SAPI   H7Y19935   0.799   4.607   7.498 -2.3144  1.1903 -1.7225
  175SAPI   C3819936   0.806   4.802   7.603  0.2841  0.0227 -0.3072
  175SAPI   H8X19937   0.699   4.821   7.580  0.8322  3.6538 -0.0533
  175SAPI   H8Y19938   0.853   4.900   7.584 -0.0400 -0.3346 -3.1256
  175SAPI   C3919939   0.822   4.744   7.742  0.2126  0.1903 -0.4614
  175SAPI   H9X19940   0.929   4.727   7.765  0.6694 -0.2445 -2.7527
  175SAPI   H9Y19941   0.769   4.647   7.733  0.1456  0.2592 -0.8431
  175SAPI  C31019942   0.740   4.816   7.841 -0.6458  0.4173  0.0267
  175SAPI  H10X19943   0.644   4.842   7.792 -0.0373  2.1983 -0.2715
  175SAPI  H10Y19944   0.791   4.913   7.861  0.9303 -0.7107  1.5877
  175SAPI  C31119945   0.716   4.745   7.975  0.4124  0.3134 -0.5890
  175SAPI  H11X19946   0.669   4.644   7.979 -2.4242  1.6180  0.7885
  175SAPI  H11Y19947   0.657   4.810   8.043 -0.0437 -0.9700  0.2687
  175SAPI  C31219948   0.840   4.720   8.057 -0.3587 -0.8850 -0.4498
  175SAPI  H12X19949   0.886   4.820   8.072 -0.2219 -1.0100 -0.0379
  175SAPI  H12Y19950   0.916   4.668   7.995  1.3580  2.3967 -1.2104
  175SAPI  C31319951   0.811   4.648   8.189 -0.0727  0.0482 -0.0881
  175SAPI  H13X19952   0.774   4.544   8.184 -0.6432  0.1296  2.0204
  175SAPI  H13Y19953   0.733   4.705   8.246 -0.2105  0.3751 -0.5971
  175SAPI  C31419954   0.932   4.653   8.280  0.0472 -0.0301 -0.7002
  175SAPI  H14X19955   0.946   4.763   8.284 -1.0195  0.0336  1.7529
  175SAPI  H14Y19956   1.025   4.599   8.252  0.2577 -0.8842  1.6113
  175SAPI  C31519957   0.900   4.609   8.422 -0.0570  0.5158 -0.1486
  175SAPI  H15X19958   0.818   4.673   8.460 -0.1398 -0.2449  0.9564
  175SAPI  H15Y19959   0.990   4.639   8.480 -0.1168  0.0701  0.1723
  175SAPI  C31619960   0.873   4.458   8.448 -0.0859  0.1294  0.1610
  175SAPI  H16X19961   0.952   4.387   8.415  0.2960  0.4604  0.3506
  175SAPI  H16Y19962   0.792   4.434   8.376  0.4673 -1.5473  0.0870
  175SAPI  C31719963   0.841   4.421   8.598 -0.0332  0.2591  0.6741
  175SAPI  H17X19964   0.810   4.315   8.597  0.5151  0.1001 -0.8500
  175SAPI  H17Y19965   0.764   4.494   8.633 -1.5276 -0.3392 -1.2769
  175SAPI  C31819966   0.956   4.427   8.696 -0.0961  0.3776 -0.4337
  175SAPI  H18X19967   0.963   4.527   8.743  0.8428  1.1541 -2.1808
  175SAPI  H18Y19968   1.051   4.408   8.642  0.7431 -0.4838  1.3186
  175SAPI  H18Z19969   0.948   4.349   8.775 -1.6079  0.7679 -0.1668
  176SAPI   C1219970   6.642   3.256   6.354 -0.6484 -0.0321 -0.3774
  176SAPI    H219971   6.703   3.180   6.408 -1.2535 -0.6786 -0.5903
  176SAPI    O219972   6.728   3.360   6.301 -0.4620  0.9660  0.1066
  176SAPI   HO219973   6.776   3.389   6.379  1.6315 -1.4113 -0.2336
  176SAPI   C1319974   6.580   3.185   6.237  0.1403 -0.0201  0.0312
  176SAPI    H319975   6.503   3.117   6.277 -2.5663  1.4169 -2.5558
  176SAPI    O319976   6.670   3.111   6.158  0.3393  0.4903  0.2561
  176SAPI   HO319977   6.752   3.152   6.129  0.0724  1.0981  0.3593
  176SAPI   C1419978   6.505   3.284   6.155  0.0802 -0.0850  0.1317
  176SAPI    H419979   6.563   3.370   6.114  1.9418 -1.1260  0.5324
  176SAPI    O419980   6.427   3.222   6.047  0.6156 -0.9170 -0.0178
  176SAPI   HO419981   6.337   3.202   6.072  0.0361 -0.3460 -1.6074
  176SAPI   C1519982   6.401   3.350   6.245  0.7742 -0.1062 -0.4768
  176SAPI    H519983   6.334   3.272   6.287 -0.7794  1.7540  0.5470
  176SAPI    O519984   6.316   3.444   6.174 -0.3857  0.0779  0.3858
  176SAPI   HO519985   6.371   3.523   6.172  0.5995 -0.6212 -0.9688
  176SAPI   C1619986   6.449   3.413   6.369 -0.0743 -0.2388  0.1998
  176SAPI    H619987   6.509   3.501   6.337 -2.3654  1.4106  0.3584
  176SAPI    O619988   6.348   3.464   6.450 -0.5074 -0.1426  0.0696
  176SAPI   HO619989   6.287   3.395   6.475  0.3796 -0.8302  0.3616
  176SAPI   C1119990   6.537   3.316   6.445  0.7989  0.1968 -0.0851
  176SAPI    H119991   6.466   3.235   6.472 -0.7470  2.4096  2.7499
  176SAPI     P19992   6.633   3.284   6.690  0.0816 -0.0966  0.1651
  176SAPI   O1319993   6.565   3.154   6.673  0.5584 -0.2087  0.7466
  176SAPI   O1419994   6.596   3.360   6.809 -0.1987  0.6362 -0.4543
  176SAPI   O1219995   6.608   3.374   6.557  0.5759 -0.0541  0.7120
  176SAPI   O1119996   6.787   3.272   6.680  0.0830 -0.6905  0.3670
  176SAPI    C119997   6.875   3.162   6.686  0.1989 -0.3049  0.5105
  176SAPI    HA19998   6.814   3.072   6.664  0.6641 -0.6264  0.5259
  176SAPI    HB19999   6.962   3.176   6.618 -0.3817 -0.1195 -0.1949
  176SAPI    C220000   6.933   3.144   6.830 -0.4492  0.3775 -0.3738
  176SAPI    HS20001   7.010   3.064   6.816  0.8187  1.7375 -1.3462
  176SAPI   O2120002   6.832   3.109   6.921  0.0255 -0.2876 -0.4897
  176SAPI   C2120003   6.769   2.994   6.923 -0.0784  0.1982 -0.1811
  176SAPI   O2220004   6.781   2.903   6.850 -0.2764  0.5819 -0.0816
  176SAPI   C2220005   6.669   3.015   7.046 -0.8110  0.7075 -0.1930
  176SAPI   H2R20006   6.631   2.912   7.063  0.8839 -0.1952 -1.6278
  176SAPI   H2S20007   6.729   3.048   7.134 -0.2034 -1.3244  0.1816
  176SAPI    C320008   7.019   3.270   6.871 -0.4911 -0.3059  0.2237
  176SAPI    HX20009   6.952   3.358   6.854 -2.1616 -1.3691  1.1885
  176SAPI    HY20010   7.110   3.277   6.807 -0.8024  1.5716 -0.0598
  176SAPI   O3120011   7.062   3.270   7.011 -0.1770 -0.4014 -0.3347
  176SAPI   C3120012   6.986   3.324   7.104 -0.1461 -0.9581 -0.5345
  176SAPI   O3220013   6.892   3.405   7.084  0.0520  0.4274 -0.3766
  176SAPI   C3220014   7.027   3.290   7.240  0.3843  1.1543  0.0061
  176SAPI   H2X20015   7.133   3.323   7.251  0.7599  0.3804 -1.1808
  176SAPI   H2Y20016   7.031   3.179   7.245 -2.1442  0.9654 -1.1736
  176SAPI   C2320017   6.562   3.120   7.022  0.0244 -0.6938  0.0017
  176SAPI   H3R20018   6.514   3.099   6.923 -0.0215 -0.2636 -0.0674
  176SAPI   H3S20019   6.605   3.222   7.018 -0.0168 -0.6650  0.3079
  176SAPI   C2420020   6.446   3.105   7.120 -0.4087 -0.3361 -1.0497
  176SAPI   H4R20021   6.417   3.000   7.100 -1.1433 -0.1554 -0.9191
  176SAPI   H4S20022   6.359   3.172   7.107 -1.7259 -1.8484 -0.1745
  176SAPI   C2520023   6.495   3.096   7.262 -0.0174 -0.6757  0.3118
  176SAPI   H5R20024   6.502   2.998   7.310 -1.0295 -0.1265  1.6209
  176SAPI   C2620025   6.513   3.208   7.342 -0.0270 -0.7100  0.4736
  176SAPI   H6R20026   6.535   3.192   7.449 -0.6277  2.0306  1.0554
  176SAPI   C2720027   6.491   3.348   7.311  0.4479  0.8704  0.5535
  176SAPI   H7R20028   6.388   3.379   7.339  0.3261 -0.1238  1.2333
  176SAPI   H7S20029   6.478   3.365   7.202  0.4281  0.9432  0.5666
  176SAPI   C2820030   6.584   3.458   7.366 -0.1676 -0.0791  0.0001
  176SAPI   H8R20031   6.637   3.509   7.284  0.2601  1.1956  1.0427
  176SAPI   C2920032   6.591   3.505   7.492 -0.9968  0.0860 -0.6465
  176SAPI   H9R20033   6.677   3.571   7.508 -1.4596  0.2693  1.1443
  176SAPI  C21020034   6.508   3.456   7.602 -0.3103  0.0931 -0.1046
  176SAPI  H10R20035   6.443   3.367   7.588 -0.8464  0.3326  0.7886
  176SAPI  H10S20036   6.424   3.529   7.610 -0.6945 -0.6343  3.0052
  176SAPI  C21120037   6.585   3.438   7.730 -0.0818 -0.1645 -0.2818
  176SAPI  H11R20038   6.694   3.432   7.716  0.1284  0.8673  0.8626
  176SAPI  C21220039   6.537   3.427   7.853  0.2003 -0.0599  0.0307
  176SAPI  H12R20040   6.607   3.410   7.936  0.3571 -1.8787 -0.4346
  176SAPI  C21320041   6.393   3.444   7.893 -0.5351 -0.2456  0.2142
  176SAPI  H13R20042   6.384   3.379   7.983  0.2619 -0.0932  0.4005
  176SAPI  H13S20043   6.323   3.414   7.812 -0.2443  0.3328 -0.2557
  176SAPI  C21420044   6.355   3.583   7.931 -0.1709 -0.0205  0.3681
  176SAPI  H14R20045   6.335   3.647   7.844 -1.3356 -1.0505 -0.1372
  176SAPI  C21520046   6.320   3.636   8.047  0.2576 -0.3672  0.2260
  176SAPI  H15R20047   6.283   3.739   8.049 -0.9580 -0.8052  1.0603
  176SAPI  C21620048   6.311   3.555   8.179  0.4396  0.1742 -0.1731
  176SAPI  H16R20049   6.403   3.494   8.180 -1.1539 -2.2632  1.7696
  176SAPI  H16S20050   6.222   3.489   8.183  0.2929  0.5116  2.5971
  176SAPI  C21720051   6.296   3.630   8.311  0.8683 -0.4931 -0.2630
  176SAPI  H17R20052   6.390   3.689   8.317 -0.6954  2.2313 -1.6297
  176SAPI  H17S20053   6.300   3.556   8.394 -0.4426 -1.2265 -0.8391
  176SAPI  C21820054   6.175   3.722   8.327 -0.2822  0.1616 -0.2728
  176SAPI  H18R20055   6.170   3.786   8.236 -0.8918 -1.9462 -1.7658
  176SAPI  H18S20056   6.189   3.789   8.414 -1.2071 -0.8062  0.6402
  176SAPI  C21920057   6.040   3.650   8.341  0.2417 -0.4914  0.7884
  176SAPI  H19R20058   6.022   3.615   8.445  0.6054  0.1864  1.0850
  176SAPI  H19S20059   6.043   3.578   8.257 -1.4797  2.1274 -1.6043
  176SAPI  C22020060   5.933   3.745   8.301  0.4188 -0.3184  0.0578
  176SAPI  H20R20061   5.905   3.827   8.370 -0.4313  0.5787 -1.3059
  176SAPI  H20S20062   5.841   3.684   8.289 -2.0190  3.3774 -1.3534
  176SAPI  H20T20063   5.965   3.788   8.203 -0.8611 -1.8132 -1.0500
  176SAPI   C3320064   6.948   3.349   7.357 -0.1812  0.4087 -0.6524
  176SAPI   H3X20065   6.845   3.307   7.345  0.1091 -0.2185 -1.0016
  176SAPI   H3Y20066   6.939   3.459   7.352 -1.5095  0.2392 -2.6481
  176SAPI   C3420067   7.002   3.299   7.490 -0.2060  0.2119 -0.1992
  176SAPI   H4X20068   7.097   3.352   7.514 -0.3657 -0.4107  1.8957
  176SAPI   H4Y20069   7.021   3.190   7.481  1.9676  0.5380  0.2567
  176SAPI   C3520070   6.916   3.332   7.611  0.6272 -0.2684  1.1181
  176SAPI   H5X20071   6.809   3.306   7.593  1.5306 -2.7649 -0.9213
  176SAPI   H5Y20072   6.909   3.443   7.619 -1.9005 -0.2045 -1.1085
  176SAPI   C3620073   6.961   3.253   7.743  0.3350 -0.4013  0.1833
  176SAPI   H6X20074   7.064   3.288   7.767 -0.3797  1.5622  0.4308
  176SAPI   H6Y20075   6.965   3.144   7.718 -2.9731 -0.1497 -1.6685
  176SAPI   C3720076   6.874   3.289   7.860 -0.2733 -0.6003  0.5237
  176SAPI   H7X20077   6.770   3.251   7.851 -0.2249 -0.1748 -2.1424
  176SAPI   H7Y20078   6.875   3.400   7.864  1.0070 -0.5903  0.0213
  176SAPI   C3820079   6.927   3.238   7.996  0.3734  0.3710 -0.7355
  176SAPI   H8X20080   7.027   3.278   8.023  0.0237  1.9656 -1.7236
  176SAPI   H8Y20081   6.942   3.128   7.990  0.3148  0.2687  0.6672
  176SAPI   C3920082   6.837   3.272   8.122 -0.4546  0.6254  0.3733
  176SAPI   H9X20083   6.739   3.221   8.117 -0.8525  1.1289  2.2697
  176SAPI   H9Y20084   6.822   3.383   8.124  0.9936  0.8391 -0.4185
  176SAPI  C31020085   6.914   3.240   8.258 -0.4404  0.1607  0.5301
  176SAPI  H10X20086   7.001   3.309   8.269  1.0946 -2.0198  2.4451
  176SAPI  H10Y20087   6.954   3.137   8.260 -1.5682 -0.3088 -0.2876
  176SAPI  C31120088   6.835   3.264   8.385  0.4525 -0.4551 -0.0871
  176SAPI  H11X20089   6.822   3.161   8.424 -1.1384 -0.7753 -1.4056
  176SAPI  H11Y20090   6.733   3.300   8.361 -0.0193 -1.8896 -0.2819
  176SAPI  C31220091   6.912   3.343   8.490 -0.4399 -0.3358 -0.5846
  176SAPI  H12X20092   6.898   3.449   8.458  0.2993  1.0582  3.4191
  176SAPI  H12Y20093   7.022   3.328   8.483  0.0455  1.6795  2.0113
  176SAPI  C31320094   6.852   3.330   8.627  0.2928 -0.9830 -0.0929
  176SAPI  H13X20095   6.902   3.408   8.688 -1.5745  1.0108 -1.0588
  176SAPI  H13Y20096   6.881   3.233   8.673  3.4406 -0.2248 -0.3685
  176SAPI  C31420097   6.704   3.349   8.635 -0.7446 -0.3693  0.3631
  176SAPI  H14X20098   6.653   3.263   8.587 -2.0636  0.3024  0.5554
  176SAPI  H14Y20099   6.686   3.434   8.566  0.8809 -3.1960 -3.7565
  176SAPI  C31520100   6.648   3.356   8.777 -0.1278  0.4014  0.0075
  176SAPI  H15X20101   6.706   3.285   8.839  0.8953  2.2879  1.2200
  176SAPI  H15Y20102   6.543   3.320   8.777 -0.1033  0.3406  0.9166
  176SAPI  C31620103   6.651   3.494   8.841 -0.7472  0.2212  0.4941
  176SAPI  H16X20104   6.666   3.570   8.760  2.9477  1.8185  2.5374
  176SAPI  H16Y20105   6.749   3.518   8.889 -0.8476  0.9485  0.3424
  176SAPI  C31720106   6.546   3.526   8.946 -0.4948  0.4153  0.0652
  176SAPI  H17X20107   6.444   3.504   8.907 -0.5369  1.3721 -0.3674
  176SAPI  H17Y20108   6.537   3.632   8.977  0.4630  0.3712  0.5086
  176SAPI  C31820109   6.573   3.445   9.074  0.4545  0.1374 -0.3962
  176SAPI  H18X20110   6.498   3.468   9.153 -0.0576 -0.0014 -0.8421
  176SAPI  H18Y20111   6.673   3.464   9.117  0.5136  0.6904 -0.7648
  176SAPI  H18Z20112   6.572   3.334   9.068  1.2258  0.0619  0.7784
  177SLPC     N20113   6.367   0.530  11.264 -0.0409  0.0045 -0.4782
  177SLPC   C1320114   6.314   0.393  11.237 -0.7732  0.1314  0.2684
  177SLPC  H13A20115   6.299   0.375  11.131  0.3426 -1.5961  0.3833
  177SLPC  H13B20116   6.385   0.326  11.282 -0.4639  1.6518  2.0858
  177SLPC  H13C20117   6.223   0.372  11.292 -0.4910  2.4317  1.6830
  177SLPC   C1420118   6.394   0.559  11.402  0.4524 -0.4680 -0.5014
  177SLPC  H14A20119   6.302   0.550  11.459  0.6385  1.1925  0.0960
  177SLPC  H14B20120   6.457   0.490  11.456  1.1471  1.1779  0.8529
  177SLPC  H14C20121   6.419   0.664  11.411  0.8256 -0.6103  0.1849
  177SLPC   C1520122   6.257   0.635  11.227 -0.0486 -0.0045 -0.1707
  177SLPC  H15A20123   6.160   0.609  11.266 -0.0928  0.5607  0.0982
  177SLPC  H15B20124   6.279   0.739  11.246 -2.5871  0.7951 -1.3614
  177SLPC  H15C20125   6.229   0.638  11.123 -0.2719  1.7509 -0.0784
  177SLPC   C1220126   6.496   0.563  11.184  0.3096  0.4198  0.5056
  177SLPC  H12A20127   6.576   0.499  11.219  0.8698  0.7001 -0.2355
  177SLPC  H12B20128   6.536   0.660  11.210  0.8234  0.6395 -1.0367
  177SLPC   C1120129   6.496   0.560  11.028  0.2501  0.3157  0.1371
  177SLPC  H11A20130   6.599   0.574  10.989 -0.5163  1.0945 -1.6532
  177SLPC  H11B20131   6.431   0.639  10.983 -2.7019 -1.2914  1.4023
  177SLPC     P20132   6.535   0.311  10.987 -0.3646 -0.3588 -0.4763
  177SLPC   O1320133   6.635   0.330  11.098 -0.1989 -0.3673 -0.2080
  177SLPC   O1420134   6.453   0.184  10.992  0.3159  0.1087  0.2904
  177SLPC   O1220135   6.441   0.434  10.988 -0.0775 -0.3597 -0.3184
  177SLPC   O1120136   6.619   0.321  10.849  0.7410 -0.2393 -0.0088
  177SLPC    C120137   6.536   0.365  10.740 -0.0111  0.0472  0.4785
  177SLPC    HA20138   6.484   0.284  10.684 -0.1193 -1.3254  2.4965
  177SLPC    HB20139   6.460   0.443  10.763 -3.2676 -2.2582 -1.8598
  177SLPC    C220140   6.620   0.444  10.634 -0.0873  0.5710  0.4877
  177SLPC    HS20141   6.703   0.381  10.595  1.4997  2.7781  0.2420
  177SLPC   O2120142   6.669   0.566  10.690 -0.1894  0.2286  0.4623
  177SLPC   C2120143   6.799   0.565  10.720  0.2070 -0.3296 -0.7101
  177SLPC   O2220144   6.860   0.461  10.736 -0.0446  0.0171  0.0913
  177SLPC   C2220145   6.848   0.707  10.746 -0.3992  0.0311 -0.2484
  177SLPC   H2R20146   6.768   0.776  10.779 -0.2931 -0.0911  0.2693
  177SLPC   H2S20147   6.917   0.693  10.832 -2.7709 -0.8968  1.5742
  177SLPC    C320148   6.539   0.483  10.506 -0.7433  0.1657 -0.2982
  177SLPC    HX20149   6.491   0.578  10.539  0.9719  1.2441 -0.8776
  177SLPC    HY20150   6.469   0.399  10.486  1.2150 -1.2224 -1.4561
  177SLPC   O3120151   6.630   0.511  10.396 -0.6314  0.0525  0.1639
  177SLPC   C3120152   6.667   0.639  10.363 -0.1070  0.6371  0.6022
  177SLPC   O3220153   6.641   0.737  10.430 -0.4152  0.3007 -0.3602
  177SLPC   C3220154   6.749   0.638  10.232  0.4990  0.9569 -0.1343
  177SLPC   H2X20155   6.695   0.584  10.152  1.1461  1.1195 -0.6855
  177SLPC   H2Y20156   6.836   0.570  10.248  0.5503  1.3245  1.2489
  177SLPC   C2320157   6.924   0.781  10.630  0.0004 -0.0706 -0.2528
  177SLPC   H3R20158   6.853   0.817  10.552 -1.0831  0.9656  1.1635
  177SLPC   H3S20159   6.985   0.706  10.577  1.3273  0.9097 -0.1515
  177SLPC   C2420160   6.999   0.910  10.678 -0.1735 -0.1006 -0.0682
  177SLPC   H4R20161   7.094   0.888  10.731  0.5010  2.1818 -0.2761
  177SLPC   H4S20162   6.939   0.969  10.750  0.7998  0.9376 -0.0840
  177SLPC   C2520163   7.032   0.998  10.563  0.1705  0.0762  0.0961
  177SLPC   H5R20164   7.060   1.097  10.605 -0.5746  0.8238 -1.1377
  177SLPC   H5S20165   6.935   1.016  10.512 -0.7095  0.6668  1.9584
  177SLPC   C2620166   7.144   0.936  10.466  0.1228  0.1679  0.2142
  177SLPC   H6R20167   7.102   0.841  10.427  1.8228 -0.1225 -1.0019
  177SLPC   H6S20168   7.224   0.902  10.536  0.9325 -1.0820 -1.2826
  177SLPC   C2720169   7.183   1.027  10.352  0.6734  0.0671  0.6730
  177SLPC   H7R20170   7.259   0.968  10.296  0.9053 -1.2320  2.3284
  177SLPC   H7S20171   7.245   1.112  10.387  1.1854 -0.9146  2.1837
  177SLPC   C2820172   7.065   1.067  10.255 -0.1385  0.5345 -1.0258
  177SLPC   H8R20173   6.965   1.032  10.289  0.6382  0.6226  1.4287
  177SLPC   H8S20174   7.082   1.021  10.155  0.2422 -0.9805 -0.2834
  177SLPC   C2920175   7.058   1.216  10.241  0.2969 -0.1468 -0.8638
  177SLPC   H9R20176   7.018   1.269  10.329  0.8518 -1.1806  0.0291
  177SLPC  C21020177   7.125   1.285  10.143 -0.1036  0.1988 -0.2839
  177SLPC  H10R20178   7.119   1.395  10.139  3.3158  0.5167  1.6717
  177SLPC  C21120179   7.211   1.219  10.031  0.6153 -0.4170 -0.6513
  177SLPC  H11R20180   7.276   1.299   9.988 -0.6299  0.6272 -0.6025
  177SLPC  H11S20181   7.278   1.150  10.086  2.3689  1.5319 -0.2645
  177SLPC  C21220182   7.137   1.161   9.914  0.8978  0.0104 -0.3355
  177SLPC  H12R20183   7.049   1.105   9.949  1.2479 -0.7298 -0.6317
  177SLPC  C21320184   7.164   1.167   9.782  0.2912 -0.1422 -0.7231
  177SLPC  H13R20185   7.117   1.101   9.707  0.4004  0.4673 -1.3297
  177SLPC  C21420186   7.280   1.234   9.716 -0.5342 -0.6261  0.1757
  177SLPC  H14R20187   7.369   1.232   9.783 -1.9110 -0.2711  2.0454
  177SLPC  H14S20188   7.254   1.341   9.701  0.3153 -0.5816 -1.0156
  177SLPC  C21520189   7.320   1.193   9.574 -0.3152 -0.6899  0.1269
  177SLPC  H15R20190   7.230   1.204   9.510 -0.2827 -1.0565  0.0209
  177SLPC  H15S20191   7.351   1.086   9.569 -0.6159 -0.7495 -0.4499
  177SLPC  C21620192   7.431   1.291   9.521  0.1738 -0.4144 -0.2285
  177SLPC  H16R20193   7.529   1.283   9.572 -1.5569  1.1216  3.5393
  177SLPC  H16S20194   7.389   1.389   9.552 -1.8968 -0.8514 -1.5214
  177SLPC  C21720195   7.454   1.273   9.373 -0.6408 -0.1466  0.5458
  177SLPC  H17R20196   7.354   1.260   9.326 -0.4235 -0.0828  0.0608
  177SLPC  H17S20197   7.508   1.177   9.362 -3.1582 -1.6172  0.5357
  177SLPC  C21820198   7.540   1.385   9.305  0.0940 -0.5202 -0.2360
  177SLPC  H18R20199   7.511   1.492   9.321  0.9402 -0.2699 -0.3622
  177SLPC  H18S20200   7.532   1.357   9.198 -0.5226 -1.4101  0.0383
  177SLPC  H18T20201   7.642   1.379   9.347 -0.2969 -2.0232  0.4948
  177SLPC   C3320202   6.786   0.777  10.187  0.1430 -0.6865 -0.1551
  177SLPC   H3X20203   6.840   0.835  10.266  0.5930  0.0346 -0.9811
  177SLPC   H3Y20204   6.709   0.849  10.152  0.3218 -0.6379 -0.4447
  177SLPC   C3420205   6.884   0.774  10.068  1.0756  0.0172  0.0399
  177SLPC   H4X20206   6.944   0.681  10.069 -0.4549 -0.9786  3.0309
  177SLPC   H4Y20207   6.950   0.863  10.074  3.6963 -1.9261  0.6822
  177SLPC   C3520208   6.804   0.781   9.934  0.7114 -0.0912  0.0687
  177SLPC   H5X20209   6.756   0.881   9.927 -1.3814 -1.1089 -0.5809
  177SLPC   H5Y20210   6.713   0.717   9.935  1.0742 -0.6476 -1.0849
  177SLPC   C3620211   6.905   0.763   9.819  0.3242  0.1077 -0.3185
  177SLPC   H6X20212   6.970   0.675   9.839 -1.9762 -2.1454 -2.3777
  177SLPC   H6Y20213   6.972   0.851   9.828 -0.3270  0.4172  1.8904
  177SLPC   C3720214   6.848   0.766   9.676  0.3748  0.0134  0.0430
  177SLPC   H7X20215   6.773   0.686   9.660  0.9025 -0.5604  0.3983
  177SLPC   H7Y20216   6.938   0.747   9.614  0.3852  1.6524 -0.4736
  177SLPC   C3820217   6.783   0.904   9.650  0.1062  0.6576  0.1927
  177SLPC   H8X20218   6.852   0.978   9.697  1.2184  0.0490 -0.4462
  177SLPC   H8Y20219   6.682   0.914   9.694  0.3115 -1.8913  1.3216
  177SLPC   C3920220   6.769   0.954   9.498 -0.3314 -0.4036  0.4622
  177SLPC   H9X20221   6.778   1.064   9.503 -1.7343 -0.2699  0.1068
  177SLPC   H9Y20222   6.669   0.935   9.456  0.5630 -1.2199 -1.3484
  177SLPC  C31020223   6.887   0.920   9.418  0.2189 -0.5228  0.0306
  177SLPC  H10X20224   6.897   0.809   9.409  1.2564 -0.4752  0.5695
  177SLPC  H10Y20225   6.980   0.944   9.474 -0.0593 -0.1358  0.3257
  177SLPC  C31120226   6.897   0.977   9.267  0.4544  0.1658  0.4003
  177SLPC  H11X20227   6.996   0.959   9.221 -0.3025  3.4895 -2.7557
  177SLPC  H11Y20228   6.887   1.087   9.275 -1.9235 -0.1389  2.1785
  177SLPC  C31220229   6.782   0.922   9.172 -0.4020 -0.2880 -0.0531
  177SLPC  H12X20230   6.687   0.929   9.229 -0.1740 -1.7134  0.5161
  177SLPC  H12Y20231   6.805   0.816   9.149  0.0099 -0.3357  0.5707
  177SLPC  C31320232   6.769   1.004   9.043 -0.6492  0.0320 -0.4592
  177SLPC  H13X20233   6.681   0.973   8.982  1.0030 -0.9826 -2.3980
  177SLPC  H13Y20234   6.860   0.989   8.981  0.0008  1.2062  0.2039
  177SLPC  C31420235   6.741   1.157   9.064 -0.0203  0.2046  0.2934
  177SLPC  H14X20236   6.833   1.216   9.086 -0.7924  0.8589  1.7719
  177SLPC  H14Y20237   6.686   1.168   9.160  2.4005 -0.3836  1.7983
  177SLPC  C31520238   6.659   1.222   8.952  0.8523 -0.5295  0.8134
  177SLPC  H15X20239   6.578   1.153   8.920 -0.5285  0.6365  1.6863
  177SLPC  H15Y20240   6.723   1.250   8.866 -0.4217 -0.7812 -0.2369
  177SLPC  C31620241   6.597   1.354   8.994 -0.6961 -0.8132 -1.0262
  177SLPC  H16X20242   6.540   1.343   9.088  0.4119  0.1276 -0.2263
  177SLPC  H16Y20243   6.523   1.380   8.916 -2.4928 -0.5344  0.7514
  177SLPC  C31720244   6.688   1.481   9.013  0.0357 -0.0805  0.5953
  177SLPC  H17X20245   6.735   1.505   8.916 -2.5283 -0.5868 -0.8108
  177SLPC  H17Y20246   6.768   1.462   9.088 -1.0484  4.2516  3.0356
  177SLPC  C31820247   6.617   1.601   9.073 -0.1102  0.6189 -0.5915
  177SLPC  H18X20248   6.699   1.658   9.121  1.0015  0.3763 -2.1911
  177SLPC  H18Y20249   6.543   1.562   9.146  1.1102  0.7727  0.7448
  177SLPC  H18Z20250   6.566   1.660   8.994 -1.4116  2.1881  1.3580
  178SLPC     N20251   1.505   2.293  11.255  0.0379  0.1499 -0.4385
  178SLPC   C1320252   1.548   2.192  11.361  0.3382  0.1481  1.0257
  178SLPC  H13A20253   1.465   2.145  11.411  0.1746  1.2068  1.7624
  178SLPC  H13B20254   1.616   2.112  11.333  0.4485  0.0794  1.4765
  178SLPC  H13C20255   1.585   2.250  11.444  1.0298 -0.5121  1.1866
  178SLPC   C1420256   1.629   2.354  11.189  0.8945 -0.2572 -0.4708
  178SLPC  H14A20257   1.670   2.430  11.254 -2.1904  2.1922 -1.2651
  178SLPC  H14B20258   1.700   2.277  11.161 -0.7226 -0.7493 -3.4218
  178SLPC  H14C20259   1.599   2.400  11.096 -0.0020  0.4749  0.1677
  178SLPC   C1520260   1.427   2.404  11.321  0.7921 -1.1592 -0.4956
  178SLPC  H15A20261   1.335   2.373  11.369  0.2460  0.2540 -0.6207
  178SLPC  H15B20262   1.493   2.465  11.380  1.1574 -2.4065  0.3932
  178SLPC  H15C20263   1.393   2.465  11.239  2.3210 -0.8417 -0.9031
  178SLPC   C1220264   1.425   2.222  11.151  0.2113  0.0716 -0.0285
  178SLPC  H12A20265   1.338   2.175  11.194 -0.8509 -0.8224 -2.9978
  178SLPC  H12B20266   1.482   2.137  11.114  1.7290  0.7363  0.7305
  178SLPC   C1120267   1.385   2.300  11.026 -0.9350 -0.4519 -0.1752
  178SLPC  H11A20268   1.350   2.402  11.053  2.8479  0.9158 -0.2033
  178SLPC  H11B20269   1.308   2.245  10.967 -2.4365  0.5365  0.8117
  178SLPC     P20270   1.570   2.208  10.850 -0.2176 -0.3342 -0.4546
  178SLPC   O1320271   1.694   2.268  10.794  0.4421 -0.3038  0.5079
  178SLPC   O1420272   1.588   2.085  10.932 -0.0747 -0.1991  0.2272
  178SLPC   O1220273   1.497   2.323  10.941 -0.5158 -0.5052  0.0002
  178SLPC   O1120274   1.461   2.192  10.738  0.6284 -0.1028  0.1354
  178SLPC    C120275   1.394   2.306  10.679 -0.6707  0.8877  0.4977
  178SLPC    HA20276   1.285   2.284  10.681 -0.2915 -1.8200 -3.0153
  178SLPC    HB20277   1.400   2.404  10.732 -0.0541  1.1518 -0.0645
  178SLPC    C220278   1.436   2.308  10.536 -0.9003 -0.2259  0.0462
  178SLPC    HS20279   1.547   2.313  10.541 -1.0606  3.2778  1.2282
  178SLPC   O2120280   1.387   2.427  10.476  0.4652 -0.1603 -0.5780
  178SLPC   C2120281   1.472   2.493  10.390 -0.2647 -0.3596  0.0234
  178SLPC   O2220282   1.578   2.454  10.352  0.0436 -0.1197 -0.3287
  178SLPC   C2220283   1.408   2.628  10.367 -0.0803  0.4536  0.2344
  178SLPC   H2R20284   1.298   2.623  10.376 -0.1736  1.5690 -0.2548
  178SLPC   H2S20285   1.442   2.695  10.450 -0.0937  1.6846 -0.7393
  178SLPC    C320286   1.382   2.176  10.470 -0.2963 -0.3172 -0.5506
  178SLPC    HX20287   1.274   2.184  10.498 -0.2220 -0.7781 -0.1458
  178SLPC    HY20288   1.416   2.077  10.506 -0.4703 -0.1396  0.1173
  178SLPC   O3120289   1.387   2.187  10.325  0.0981 -0.0146 -0.0210
  178SLPC   C3120290   1.510   2.161  10.276 -0.1832 -0.5972 -0.0182
  178SLPC   O3220291   1.603   2.125  10.349  0.1936  0.1283 -0.3072
  178SLPC   C3220292   1.514   2.172  10.121  0.2591 -0.1730  0.0692
  178SLPC   H2X20293   1.476   2.274  10.097 -0.1720 -0.6886 -1.4901
  178SLPC   H2Y20294   1.435   2.108  10.076 -0.3415  1.9594 -2.0487
  178SLPC   C2320295   1.467   2.692  10.235  0.5882  0.6274 -0.1867
  178SLPC   H3R20296   1.577   2.673  10.236  0.7382  1.4874  2.3475
  178SLPC   H3S20297   1.444   2.800  10.230  1.0913  0.7352 -0.1326
  178SLPC   C2420298   1.404   2.619  10.119 -0.1523 -0.2972  1.5420
  178SLPC   H4R20299   1.293   2.616  10.121 -0.2876  2.5603 -0.0291
  178SLPC   H4S20300   1.452   2.519  10.110 -0.8354 -0.5301  0.3828
  178SLPC   C2520301   1.427   2.689   9.985 -0.2427  0.7607  0.7318
  178SLPC   H5R20302   1.390   2.794   9.978  0.1011  0.9539  1.7265
  178SLPC   H5S20303   1.378   2.635   9.902  0.5594  1.0747  0.0442
  178SLPC   C2620304   1.580   2.707   9.955 -0.3463 -0.0436  0.1185
  178SLPC   H6R20305   1.628   2.617   9.911  3.7221  2.2877 -0.4609
  178SLPC   H6S20306   1.631   2.735  10.050  0.8352 -2.9143  0.3834
  178SLPC   C2720307   1.601   2.817   9.849 -0.7734  0.3883 -0.6413
  178SLPC   H7R20308   1.545   2.909   9.877 -0.6864  0.4922 -0.8069
  178SLPC   H7S20309   1.564   2.779   9.752  3.9369 -1.3713 -1.8536
  178SLPC   C2820310   1.746   2.866   9.836  0.4682  0.2026 -0.0964
  178SLPC   H8R20311   1.769   2.935   9.921 -2.9561  1.9887 -0.5572
  178SLPC   H8S20312   1.744   2.941   9.754  3.2661  0.0477 -0.3681
  178SLPC   C2920313   1.847   2.760   9.821  0.4663 -0.2034  0.6444
  178SLPC   H9R20314   1.894   2.717   9.911  1.2699  0.9876  0.8143
  178SLPC  C21020315   1.896   2.730   9.701  0.3294 -0.0348  0.0615
  178SLPC  H10R20316   1.966   2.647   9.687  0.5097  0.1929 -0.4354
  178SLPC  C21120317   1.843   2.791   9.574 -0.9158 -0.1947  0.2366
  178SLPC  H11R20318   1.757   2.861   9.577 -2.7240 -2.2774 -1.4622
  178SLPC  H11S20319   1.817   2.701   9.514  2.8289 -1.9609  1.1060
  178SLPC  C21220320   1.951   2.874   9.515 -0.7268  0.2719 -0.4983
  178SLPC  H12R20321   1.978   2.954   9.586 -0.6268  1.4160 -1.8089
  178SLPC  C21320322   2.016   2.847   9.408 -0.0333 -0.0220 -0.2336
  178SLPC  H13R20323   2.093   2.921   9.383 -1.1990  1.8396  1.5304
  178SLPC  C21420324   2.002   2.727   9.322 -0.5055  1.2767 -0.8331
  178SLPC  H14R20325   1.980   2.645   9.394 -0.9821  3.0366  1.0735
  178SLPC  H14S20326   2.090   2.714   9.255  1.4098  1.6696  1.5024
  178SLPC  C21520327   1.881   2.745   9.217 -0.3236 -0.8780 -0.7628
  178SLPC  H15R20328   1.895   2.851   9.185  0.4412 -1.0145 -0.8801
  178SLPC  H15S20329   1.792   2.742   9.284 -0.2979 -0.0894 -0.6780
  178SLPC  C21620330   1.882   2.636   9.114  0.0210 -0.2614  0.4453
  178SLPC  H16R20331   1.962   2.662   9.041 -0.6262  0.1369 -0.1327
  178SLPC  H16S20332   1.797   2.629   9.043  1.1560 -0.8178 -0.8898
  178SLPC  C21720333   1.914   2.495   9.159  0.0067 -0.6471 -0.1012
  178SLPC  H17R20334   1.843   2.451   9.233 -2.0426  0.6197 -1.2867
  178SLPC  H17S20335   2.014   2.505   9.207 -0.2336  0.7069  0.1301
  178SLPC  C21820336   1.937   2.403   9.039 -0.1362 -0.4238 -0.6420
  178SLPC  H18R20337   1.849   2.404   8.971 -0.5981 -2.6941 -0.1181
  178SLPC  H18S20338   1.953   2.299   9.074 -3.7392 -0.5681  0.8303
  178SLPC  H18T20339   2.028   2.435   8.983  1.1053 -1.1968  0.8948
  178SLPC   C3320340   1.643   2.134  10.054  0.4886 -0.0227 -0.2898
  178SLPC   H3X20341   1.664   2.028  10.080  0.3682 -0.0172 -0.1691
  178SLPC   H3Y20342   1.729   2.184  10.103 -0.5478  0.0350  1.4995
  178SLPC   C3420343   1.661   2.161   9.906  0.6308  0.4918  0.0082
  178SLPC   H4X20344   1.586   2.101   9.851  0.7172 -2.2403  2.7581
  178SLPC   H4Y20345   1.763   2.122   9.886  0.0138 -1.7863  1.1572
  178SLPC   C3520346   1.635   2.304   9.871  1.3643 -0.5226  0.0125
  178SLPC   H5X20347   1.689   2.372   9.941  0.2569 -0.7749  1.1331
  178SLPC   H5Y20348   1.526   2.314   9.892  0.7654  1.0157 -3.5589
  178SLPC   C3620349   1.644   2.322   9.718  0.4748  0.5593  0.2235
  178SLPC   H6X20350   1.605   2.233   9.665 -1.3481 -0.3964  3.0494
  178SLPC   H6Y20351   1.753   2.322   9.693  0.8253  0.6339  1.7110
  178SLPC   C3720352   1.581   2.450   9.653  0.1976  0.1252 -0.3160
  178SLPC   H7X20353   1.621   2.546   9.692  1.7711  0.9457 -3.7514
  178SLPC   H7Y20354   1.475   2.447   9.685 -0.1300 -0.4615 -1.4529
  178SLPC   C3820355   1.608   2.455   9.510  0.3999 -0.1248 -0.1684
  178SLPC   H8X20356   1.695   2.394   9.477  1.2990  1.5966 -1.1335
  178SLPC   H8Y20357   1.631   2.563   9.491  1.0022 -0.1537  0.3892
  178SLPC   C3920358   1.487   2.425   9.419  0.0123  0.0223  0.3308
  178SLPC   H9X20359   1.420   2.510   9.443  0.8707  0.8447 -0.1432
  178SLPC   H9Y20360   1.434   2.332   9.446 -0.3183  0.1803  0.2386
  178SLPC  C31020361   1.525   2.428   9.273  0.2423  1.1199 -0.3662
  178SLPC  H10X20362   1.609   2.356   9.265 -0.8579 -0.3881  1.2453
  178SLPC  H10Y20363   1.566   2.530   9.259  1.7011  0.2891 -2.3073
  178SLPC  C31120364   1.410   2.376   9.186 -0.4111  0.2337 -0.2317
  178SLPC  H11X20365   1.317   2.430   9.214 -0.4839 -0.3124  0.5890
  178SLPC  H11Y20366   1.397   2.267   9.199 -0.5459  0.2653 -0.0982
  178SLPC  C31220367   1.421   2.412   9.041 -0.2903  0.0330  0.0853
  178SLPC  H12X20368   1.426   2.523   9.031  0.7664 -0.0223 -0.0929
  178SLPC  H12Y20369   1.335   2.387   8.976 -0.3484 -0.7574  0.4582
  178SLPC  C31320370   1.543   2.350   8.974 -0.3892 -0.6671  0.2943
  178SLPC  H13X20371   1.523   2.242   8.988  1.9398 -1.1427  0.1041
  178SLPC  H13Y20372   1.638   2.374   9.026  0.8694 -1.7467 -1.4622
  178SLPC  C31420373   1.569   2.402   8.828 -0.1278 -0.1270 -0.3449
  178SLPC  H14X20374   1.580   2.513   8.833  1.2899 -0.2640 -0.2701
  178SLPC  H14Y20375   1.472   2.390   8.775 -0.7326  1.5237  0.3538
  178SLPC  C31520376   1.683   2.337   8.755  0.7307 -0.2694 -0.1474
  178SLPC  H15X20377   1.778   2.395   8.746 -1.1919  2.6953 -2.1943
  178SLPC  H15Y20378   1.727   2.247   8.804  2.1011  0.4849  0.0348
  178SLPC  C31620379   1.635   2.291   8.613 -0.4368  0.5933  0.0800
  178SLPC  H16X20380   1.619   2.377   8.546 -0.0778  0.0185 -0.7636
  178SLPC  H16Y20381   1.538   2.239   8.628 -1.1108  1.6064 -0.7197
  178SLPC  C31720382   1.729   2.199   8.535 -0.1804  0.7600  0.7031
  178SLPC  H17X20383   1.699   2.092   8.544  2.6982 -0.1633 -0.0646
  178SLPC  H17Y20384   1.832   2.214   8.575  0.6258  0.9258 -1.3277
  178SLPC  C31820385   1.737   2.235   8.381 -0.4872 -0.2415  0.6828
  178SLPC  H18X20386   1.823   2.177   8.342 -2.8723 -0.7046 -4.1826
  178SLPC  H18Y20387   1.745   2.344   8.362 -2.4279  0.2272  2.3579
  178SLPC  H18Z20388   1.643   2.205   8.331  0.5952 -1.8495 -0.4390
  179SLPC     N20389   3.805   5.306  10.774 -0.2522  0.1806  0.1270
  179SLPC   C1320390   3.790   5.372  10.900  0.4231 -0.2883 -0.4088
  179SLPC  H13A20391   3.751   5.472  10.887  4.5935  1.4388 -0.4050
  179SLPC  H13B20392   3.744   5.317  10.981 -0.4487 -0.4311 -0.9984
  179SLPC  H13C20393   3.890   5.390  10.937 -0.5290 -0.7854  2.5498
  179SLPC   C1420394   3.898   5.190  10.784 -0.4121 -0.4101  0.2749
  179SLPC  H14A20395   3.895   5.128  10.696 -0.5779  1.8618 -1.3672
  179SLPC  H14B20396   3.998   5.229  10.795 -0.8675  1.1614 -0.9898
  179SLPC  H14C20397   3.881   5.133  10.875 -1.0150 -0.8278 -0.0914
  179SLPC   C1520398   3.866   5.408  10.683  0.2721  0.4040  0.0609
  179SLPC  H15A20399   3.790   5.475  10.645  0.3979  0.0275 -0.8676
  179SLPC  H15B20400   3.943   5.470  10.727  1.5511 -2.0230  1.3824
  179SLPC  H15C20401   3.905   5.359  10.595  1.6328  0.9998  0.3156
  179SLPC   C1220402   3.675   5.242  10.717  0.0610  0.5378  0.9951
  179SLPC  H12A20403   3.586   5.298  10.744 -2.7520 -2.1704 -2.2288
  179SLPC  H12B20404   3.658   5.155  10.779  1.1166  0.6866  1.5101
  179SLPC   C1120405   3.675   5.198  10.568  0.3102 -0.2675 -0.1115
  179SLPC  H11A20406   3.676   5.285  10.500 -1.1862  0.4702  0.7832
  179SLPC  H11B20407   3.569   5.167  10.552 -0.3523  2.2606 -0.8040
  179SLPC     P20408   3.708   4.945  10.510  0.1761  0.3115 -0.2702
  179SLPC   O1320409   3.818   4.862  10.459  0.0129 -0.3547 -0.5097
  179SLPC   O1420410   3.653   4.898  10.638  0.2549  0.2565 -0.3218
  179SLPC   O1220411   3.767   5.093  10.528  0.5857 -0.0935  0.1319
  179SLPC   O1120412   3.596   4.957  10.397  0.1505  0.0709 -0.2488
  179SLPC    C120413   3.624   4.979  10.261 -0.5340  0.3266 -0.1344
  179SLPC    HA20414   3.690   5.069  10.256  0.0919  0.0735  2.6739
  179SLPC    HB20415   3.687   4.901  10.212  0.6077  0.1717  1.5492
  179SLPC    C220416   3.502   4.997  10.176 -1.2731  0.6890 -0.3227
  179SLPC    HS20417   3.423   4.933  10.220  0.2650 -0.5162  0.7189
  179SLPC   O2120418   3.530   4.941  10.042 -0.2445  0.2158 -0.2146
  179SLPC   C2120419   3.421   4.932   9.970 -0.4598 -0.3549 -0.6316
  179SLPC   O2220420   3.312   4.957  10.009 -0.1052  0.0965  0.5641
  179SLPC   C2220421   3.469   4.868   9.837  0.1890  0.2352 -0.2271
  179SLPC   H2R20422   3.545   4.931   9.787 -1.3512  0.3435 -2.5155
  179SLPC   H2S20423   3.517   4.772   9.867  0.4197  0.4428  0.0606
  179SLPC    C320424   3.443   5.145  10.183 -0.0664  0.4782 -0.5685
  179SLPC    HX20425   3.418   5.160  10.290 -2.5004  0.4110 -1.1031
  179SLPC    HY20426   3.349   5.149  10.124  0.3164  0.7220 -1.1560
  179SLPC   O3120427   3.542   5.243  10.141  0.0503  0.6885  0.7031
  179SLPC   C3120428   3.550   5.349  10.211 -0.8892 -0.1053 -0.5591
  179SLPC   O3220429   3.475   5.379  10.302 -0.1734  1.0300 -0.0039
  179SLPC   C3220430   3.646   5.439  10.134  0.5068 -0.1473 -0.3173
  179SLPC   H2X20431   3.624   5.430  10.026  1.1841  0.2013 -0.4939
  179SLPC   H2Y20432   3.745   5.393  10.156  0.8565 -0.0662 -1.6663
  179SLPC   C2320433   3.359   4.840   9.735  0.6977  0.1727  0.0331
  179SLPC   H3R20434   3.324   4.939   9.699  1.6922  0.4136 -0.2844
  179SLPC   H3S20435   3.274   4.787   9.783 -0.7828  2.7322  0.3737
  179SLPC   C2420436   3.420   4.760   9.616 -0.1694 -0.0481 -0.0998
  179SLPC   H4R20437   3.332   4.737   9.552  0.2530 -1.7819 -0.0877
  179SLPC   H4S20438   3.465   4.664   9.649  0.2515 -0.0749 -0.7254
  179SLPC   C2520439   3.517   4.841   9.533 -0.0051 -0.4639  0.0315
  179SLPC   H5R20440   3.601   4.870   9.598  0.1033 -0.4100 -0.1310
  179SLPC   H5S20441   3.478   4.940   9.500 -0.5674 -0.1272  1.6777
  179SLPC   C2620442   3.575   4.773   9.411  0.6429  0.5888  0.6377
  179SLPC   H6R20443   3.633   4.682   9.438 -1.0353 -0.4205  0.9671
  179SLPC   H6S20444   3.647   4.844   9.365  2.1060 -0.6851  0.9054
  179SLPC   C2720445   3.475   4.720   9.297 -0.2725  0.3548 -0.3549
  179SLPC   H7R20446   3.416   4.809   9.265 -0.1051  0.1651 -1.1939
  179SLPC   H7S20447   3.414   4.640   9.344  1.5857 -1.1694 -0.4828
  179SLPC   C2820448   3.552   4.664   9.172  0.2137 -0.1558  0.9672
  179SLPC   H8R20449   3.479   4.606   9.111  1.6807 -1.6470  0.5944
  179SLPC   H8S20450   3.626   4.582   9.189 -0.4800 -1.1870 -0.8618
  179SLPC   C2920451   3.623   4.761   9.084 -0.2151 -0.7763  0.1829
  179SLPC   H9R20452   3.554   4.831   9.035 -1.9129 -1.9445  0.8606
  179SLPC  C21020453   3.752   4.785   9.089 -0.9873  0.2223  0.0324
  179SLPC  H10R20454   3.785   4.863   9.019 -1.3930  1.2025  0.9208
  179SLPC  C21120455   3.859   4.719   9.176  0.5526  0.6874 -0.4269
  179SLPC  H11R20456   3.862   4.610   9.156 -1.8327  0.9523 -2.5006
  179SLPC  H11S20457   3.823   4.707   9.280 -0.0793  1.2635 -0.5699
  179SLPC  C21220458   3.989   4.780   9.159 -0.0796  0.2824  0.2926
  179SLPC  H12R20459   3.989   4.887   9.186 -0.6764  1.0057 -2.4077
  179SLPC  C21320460   4.090   4.733   9.077  0.2368 -0.5488  0.4876
  179SLPC  H13R20461   4.188   4.782   9.067  0.7112 -1.8196 -1.6473
  179SLPC  C21420462   4.085   4.602   8.997  0.6963 -0.5931 -0.6904
  179SLPC  H14R20463   4.046   4.616   8.893 -2.0437  2.0655  0.6060
  179SLPC  H14S20464   4.016   4.532   9.049 -1.0566  1.1742 -0.5589
  179SLPC  C21520465   4.220   4.532   8.977  0.8829  1.1880 -0.1162
  179SLPC  H15R20466   4.188   4.441   8.923  0.6048  0.4598  1.2584
  179SLPC  H15S20467   4.272   4.510   9.073  0.2592  0.9798  0.1784
  179SLPC  C21620468   4.322   4.614   8.895 -1.1523  0.3937  0.3840
  179SLPC  H16R20469   4.382   4.682   8.959 -2.8581  1.7060  0.5952
  179SLPC  H16S20470   4.267   4.688   8.833 -0.7226  0.8177  0.5076
  179SLPC  C21720471   4.430   4.545   8.819 -0.1756 -0.3571  0.3367
  179SLPC  H17R20472   4.388   4.483   8.736  1.5434 -1.1512  0.0471
  179SLPC  H17S20473   4.482   4.478   8.891  1.3883  0.7068  0.2048
  179SLPC  C21820474   4.519   4.649   8.761 -0.0548 -0.4196  0.0095
  179SLPC  H18R20475   4.477   4.718   8.685  1.3489  0.1607 -0.2498
  179SLPC  H18S20476   4.602   4.600   8.706 -0.1511  0.6020 -1.0669
  179SLPC  H18T20477   4.558   4.706   8.847 -0.6573 -3.0700  2.1100
  179SLPC   C3320478   3.644   5.591  10.182 -0.3719 -0.1894  0.5599
  179SLPC   H3X20479   3.723   5.643  10.124 -0.6306 -0.4848 -0.0533
  179SLPC   H3Y20480   3.665   5.595  10.291  1.9944 -0.0812  0.1418
  179SLPC   C3420481   3.510   5.665  10.141 -0.4085 -0.0880 -0.6648
  179SLPC   H4X20482   3.520   5.763  10.193  0.0709 -0.3380 -0.2856
  179SLPC   H4Y20483   3.416   5.625  10.185  0.7872 -0.5293  1.5488
  179SLPC   C3520484   3.500   5.678   9.994  0.0608  0.3629 -0.2621
  179SLPC   H5X20485   3.495   5.580   9.940 -0.8053  1.3422 -2.0092
  179SLPC   H5Y20486   3.579   5.743   9.950  0.6063  0.7349  1.2354
  179SLPC   C3620487   3.370   5.764   9.974  0.4554  0.7148  0.2304
  179SLPC   H6X20488   3.355   5.847  10.047 -0.6310 -0.2199  1.0869
  179SLPC   H6Y20489   3.289   5.691   9.995  0.4974  0.5720 -0.1059
  179SLPC   C3720490   3.344   5.828   9.832 -0.2231  0.5459 -0.1135
  179SLPC   H7X20491   3.365   5.746   9.760  0.8226 -1.0557  1.9502
  179SLPC   H7Y20492   3.414   5.913   9.819  0.9946 -0.5208 -0.6327
  179SLPC   C3820493   3.201   5.873   9.803 -0.1180 -0.1434 -0.2899
  179SLPC   H8X20494   3.164   5.937   9.886 -3.7674 -3.0662  0.4790
  179SLPC   H8Y20495   3.131   5.787   9.809 -0.7789  0.2406 -2.0229
  179SLPC   C3920496   3.184   5.968   9.682 -0.5883  0.1643  0.0574
  179SLPC   H9X20497   3.242   6.060   9.703  0.3206 -0.4556  0.3203
  179SLPC   H9Y20498   3.080   6.005   9.675 -1.0242 -0.9462  0.4277
  179SLPC  C31020499   3.229   5.900   9.557  0.2788  0.1607 -0.1586
  179SLPC  H10X20500   3.337   5.874   9.559  0.5330  1.2979  2.1034
  179SLPC  H10Y20501   3.211   5.970   9.473  0.6079 -0.2626 -0.5883
  179SLPC  C31120502   3.156   5.767   9.515  0.8469  0.1210  0.3679
  179SLPC  H11X20503   3.054   5.787   9.475  0.4114 -1.2597  0.7426
  179SLPC  H11Y20504   3.156   5.697   9.602 -1.7174 -0.6313 -0.2002
  179SLPC  C31220505   3.236   5.694   9.409 -0.5978  0.1387 -0.8181
  179SLPC  H12X20506   3.189   5.593   9.410 -0.2572 -0.0552 -2.3889
  179SLPC  H12Y20507   3.345   5.676   9.424  0.0255  2.5580 -2.1020
  179SLPC  C31320508   3.222   5.747   9.265 -0.8588  0.0979  0.0828
  179SLPC  H13X20509   3.268   5.848   9.260 -1.5454  0.4298  0.3585
  179SLPC  H13Y20510   3.115   5.743   9.234 -0.4862  0.6599 -1.3296
  179SLPC  C31420511   3.286   5.669   9.155 -0.3378  0.0183 -0.4576
  179SLPC  H14X20512   3.291   5.570   9.203 -1.2399  0.4985  0.6412
  179SLPC  H14Y20513   3.392   5.702   9.145 -0.5815  0.6719 -0.9368
  179SLPC  C31520514   3.223   5.654   9.022  0.4855  0.0860  0.3423
  179SLPC  H15X20515   3.133   5.588   9.025  1.0251 -0.8553 -2.5659
  179SLPC  H15Y20516   3.295   5.611   8.949 -0.8137 -1.3102 -0.1287
  179SLPC  C31620517   3.178   5.790   8.958 -0.1679  0.1300  0.2498
  179SLPC  H16X20518   3.269   5.844   8.923  1.1346 -1.6865  0.7713
  179SLPC  H16Y20519   3.129   5.841   9.044  0.1983  0.2207  0.4107
  179SLPC  C31720520   3.073   5.787   8.847  0.2730  0.1582 -0.0883
  179SLPC  H17X20521   3.023   5.886   8.849  0.9102  0.4571  1.6065
  179SLPC  H17Y20522   2.990   5.717   8.869  0.2475 -0.4958 -2.1151
  179SLPC  C31820523   3.123   5.785   8.701  0.5580 -0.0376 -0.4505
  179SLPC  H18X20524   3.047   5.769   8.622  0.4564  0.3882 -0.4386
  179SLPC  H18Y20525   3.188   5.696   8.690 -0.4319 -0.8060 -0.2059
  179SLPC  H18Z20526   3.190   5.870   8.676  0.5297 -0.1189 -0.7917
  180SLPC     N20527   4.356   3.398  11.173 -0.8078  0.1485 -0.2449
  180SLPC   C1320528   4.302   3.257  11.170 -0.2296  0.1489  0.3912
  180SLPC  H13A20529   4.250   3.238  11.262 -0.2773 -3.2036 -0.2754
  180SLPC  H13B20530   4.250   3.241  11.076 -1.2045 -2.3839  1.3261
  180SLPC  H13C20531   4.386   3.189  11.168 -0.0483  0.3787 -2.1369
  180SLPC   C1420532   4.398   3.428  11.319  0.0769  0.0340  0.1582
  180SLPC  H14A20533   4.389   3.531  11.350  2.3652 -0.1699  1.5477
  180SLPC  H14B20534   4.331   3.374  11.383  0.9671  0.9860  1.9257
  180SLPC  H14C20535   4.489   3.375  11.343 -1.5341 -2.7767  0.2316
  180SLPC   C1520536   4.237   3.491  11.153  0.4970 -0.1961 -0.2030
  180SLPC  H15A20537   4.170   3.465  11.234  0.2574  1.2801  0.0883
  180SLPC  H15B20538   4.270   3.594  11.157  0.1801  0.0853 -3.6251
  180SLPC  H15C20539   4.194   3.477  11.055 -0.1557  0.0774  0.0409
  180SLPC   C1220540   4.466   3.429  11.076 -0.5208  0.0788  0.2660
  180SLPC  H12A20541   4.557   3.374  11.095 -0.6132  0.4870  1.9310
  180SLPC  H12B20542   4.494   3.533  11.088 -1.3247  0.2031  1.1451
  180SLPC   C1120543   4.428   3.410  10.925 -0.0461  0.3779  0.4739
  180SLPC  H11A20544   4.521   3.454  10.881 -0.1202 -0.5259 -0.6076
  180SLPC  H11B20545   4.346   3.481  10.903  0.8894  2.6195  3.8099
  180SLPC     P20546   4.501   3.174  10.846  0.1511 -0.2785  0.5012
  180SLPC   O1320547   4.620   3.250  10.793 -0.0268  0.0880  0.2384
  180SLPC   O1420548   4.534   3.081  10.955  0.0357  0.2158  0.2166
  180SLPC   O1220549   4.390   3.278  10.884  0.3917 -0.2777  0.2737
  180SLPC   O1120550   4.435   3.094  10.734 -0.6601  0.1073 -1.2696
  180SLPC    C120551   4.394   3.174  10.615 -0.0997  0.1158  0.7118
  180SLPC    HA20552   4.296   3.226  10.626  0.8101  2.1469 -0.5587
  180SLPC    HB20553   4.468   3.250  10.583 -0.9892  0.2348 -1.1246
  180SLPC    C220554   4.362   3.088  10.493  0.0080 -0.3687  0.3582
  180SLPC    HS20555   4.454   3.029  10.468 -0.1131 -0.2198 -0.4593
  180SLPC   O2120556   4.321   3.168  10.381  0.7382  1.1644 -0.0478
  180SLPC   C2120557   4.417   3.205  10.301 -0.2547 -0.7252 -0.8629
  180SLPC   O2220558   4.537   3.192  10.317  0.1662  0.0243 -0.0713
  180SLPC   C2220559   4.348   3.264  10.182  0.0745 -0.1488 -0.2659
  180SLPC   H2R20560   4.253   3.314  10.212 -0.1446  0.1721 -1.4594
  180SLPC   H2S20561   4.420   3.340  10.145 -1.4433  1.4959  0.0540
  180SLPC    C320562   4.267   2.974  10.521  0.8359 -0.3577 -0.4389
  180SLPC    HX20563   4.169   3.023  10.545  0.6680 -1.3209  0.9375
  180SLPC    HY20564   4.300   2.922  10.614 -0.2649  1.4721  1.0049
  180SLPC   O3120565   4.270   2.886  10.412  0.3050 -0.0961 -0.5841
  180SLPC   C3120566   4.171   2.794  10.410 -0.5525 -0.5028  0.2378
  180SLPC   O3220567   4.073   2.798  10.485 -0.1232 -0.0954 -0.2564
  180SLPC   C3220568   4.179   2.688  10.297 -0.1087  0.2780  0.0038
  180SLPC   H2X20569   4.071   2.679  10.271 -0.5806  0.1771  1.8578
  180SLPC   H2Y20570   4.201   2.590  10.346  2.3914  1.6579  1.7295
  180SLPC   C2320571   4.320   3.165  10.070 -0.4968 -0.6607 -0.1068
  180SLPC   H3R20572   4.261   3.219   9.993  2.5895  0.3164 -1.8866
  180SLPC   H3S20573   4.259   3.080  10.108  0.8425 -1.0152  1.3112
  180SLPC   C2420574   4.454   3.130   9.996 -0.3261  0.3870 -0.6351
  180SLPC   H4R20575   4.533   3.088  10.063 -2.3292 -1.0217  0.9027
  180SLPC   H4S20576   4.506   3.220   9.956  1.9059 -0.8022 -0.5293
  180SLPC   C2520577   4.431   3.026   9.884  0.0082 -0.1444  0.0138
  180SLPC   H5R20578   4.395   2.928   9.923  1.9586 -1.8579 -2.3018
  180SLPC   H5S20579   4.527   3.000   9.835  0.6915 -0.1637  1.3283
  180SLPC   C2620580   4.317   3.064   9.781 -0.5139  1.0104  0.3802
  180SLPC   H6R20581   4.330   3.172   9.760 -0.0204  1.1256  1.2433
  180SLPC   H6S20582   4.219   3.048   9.831  0.3897 -1.4905  1.4369
  180SLPC   C2720583   4.314   2.973   9.662  0.3518 -0.1099 -0.0358
  180SLPC   H7R20584   4.273   2.874   9.691  1.5303 -0.7118 -0.3859
  180SLPC   H7S20585   4.419   2.954   9.631 -0.0477 -0.6791 -1.0630
  180SLPC   C2820586   4.258   3.047   9.543 -0.0339 -0.1921  0.1881
  180SLPC   H8R20587   4.173   3.112   9.572  1.2137  0.4086  2.6607
  180SLPC   H8S20588   4.226   2.967   9.473  0.3308  0.8781 -1.2308
  180SLPC   C2920589   4.357   3.137   9.476  0.4410  0.2217  0.1696
  180SLPC   H9R20590   4.395   3.213   9.545  1.0331  0.7074 -0.6735
  180SLPC  C21020591   4.404   3.127   9.349 -0.6411 -0.0301 -0.2744
  180SLPC  H10R20592   4.464   3.206   9.302 -0.8404 -0.5759 -1.4708
  180SLPC  C21120593   4.378   3.017   9.246  0.2620  0.0002  0.2456
  180SLPC  H11R20594   4.376   2.924   9.306 -1.1372  0.0777  0.3348
  180SLPC  H11S20595   4.472   2.995   9.192  0.8093 -0.3872  1.3399
  180SLPC  C21220596   4.255   3.045   9.163  0.3022 -0.0782  0.0291
  180SLPC  H12R20597   4.169   3.085   9.218 -0.2622  2.3001 -2.5018
  180SLPC  C21320598   4.251   3.026   9.032 -0.1036 -0.1061 -0.4770
  180SLPC  H13R20599   4.152   3.037   8.986 -0.1152  1.4189 -0.1009
  180SLPC  C21420600   4.361   2.974   8.945 -0.5779 -0.2383 -0.0005
  180SLPC  H14R20601   4.428   2.911   9.008 -1.7601  0.4640  2.0037
  180SLPC  H14S20602   4.420   3.051   8.892 -0.9254 -2.0675 -3.1822
  180SLPC  C21520603   4.298   2.879   8.836  0.2513 -0.2547  0.0538
  180SLPC  H15R20604   4.385   2.843   8.776 -1.4510 -0.6527 -2.2297
  180SLPC  H15S20605   4.228   2.935   8.770 -0.3170 -1.2438 -0.2033
  180SLPC  C21620606   4.221   2.761   8.898 -0.6744  0.1087 -0.2694
  180SLPC  H16R20607   4.138   2.793   8.964  1.5671  3.2898  1.1402
  180SLPC  H16S20608   4.292   2.729   8.977 -0.8621  0.9818  0.2600
  180SLPC  C21720609   4.193   2.656   8.789 -0.1877  0.3180  0.2020
  180SLPC  H17R20610   4.292   2.634   8.744 -0.3740  0.1480 -0.1286
  180SLPC  H17S20611   4.128   2.709   8.715 -0.0186  2.1042  1.2901
  180SLPC  C21820612   4.121   2.533   8.853  0.6108 -0.3458 -0.2783
  180SLPC  H18R20613   4.029   2.558   8.909  0.2222 -2.2960 -0.0097
  180SLPC  H18S20614   4.187   2.474   8.921  1.6695  0.0185 -0.9772
  180SLPC  H18T20615   4.099   2.463   8.770 -1.7276  0.3310 -0.2404
  180SLPC   C3320616   4.267   2.730  10.178  0.0350 -0.5868  0.0548
  180SLPC   H3X20617   4.372   2.742  10.212 -0.6728  0.7628  1.8590
  180SLPC   H3Y20618   4.220   2.824  10.143  2.6129  1.0840  0.8865
  180SLPC   C3420619   4.256   2.628  10.058 -0.7242 -0.2854 -0.3215
  180SLPC   H4X20620   4.154   2.585  10.065 -1.0677  0.5237 -0.3065
  180SLPC   H4Y20621   4.333   2.555  10.090 -0.9094  0.7134  2.5682
  180SLPC   C3520622   4.280   2.684   9.916 -0.2805 -0.0679  0.8337
  180SLPC   H5X20623   4.384   2.722   9.922 -0.1167  0.1747 -2.5693
  180SLPC   H5Y20624   4.234   2.784   9.899  2.2006  0.8675 -0.5777
  180SLPC   C3620625   4.270   2.579   9.806 -0.3747 -0.1896  0.4319
  180SLPC   H6X20626   4.296   2.641   9.718  2.2764 -1.4500  0.2774
  180SLPC   H6Y20627   4.166   2.543   9.793 -0.4150  0.4152 -0.9815
  180SLPC   C3720628   4.366   2.462   9.817 -0.7008 -0.2240 -0.3701
  180SLPC   H7X20629   4.352   2.399   9.907  0.1305  0.0093 -0.0736
  180SLPC   H7Y20630   4.467   2.507   9.824 -1.7181  1.7374  3.4125
  180SLPC   C3820631   4.366   2.375   9.696 -0.1702 -0.8051  0.2206
  180SLPC   H8X20632   4.264   2.331   9.689 -0.6452  0.7160 -3.6631
  180SLPC   H8Y20633   4.437   2.296   9.727 -0.3459 -1.2710 -0.5661
  180SLPC   C3920634   4.424   2.438   9.570  0.2384 -0.5928 -1.2005
  180SLPC   H9X20635   4.526   2.464   9.606  0.2089 -2.1935  0.0838
  180SLPC   H9Y20636   4.369   2.532   9.549  0.1784 -0.4332 -0.3453
  180SLPC  C31020637   4.418   2.339   9.453  0.0045  0.0069 -0.0027
  180SLPC  H10X20638   4.322   2.285   9.469  1.2119 -1.4659  2.6821
  180SLPC  H10Y20639   4.495   2.260   9.470  1.4296  1.5096  0.7166
  180SLPC  C31120640   4.415   2.399   9.311 -0.0605 -0.3360  0.3166
  180SLPC  H11X20641   4.358   2.492   9.290  1.5207  0.1187 -2.3314
  180SLPC  H11Y20642   4.367   2.319   9.250  1.5445 -1.1455  0.0723
  180SLPC  C31220643   4.555   2.422   9.260  0.3654  0.3159  0.1345
  180SLPC  H12X20644   4.608   2.325   9.275 -1.3534 -0.3008  2.7271
  180SLPC  H12Y20645   4.607   2.490   9.330  0.5291  2.0104 -1.6088
  180SLPC  C31320646   4.562   2.458   9.113 -0.6210  0.4144  0.3966
  180SLPC  H13X20647   4.662   2.501   9.090 -0.1533 -0.4099  0.8896
  180SLPC  H13Y20648   4.487   2.536   9.086  1.7170  1.6524 -2.8886
  180SLPC  C31420649   4.529   2.333   9.022  0.8669  0.1346 -0.2746
  180SLPC  H14X20650   4.427   2.294   9.040  0.1716  1.2522 -1.6366
  180SLPC  H14Y20651   4.601   2.257   9.059 -0.5410 -0.7522  0.6738
  180SLPC  C31520652   4.548   2.359   8.874  0.4515  0.5214  0.0096
  180SLPC  H15X20653   4.659   2.364   8.863  0.4596 -1.2959 -0.9134
  180SLPC  H15Y20654   4.496   2.453   8.848 -0.8855 -0.4648 -0.9987
  180SLPC  C31620655   4.490   2.241   8.792 -0.1500  0.4080 -0.4476
  180SLPC  H16X20656   4.395   2.207   8.838 -0.2898 -1.1458 -1.8087
  180SLPC  H16Y20657   4.554   2.150   8.801 -1.7603 -0.6872  0.1202
  180SLPC  C31720658   4.447   2.280   8.651 -0.0564  0.5080 -0.3254
  180SLPC  H17X20659   4.351   2.337   8.657  0.7896  1.8632  0.5730
  180SLPC  H17Y20660   4.420   2.187   8.597  0.8454  1.5143 -2.5835
  180SLPC  C31820661   4.559   2.342   8.567  0.0060  0.2999 -0.1885
  180SLPC  H18X20662   4.605   2.431   8.616 -0.4291  0.6854 -0.4767
  180SLPC  H18Y20663   4.523   2.360   8.463 -1.9864 -1.2937  0.1891
  180SLPC  H18Z20664   4.634   2.261   8.559 -1.9672 -1.6496  0.3629
  181SLPC     N20665   1.438   1.128  11.299 -0.5130  0.2809 -0.0757
  181SLPC   C1320666   1.498   1.262  11.348 -0.7393 -0.1395  0.4228
  181SLPC  H13A20667   1.423   1.329  11.387 -1.5649 -0.2217 -0.9555
  181SLPC  H13B20668   1.558   1.241  11.435  2.6267 -2.2277 -2.2647
  181SLPC  H13C20669   1.558   1.306  11.270 -0.6324 -1.0846 -0.0498
  181SLPC   C1420670   1.355   1.074  11.415  0.3604  0.5902 -0.4347
  181SLPC  H14A20671   1.411   1.044  11.502  0.2256  0.3801 -0.4203
  181SLPC  H14B20672   1.286   1.149  11.451  0.0157 -1.0863  2.5595
  181SLPC  H14C20673   1.293   0.994  11.377 -0.6236  0.7563  0.7789
  181SLPC   C1520674   1.548   1.030  11.266  0.5864 -0.8768 -0.0002
  181SLPC  H15A20675   1.517   0.928  11.246 -0.1212 -0.4156 -1.3607
  181SLPC  H15B20676   1.606   1.071  11.185 -0.6385  0.8977 -0.0043
  181SLPC  H15C20677   1.623   1.011  11.341  2.6651  1.3573 -1.4007
  181SLPC   C1220678   1.357   1.150  11.178 -0.0967 -0.1150 -0.2059
  181SLPC  H12A20679   1.407   1.217  11.109  1.7297 -0.8144  0.4085
  181SLPC  H12B20680   1.272   1.213  11.200 -0.3558 -0.8386  0.8800
  181SLPC   C1120681   1.308   1.024  11.101  0.0623 -0.3842 -0.2514
  181SLPC  H11A20682   1.385   0.989  11.028 -0.2994  2.7499 -2.2417
  181SLPC  H11B20683   1.226   1.063  11.037  1.0877  0.1732 -1.2558
  181SLPC     P20684   1.292   0.772  11.179 -0.2079 -0.0133  0.2288
  181SLPC   O1320685   1.437   0.757  11.173 -0.0283  0.2063  0.0764
  181SLPC   O1420686   1.230   0.698  11.289  0.5775 -0.1160  0.4404
  181SLPC   O1220687   1.245   0.924  11.180 -0.5217 -0.0166  0.1639
  181SLPC   O1120688   1.236   0.728  11.036  0.0874 -0.2572 -0.1376
  181SLPC    C120689   1.098   0.694  11.006  0.9968 -0.3576 -0.0868
  181SLPC    HA20690   1.093   0.586  10.980  1.4522  0.0227 -1.8201
  181SLPC    HB20691   1.031   0.709  11.093  2.6566  2.6819  0.7386
  181SLPC    C220692   1.038   0.783  10.891  0.2798  0.0369 -0.4995
  181SLPC    HS20693   1.023   0.883  10.936  0.0987 -1.3951  2.8577
  181SLPC   O2120694   0.930   0.715  10.832 -0.4018  0.3211  0.1814
  181SLPC   C2120695   0.809   0.730  10.877 -0.2420 -0.2387 -0.1624
  181SLPC   O2220696   0.788   0.788  10.987  0.2118  0.1558  0.0168
  181SLPC   C2220697   0.708   0.662  10.792  0.3694  0.1615 -0.6076
  181SLPC   H2R20698   0.719   0.554  10.815  0.2965  0.0686 -0.9986
  181SLPC   H2S20699   0.603   0.693  10.813  0.9031  2.2954 -1.0625
  181SLPC    C320700   1.143   0.793  10.780 -0.1756  0.2968 -0.0768
  181SLPC    HX20701   1.176   0.687  10.771  1.6539  0.7951  0.6701
  181SLPC    HY20702   1.226   0.850  10.825 -0.6532  1.5925 -0.7989
  181SLPC   O3120703   1.094   0.845  10.657 -0.4921 -0.3415 -0.4603
  181SLPC   C3120704   1.170   0.944  10.607  0.5908  0.1062  0.5420
  181SLPC   O3220705   1.257   1.002  10.666 -0.3948  0.2018 -0.0374
  181SLPC   C3220706   1.134   0.965  10.463 -0.2012  0.0960  0.2964
  181SLPC   H2X20707   1.074   1.058  10.451  1.7997  1.2381 -1.1203
  181SLPC   H2Y20708   1.063   0.884  10.435 -1.3400  1.4616 -0.8517
  181SLPC   C2320709   0.742   0.680  10.636  0.5646 -1.2571 -0.0832
  181SLPC   H3R20710   0.845   0.643  10.621  1.2176 -0.0502  1.2800
  181SLPC   H3S20711   0.734   0.790  10.624 -2.4360 -1.3020  1.0622
  181SLPC   C2420712   0.645   0.620  10.532 -0.1412  0.2430 -0.2080
  181SLPC   H4R20713   0.551   0.679  10.528  0.2640  0.9129 -0.0039
  181SLPC   H4S20714   0.627   0.522  10.581  0.1378  1.1727  1.7789
  181SLPC   C2520715   0.711   0.618  10.392 -0.3099  0.9655 -0.1020
  181SLPC   H5R20716   0.791   0.541  10.393 -2.3083 -1.1675 -1.5073
  181SLPC   H5S20717   0.767   0.713  10.377  1.5433  0.1421  1.2868
  181SLPC   C2620718   0.619   0.589  10.277 -0.0215  0.1265 -0.0785
  181SLPC   H6R20719   0.544   0.670  10.259  0.8824  0.9861 -0.0238
  181SLPC   H6S20720   0.560   0.500  10.307  1.4615 -0.6276  0.6257
  181SLPC   C2720721   0.701   0.565  10.144  0.3182  0.4345 -0.1248
  181SLPC   H7R20722   0.792   0.504  10.163  1.6897  2.1129 -1.1897
  181SLPC   H7S20723   0.742   0.659  10.102  1.1370  0.4203  0.6264
  181SLPC   C2820724   0.613   0.511  10.021  0.0137 -0.0319  0.0257
  181SLPC   H8R20725   0.596   0.402  10.023  0.2902 -0.0707  0.2683
  181SLPC   H8S20726   0.677   0.537   9.934 -2.0690  0.5900 -1.3755
  181SLPC   C2920727   0.477   0.573  10.007  0.4515  0.7304 -0.5890
  181SLPC   H9R20728   0.403   0.561  10.087 -0.6175  0.0887 -1.6732
  181SLPC  C21020729   0.440   0.659   9.912  0.7519  0.7020 -0.6264
  181SLPC  H10R20730   0.342   0.709   9.919 -0.5308 -1.3025 -3.2203
  181SLPC  C21120731   0.527   0.696   9.797 -0.0545  0.1610 -0.3508
  181SLPC  H11R20732   0.553   0.604   9.741 -0.3146 -0.1207 -0.0156
  181SLPC  H11S20733   0.620   0.740   9.840 -0.7662  0.6918  0.6848
  181SLPC  C21220734   0.442   0.799   9.728 -0.5613 -0.3596 -0.6627
  181SLPC  H12R20735   0.413   0.885   9.790  2.7867 -0.1078  0.7035
  181SLPC  C21320736   0.413   0.808   9.602  0.2376 -0.1964 -0.1204
  181SLPC  H13R20737   0.345   0.891   9.578 -1.0660 -0.8770  1.1593
  181SLPC  C21420738   0.447   0.713   9.486 -0.5694  0.0942  0.8455
  181SLPC  H14R20739   0.362   0.646   9.460 -1.3893  1.3881  0.1717
  181SLPC  H14S20740   0.534   0.654   9.521 -0.2675  1.4949  2.5089
  181SLPC  C21520741   0.474   0.801   9.362  0.4285  0.2043 -0.7512
  181SLPC  H15R20742   0.555   0.872   9.390 -1.5057  1.7313  1.0505
  181SLPC  H15S20743   0.389   0.867   9.335  1.4149  1.8145  0.0039
  181SLPC  C21620744   0.531   0.725   9.242  0.3107  0.5105 -0.0350
  181SLPC  H16R20745   0.450   0.661   9.199  0.3439 -0.5408  1.4097
  181SLPC  H16S20746   0.601   0.647   9.279 -0.8613 -0.5146  0.0949
  181SLPC  C21720747   0.595   0.828   9.140 -0.0649  0.3923  0.1260
  181SLPC  H17R20748   0.682   0.881   9.184 -1.0967 -0.2257  3.0123
  181SLPC  H17S20749   0.508   0.895   9.125  0.7278  1.2436 -0.7935
  181SLPC  C21820750   0.627   0.757   9.012 -0.2035  0.6354 -0.3874
  181SLPC  H18R20751   0.676   0.830   8.944  0.7643 -1.2523 -1.7638
  181SLPC  H18S20752   0.535   0.724   8.959 -1.6844  1.0834  1.8639
  181SLPC  H18T20753   0.702   0.676   9.025 -0.6624 -0.2962 -3.1604
  181SLPC   C3320754   1.258   0.975  10.377  0.1630  0.5883 -0.1439
  181SLPC   H3X20755   1.326   0.888  10.391 -0.9570 -0.5006 -1.3811
  181SLPC   H3Y20756   1.328   1.053  10.412 -0.1089  0.6198  0.3393
  181SLPC   C3420757   1.211   0.985  10.229 -0.8277 -0.7388  0.1755
  181SLPC   H4X20758   1.173   1.089  10.222 -2.5290 -1.4284 -1.2142
  181SLPC   H4Y20759   1.125   0.918  10.208 -0.1120 -1.7522  0.4030
  181SLPC   C3520760   1.319   0.969  10.122 -0.3037  0.0184 -0.5379
  181SLPC   H5X20761   1.369   0.869  10.124  1.3281  0.8363  0.2655
  181SLPC   H5Y20762   1.404   1.038  10.142  1.9689 -2.3698 -1.5467
  181SLPC   C3620763   1.269   1.008   9.977  0.0170 -0.0633  0.4078
  181SLPC   H6X20764   1.269   1.118   9.960 -0.0732  0.2217  2.2119
  181SLPC   H6Y20765   1.165   0.969   9.964 -0.7305  1.6314  1.2160
  181SLPC   C3720766   1.348   0.938   9.863 -0.0102  0.7433  0.6609
  181SLPC   H7X20767   1.348   0.828   9.874  3.8630  0.5719 -0.5682
  181SLPC   H7Y20768   1.450   0.982   9.871  0.3027 -0.5443  5.0220
  181SLPC   C3820769   1.292   0.975   9.722  0.5324 -0.1166 -0.3263
  181SLPC   H8X20770   1.303   1.085   9.710 -2.0561 -0.0217 -2.3348
  181SLPC   H8Y20771   1.186   0.942   9.716  0.9239 -1.6482  0.7942
  181SLPC   C3920772   1.372   0.931   9.590  0.5179  0.0745  0.1085
  181SLPC   H9X20773   1.389   0.822   9.595  0.8642  0.1745  1.4472
  181SLPC   H9Y20774   1.472   0.979   9.602  1.0406 -1.2995  1.3367
  181SLPC  C31020775   1.296   0.969   9.460  0.1402  0.4341  0.1173
  181SLPC  H10X20776   1.252   1.068   9.486 -2.3243 -0.4950 -0.4215
  181SLPC  H10Y20777   1.210   0.900   9.447 -1.0684  2.1987 -1.4467
  181SLPC  C31120778   1.391   0.964   9.345 -0.2653  0.4549  0.4488
  181SLPC  H11X20779   1.430   0.861   9.333  4.3370  1.7044  3.2987
  181SLPC  H11Y20780   1.482   1.024   9.369  0.2858 -1.1582  2.5620
  181SLPC  C31220781   1.325   1.007   9.213 -0.0246  0.1389 -0.0651
  181SLPC  H12X20782   1.248   0.929   9.198 -0.6665  0.7290  0.1508
  181SLPC  H12Y20783   1.387   0.993   9.121 -0.3913 -2.4328  0.0309
  181SLPC  C31320784   1.258   1.144   9.223  0.0461  0.5189  0.2715
  181SLPC  H13X20785   1.329   1.226   9.197  1.0249 -0.6432 -0.7759
  181SLPC  H13Y20786   1.225   1.172   9.325 -1.1788 -2.4571  0.7249
  181SLPC  C31420787   1.130   1.148   9.136  0.0855 -0.0103  0.6486
  181SLPC  H14X20788   1.053   1.078   9.176  0.0839  0.7881  2.0864
  181SLPC  H14Y20789   1.160   1.108   9.037 -0.8807  0.0480  0.3226
  181SLPC  C31520790   1.060   1.279   9.110  0.2372  0.6038 -0.2095
  181SLPC  H15X20791   1.121   1.349   9.049  2.0113  0.3597  1.2571
  181SLPC  H15Y20792   1.050   1.329   9.209 -3.1378 -1.9372  0.8574
  181SLPC  C31620793   0.928   1.257   9.028 -0.8579 -0.7145 -0.1143
  181SLPC  H16X20794   0.855   1.197   9.085  0.9955 -1.1882  1.8229
  181SLPC  H16Y20795   0.951   1.190   8.942  1.2134 -2.9458  2.0852
  181SLPC  C31720796   0.862   1.387   8.990  0.7326  0.1330 -0.0485
  181SLPC  H17X20797   0.890   1.461   9.069  1.1234 -2.0246  1.8883
  181SLPC  H17Y20798   0.752   1.373   8.997  0.7815  0.4527  1.7110
  181SLPC  C31820799   0.903   1.446   8.858  0.1799  0.2144 -0.3531
  181SLPC  H18X20800   0.874   1.553   8.855 -2.2201 -0.4360 -2.0647
  181SLPC  H18Y20801   0.840   1.400   8.779 -0.8854 -4.3748  2.9923
  181SLPC  H18Z20802   1.009   1.428   8.830 -0.5422 -0.6769 -2.6345
  182SLPC     N20803   5.854   2.326  11.053  0.2505 -0.3834  0.7718
  182SLPC   C1320804   5.984   2.376  10.992  0.3163 -0.2378 -0.4436
  182SLPC  H13A20805   6.050   2.406  11.072  1.1370 -1.7886 -0.5282
  182SLPC  H13B20806   6.030   2.294  10.940  1.5916  0.5051 -0.5067
  182SLPC  H13C20807   5.971   2.458  10.922 -0.4956  1.4091  1.5850
  182SLPC   C1420808   5.803   2.425  11.160 -0.0118  0.4215  0.1441
  182SLPC  H14A20809   5.876   2.440  11.238  1.0247 -0.4875 -0.6340
  182SLPC  H14B20810   5.786   2.522  11.114  0.5001 -1.6375 -4.7025
  182SLPC  H14C20811   5.715   2.394  11.213 -0.5954 -2.3374 -2.3245
  182SLPC   C1520812   5.887   2.201  11.128 -0.4960  0.3528  0.5725
  182SLPC  H15A20813   5.990   2.198  11.160 -0.6072  1.8996  1.1031
  182SLPC  H15B20814   5.826   2.182  11.215 -0.6414  1.0923  0.6307
  182SLPC  H15C20815   5.876   2.114  11.065 -1.4423  0.3309  0.7633
  182SLPC   C1220816   5.751   2.306  10.944  0.4612 -0.5135  0.3778
  182SLPC  H12A20817   5.716   2.404  10.913 -2.6915 -1.7115 -0.0082
  182SLPC  H12B20818   5.661   2.272  10.993  0.2674  0.4400  0.7114
  182SLPC   C1120819   5.783   2.215  10.819  0.4813  0.0276 -1.3924
  182SLPC  H11A20820   5.884   2.247  10.785  0.7710 -0.2345 -0.7811
  182SLPC  H11B20821   5.715   2.243  10.736 -1.9999 -0.2433  0.5015
  182SLPC     P20822   5.634   2.011  10.878 -0.1974 -0.2494 -0.2290
  182SLPC   O1320823   5.650   1.872  10.921 -0.2581  0.1082 -0.6085
  182SLPC   O1420824   5.556   2.088  10.976  0.0073  0.2209  0.1129
  182SLPC   O1220825   5.777   2.075  10.854 -0.1554 -0.2585  0.3477
  182SLPC   O1120826   5.554   2.011  10.744  0.5142  0.5769 -0.2972
  182SLPC    C120827   5.565   1.901  10.655  0.6184 -0.6025  0.2621
  182SLPC    HA20828   5.656   1.918  10.593 -0.5322  2.6132 -0.6563
  182SLPC    HB20829   5.551   1.802  10.702  2.5637 -0.9987  0.0540
  182SLPC    C220830   5.441   1.918  10.563 -0.0172  0.6525 -0.0297
  182SLPC    HS20831   5.352   1.929  10.629 -0.5662 -1.8801 -0.2821
  182SLPC   O2120832   5.429   1.813  10.477  0.4159  0.1462 -0.1315
  182SLPC   C2120833   5.301   1.789  10.441 -0.4404 -0.5015 -0.0321
  182SLPC   O2220834   5.201   1.831  10.494  0.2072 -0.1452 -0.2770
  182SLPC   C2220835   5.302   1.687  10.319  0.4325  0.4186  0.8162
  182SLPC   H2R20836   5.369   1.599  10.333  1.0860  0.4288 -2.0235
  182SLPC   H2S20837   5.204   1.638  10.330  0.0110  0.9936 -0.3657
  182SLPC    C320838   5.455   2.051  10.481 -0.2291 -0.0883  0.0763
  182SLPC    HX20839   5.544   2.049  10.414  0.0760 -1.0430  0.4944
  182SLPC    HY20840   5.471   2.120  10.566 -1.0841 -1.1018  1.0758
  182SLPC   O3120841   5.330   2.084  10.412 -0.2038 -0.0775  0.0933
  182SLPC   C3120842   5.354   2.137  10.284  0.6489  0.1688  0.2846
  182SLPC   O3220843   5.464   2.163  10.239  0.1326  0.1173 -0.1047
  182SLPC   C3220844   5.224   2.144  10.209  0.1623  0.7159  0.4306
  182SLPC   H2X20845   5.161   2.221  10.259  1.4323  2.6926 -0.9563
  182SLPC   H2Y20846   5.181   2.042  10.218 -0.7317  1.0060 -0.5386
  182SLPC   C2320847   5.341   1.761  10.188  0.1899  0.1900  0.1013
  182SLPC   H3R20848   5.451   1.777  10.189  0.0081  2.2653 -3.4346
  182SLPC   H3S20849   5.284   1.857  10.178 -0.0859 -0.0205 -0.3810
  182SLPC   C2420850   5.314   1.671  10.066  0.7507 -0.5381  0.1652
  182SLPC   H4R20851   5.214   1.630  10.041 -0.5103  1.6999  1.2897
  182SLPC   H4S20852   5.376   1.580  10.073  0.9144 -0.9343 -4.7203
  182SLPC   C2520853   5.380   1.730   9.943  0.1802  0.0911  0.0206
  182SLPC   H5R20854   5.478   1.774   9.968  1.1389 -0.5282 -2.4628
  182SLPC   H5S20855   5.313   1.808   9.900  0.0481  0.6286  1.1940
  182SLPC   C2620856   5.411   1.628   9.839  0.3153  0.2726 -0.4617
  182SLPC   H6R20857   5.331   1.556   9.810  1.9571 -2.5983  1.9239
  182SLPC   H6S20858   5.489   1.555   9.870 -0.8780 -0.3637  1.1158
  182SLPC   C2720859   5.475   1.714   9.722 -0.1263  0.1393  0.2166
  182SLPC   H7R20860   5.545   1.787   9.768  0.3566  1.3236 -2.3155
  182SLPC   H7S20861   5.392   1.766   9.669 -0.6430 -2.2846 -1.4172
  182SLPC   C2820862   5.564   1.631   9.622 -0.1255 -0.2958  0.9101
  182SLPC   H8R20863   5.638   1.584   9.691  0.3667  0.7513  1.1134
  182SLPC   H8S20864   5.623   1.701   9.559  1.0174 -1.9738  0.0744
  182SLPC   C2920865   5.490   1.531   9.541  0.1576  0.2129 -0.1345
  182SLPC   H9R20866   5.406   1.474   9.585 -0.2196  0.5578 -0.4093
  182SLPC  C21020867   5.524   1.495   9.416 -0.2884  1.1078 -0.3789
  182SLPC  H10R20868   5.462   1.414   9.376  0.7495 -0.0356  0.2978
  182SLPC  C21120869   5.647   1.541   9.345  0.0803  0.5890  0.3673
  182SLPC  H11R20870   5.728   1.547   9.421 -0.5745 -0.0670  1.1362
  182SLPC  H11S20871   5.628   1.645   9.313  0.8144  0.5299 -0.2899
  182SLPC  C21220872   5.687   1.441   9.236  0.5007 -0.4532 -0.1736
  182SLPC  H12R20873   5.761   1.363   9.259 -0.9423 -2.0087 -0.6957
  182SLPC  C21320874   5.638   1.442   9.109 -0.3642  0.1006  0.4393
  182SLPC  H13R20875   5.677   1.367   9.039 -0.3579 -2.5892  3.1971
  182SLPC  C21420876   5.539   1.534   9.048  0.1255  0.5075  0.3806
  182SLPC  H14R20877   5.603   1.595   8.981  2.3967 -1.6499  0.5305
  182SLPC  H14S20878   5.489   1.603   9.120 -1.9498 -0.3205 -0.2339
  182SLPC  C21520879   5.435   1.454   8.973 -0.4763 -0.1202 -0.1301
  182SLPC  H15R20880   5.344   1.510   8.940 -0.8627  0.0089  1.1482
  182SLPC  H15S20881   5.391   1.369   9.029 -0.9467  0.3003  0.1382
  182SLPC  C21620882   5.490   1.389   8.839  0.1646  0.1812  0.9214
  182SLPC  H16R20883   5.425   1.301   8.816 -0.2974  1.1694 -1.8362
  182SLPC  H16S20884   5.595   1.357   8.856  0.0410 -0.7084  0.0639
  182SLPC  C21720885   5.479   1.482   8.718  0.1218 -0.1421 -1.0137
  182SLPC  H17R20886   5.516   1.582   8.750 -1.8255  1.0923 -2.5708
  182SLPC  H17S20887   5.370   1.495   8.703 -0.2256 -1.4481  0.2673
  182SLPC  C21820888   5.547   1.441   8.593  0.1564  0.3494  0.7100
  182SLPC  H18R20889   5.513   1.504   8.507  0.3580 -1.4533 -0.7241
  182SLPC  H18S20890   5.543   1.333   8.570  1.5070  0.1384  1.4400
  182SLPC  H18T20891   5.657   1.444   8.604  0.1781 -0.0605  0.6054
  182SLPC   C3320892   5.259   2.176  10.059 -0.1203  0.0166 -0.2529
  182SLPC   H3X20893   5.341   2.108  10.026 -0.5117 -1.0652  0.9503
  182SLPC   H3Y20894   5.286   2.283  10.047  2.6160 -0.6497 -0.3885
  182SLPC   C3420895   5.137   2.156   9.972 -0.3420  0.0499  0.6594
  182SLPC   H4X20896   5.065   2.235  10.003 -1.4269 -0.7232  0.1435
  182SLPC   H4Y20897   5.090   2.056   9.984  1.5166 -1.3625 -2.9081
  182SLPC   C3520898   5.155   2.180   9.824  0.0502 -0.7792  0.6594
  182SLPC   H5X20899   5.194   2.284   9.820  0.5960 -1.0205 -0.8029
  182SLPC   H5Y20900   5.058   2.178   9.769 -0.4696  0.1898  1.5323
  182SLPC   C3620901   5.247   2.084   9.755 -0.4873 -0.0890 -0.2020
  182SLPC   H6X20902   5.190   1.990   9.767 -1.7978  0.7646  0.3109
  182SLPC   H6Y20903   5.348   2.073   9.800 -0.0827  1.9455 -0.5395
  182SLPC   C3720904   5.252   2.111   9.600  0.1166 -0.5916 -0.1897
  182SLPC   H7X20905   5.285   2.215   9.583  0.4094 -0.7672 -0.6985
  182SLPC   H7Y20906   5.145   2.099   9.571  0.5885 -1.2035 -1.7570
  182SLPC   C3820907   5.339   2.009   9.533 -0.1703  0.0371 -0.7755
  182SLPC   H8X20908   5.295   1.911   9.562  0.3325 -1.0417 -3.5217
  182SLPC   H8Y20909   5.442   2.011   9.575  0.6826 -0.1384 -2.8078
  182SLPC   C3920910   5.349   2.020   9.383 -0.2473  0.3284 -0.1539
  182SLPC   H9X20911   5.377   2.123   9.353 -1.2448  0.3328 -1.0810
  182SLPC   H9Y20912   5.244   2.012   9.348 -1.2706  1.9398  2.3246
  182SLPC  C31020913   5.448   1.914   9.333  0.2608 -0.8495 -0.3554
  182SLPC  H10X20914   5.398   1.817   9.355  1.4325 -1.4459 -0.2883
  182SLPC  H10Y20915   5.547   1.915   9.382  0.6849  1.0979 -1.2413
  182SLPC  C31120916   5.475   1.910   9.187 -0.1747 -0.3870 -0.3235
  182SLPC  H11X20917   5.545   1.826   9.166  0.0475 -1.0553  2.7750
  182SLPC  H11Y20918   5.523   2.008   9.166  1.3780 -0.3531  2.9131
  182SLPC  C31220919   5.359   1.885   9.088 -0.0284 -0.5750  0.1813
  182SLPC  H12X20920   5.286   1.968   9.094 -0.6257 -1.2194  2.2398
  182SLPC  H12Y20921   5.305   1.793   9.119 -0.4946 -0.0910  0.8014
  182SLPC  C31320922   5.419   1.884   8.943  1.0251  0.2665  0.0111
  182SLPC  H13X20923   5.483   1.794   8.932  2.2562  1.3287 -1.7264
  182SLPC  H13Y20924   5.488   1.970   8.939 -0.0475  1.1268 -0.2866
  182SLPC  C31420925   5.319   1.906   8.835  0.1894 -0.2990  0.3418
  182SLPC  H14X20926   5.267   2.003   8.850 -1.0285 -1.0868  1.4035
  182SLPC  H14Y20927   5.234   1.835   8.824 -1.9470  2.1944  0.0273
  182SLPC  C31520928   5.373   1.905   8.691 -0.1239  0.5645 -0.2575
  182SLPC  H15X20929   5.385   1.796   8.672 -2.2436  0.3468 -0.4060
  182SLPC  H15Y20930   5.472   1.957   8.694 -0.2238  0.7211  0.3730
  182SLPC  C31620931   5.278   1.960   8.587  0.1711  0.1030  0.3224
  182SLPC  H16X20932   5.327   1.983   8.490 -0.6883  1.0890  0.1098
  182SLPC  H16Y20933   5.243   2.060   8.619  1.5334  0.3579  1.0609
  182SLPC  C31720934   5.163   1.863   8.563 -0.0492 -0.1470  0.7959
  182SLPC  H17X20935   5.106   1.856   8.658  0.6846  0.3467  1.2818
  182SLPC  H17Y20936   5.209   1.765   8.539  0.8748  0.4227  0.1716
  182SLPC  C31820937   5.080   1.905   8.431  0.6328 -0.7673 -0.3389
  182SLPC  H18X20938   5.022   1.998   8.452  2.7854  0.3275  1.0115
  182SLPC  H18Y20939   5.008   1.823   8.413  0.8219 -1.3401  1.3665
  182SLPC  H18Z20940   5.138   1.916   8.337 -0.7399  0.7838 -1.0386
  183SLPC     N20941   6.820   2.754  11.151 -0.5849  0.1087 -0.4397
  183SLPC   C1320942   6.968   2.802  11.149 -0.1798 -0.2062  0.8790
  183SLPC  H13A20943   7.039   2.720  11.154 -0.0981 -0.4846 -3.3900
  183SLPC  H13B20944   6.997   2.857  11.061  0.3871 -2.0200 -0.0980
  183SLPC  H13C20945   6.994   2.857  11.238  2.6526  0.5763 -0.3709
  183SLPC   C1420946   6.730   2.877  11.175 -0.3017  0.6276  0.1204
  183SLPC  H14A20947   6.782   2.940  11.245 -0.0123  0.2819  0.2165
  183SLPC  H14B20948   6.721   2.936  11.085  1.4281 -0.1777 -0.6024
  183SLPC  H14C20949   6.637   2.862  11.228 -1.4033  0.8669 -1.7021
  183SLPC   C1520950   6.791   2.662  11.272  0.0779  0.1451 -0.0573
  183SLPC  H15A20951   6.832   2.564  11.252 -0.7837  0.2839 -2.7098
  183SLPC  H15B20952   6.823   2.696  11.369 -0.2194 -0.7875  0.3730
  183SLPC  H15C20953   6.685   2.639  11.277 -0.2773  0.5653 -3.9601
  183SLPC   C1220954   6.779   2.693  11.022 -0.0461 -0.6114  0.4349
  183SLPC  H12A20955   6.681   2.648  11.025 -0.7299  0.5384 -2.7702
  183SLPC  H12B20956   6.848   2.612  11.006  0.3112 -0.9065  3.1430
  183SLPC   C1120957   6.771   2.779  10.898 -0.7285 -0.1258 -0.1304
  183SLPC  H11A20958   6.764   2.704  10.817 -0.1031 -0.2193 -0.0961
  183SLPC  H11B20959   6.866   2.835  10.883 -0.1649 -1.5394 -1.9444
  183SLPC     P20960   6.617   2.945  10.766 -0.9626 -0.2483 -0.2754
  183SLPC   O1320961   6.482   2.999  10.796 -0.3456 -0.0143  0.1692
  183SLPC   O1420962   6.726   3.044  10.749  0.0806 -0.6124 -0.2824
  183SLPC   O1220963   6.652   2.859  10.894  0.5169 -0.3308 -0.1969
  183SLPC   O1120964   6.625   2.840  10.649 -0.0216  0.0525  0.3402
  183SLPC    C120965   6.530   2.833  10.540 -0.1612 -0.6200  0.7806
  183SLPC    HA20966   6.487   2.731  10.547 -0.5378 -0.6051 -1.0160
  183SLPC    HB20967   6.443   2.902  10.543  0.3046 -0.0245  0.8161
  183SLPC    C220968   6.600   2.858  10.399  0.6467 -0.3035  0.0595
  183SLPC    HS20969   6.534   2.811  10.323 -0.3645 -2.5269  2.2389
  183SLPC   O2120970   6.735   2.810  10.398  0.3342  0.0266  0.2420
  183SLPC   C2120971   6.735   2.677  10.399 -0.4202  1.1762 -0.0802
  183SLPC   O2220972   6.636   2.604  10.411  0.1196 -0.5117  0.3950
  183SLPC   C2220973   6.877   2.618  10.421  0.0916 -0.2835  0.5816
  183SLPC   H2R20974   6.956   2.688  10.387 -1.0754  0.8329  0.1359
  183SLPC   H2S20975   6.889   2.613  10.531  0.1959 -0.6849  0.5545
  183SLPC    C320976   6.608   3.014  10.374  0.1625 -0.0119  0.2406
  183SLPC    HX20977   6.663   3.050  10.463  0.2988 -2.5533  1.2255
  183SLPC    HY20978   6.513   3.072  10.374 -0.9247 -1.7157  2.2443
  183SLPC   O3120979   6.680   3.035  10.254 -0.0664 -0.2846 -0.6043
  183SLPC   C3120980   6.809   3.084  10.266  0.2235  0.1998  0.3915
  183SLPC   O3220981   6.849   3.140  10.367  0.1053 -0.2821 -0.2770
  183SLPC   C3220982   6.877   3.079  10.122  0.0063  0.4114  0.0744
  183SLPC   H2X20983   6.933   3.172  10.101  3.0187 -1.4293 -0.2221
  183SLPC   H2Y20984   6.799   3.073  10.042  0.1302 -0.7974  0.0389
  183SLPC   C2320985   6.891   2.474  10.358 -1.0465  0.2676 -0.4642
  183SLPC   H3R20986   6.792   2.425  10.347 -1.3640  0.8522 -0.2132
  183SLPC   H3S20987   6.959   2.414  10.422  0.5705  0.5708 -1.8383
  183SLPC   C2420988   6.964   2.476  10.222 -0.3108 -0.0528 -0.2071
  183SLPC   H4R20989   7.070   2.507  10.234 -1.3085  3.1584  0.5208
  183SLPC   H4S20990   6.919   2.548  10.151  0.3278  1.6039  1.0520
  183SLPC   C2520991   6.958   2.336  10.160 -0.5697 -0.0435  0.1984
  183SLPC   H5R20992   6.852   2.327  10.129 -0.7491  0.3314  0.6773
  183SLPC   H5S20993   6.987   2.254  10.229 -1.7965 -0.1592  0.6018
  183SLPC   C2620994   7.023   2.320  10.016  0.7148 -0.5812 -0.9098
  183SLPC   H6R20995   7.024   2.212   9.988 -2.2333 -0.2191 -2.5716
  183SLPC   H6S20996   7.128   2.349  10.041  0.0133  1.0082  0.2164
  183SLPC   C2720997   6.970   2.414   9.910 -0.3882 -0.5929  0.8807
  183SLPC   H7R20998   7.021   2.512   9.905  0.5643 -1.1380 -0.5961
  183SLPC   H7S20999   6.864   2.444   9.922  0.0106  1.2547  0.0027
  183SLPC   C2821000   6.976   2.348   9.767 -1.1478 -0.1607 -0.1120
  183SLPC   H8R21001   6.963   2.440   9.706 -1.0192 -0.8119 -1.1334
  183SLPC   H8S21002   6.893   2.275   9.759  1.1762 -2.7217 -1.3952
  183SLPC   C2921003   7.097   2.269   9.724 -0.4930  0.4215 -0.3180
  183SLPC   H9R21004   7.192   2.315   9.753  0.0403 -0.2221 -1.0175
  183SLPC  C21021005   7.102   2.162   9.642 -0.9613 -0.3239 -0.7397
  183SLPC  H10R21006   7.200   2.115   9.625 -0.3152 -0.5309  3.0887
  183SLPC  C21121007   6.993   2.076   9.576 -0.4088 -0.4812  0.5472
  183SLPC  H11R21008   6.900   2.137   9.575 -0.6527 -0.8269  2.1635
  183SLPC  H11S21009   6.980   1.981   9.630  1.7259 -0.8410  0.4802
  183SLPC  C21221010   7.028   2.067   9.424  0.5047  0.5187  0.6741
  183SLPC  H12R21011   7.040   2.167   9.380 -2.8727  1.9908  2.8822
  183SLPC  C21321012   7.030   1.954   9.354  0.4144  0.2871  0.1669
  183SLPC  H13R21013   7.062   1.973   9.250  1.0497  2.3766  0.7279
  183SLPC  C21421014   7.004   1.810   9.405 -0.4368 -0.6466 -0.4873
  183SLPC  H14R21015   6.925   1.814   9.482  0.5991  1.4346  0.5074
  183SLPC  H14S21016   7.094   1.775   9.461  0.0521 -1.2105 -1.6033
  183SLPC  C21521017   6.968   1.696   9.307  0.2838  1.0436 -0.4502
  183SLPC  H15R21018   6.910   1.724   9.217 -2.0011 -2.7306 -0.2577
  183SLPC  H15S21019   6.912   1.619   9.363  0.9105  0.0542 -1.1585
  183SLPC  C21621020   7.097   1.619   9.268  0.8940 -0.6324 -0.0317
  183SLPC  H16R21021   7.165   1.623   9.355 -0.0885 -0.6145  0.7397
  183SLPC  H16S21022   7.149   1.673   9.185 -1.7919  0.4645 -1.0632
  183SLPC  C21721023   7.092   1.477   9.210  0.3637  0.2471 -0.3412
  183SLPC  H17R21024   7.191   1.445   9.170  0.2688  0.0629 -0.4296
  183SLPC  H17S21025   7.030   1.462   9.119 -0.2698 -1.0706  0.2920
  183SLPC  C21821026   7.063   1.375   9.319  0.2144 -0.0368  0.2995
  183SLPC  H18R21027   7.125   1.382   9.411  1.0008  0.5761 -0.2780
  183SLPC  H18S21028   7.071   1.270   9.282 -1.0935 -1.2803  3.3214
  183SLPC  H18T21029   6.959   1.386   9.356 -0.7936 -0.8433 -2.1962
  183SLPC   C3321030   6.973   2.962  10.098  0.3334 -0.9012 -0.1237
  183SLPC   H3X21031   6.936   2.859  10.118 -0.0337 -0.4549  1.5544
  183SLPC   H3Y21032   7.066   2.975  10.157  0.7828 -3.0936 -0.3254
  183SLPC   C3421033   7.022   2.953   9.950  1.1232 -0.1016  0.1651
  183SLPC   H4X21034   7.128   2.919   9.954  2.2460  3.2991  1.1207
  183SLPC   H4Y21035   7.033   3.056   9.912  0.3403  0.6031  1.8154
  183SLPC   C3521036   6.937   2.858   9.865 -0.0032 -0.5876  0.5919
  183SLPC   H5X21037   6.832   2.893   9.869  0.2482  0.3907 -0.9657
  183SLPC   H5Y21038   6.961   2.759   9.909 -0.6658 -1.5965 -1.2678
  183SLPC   C3621039   6.992   2.868   9.724  0.3930 -0.0688 -0.3661
  183SLPC   H6X21040   7.016   2.973   9.696  0.0127  0.2239  0.3890
  183SLPC   H6Y21041   6.918   2.811   9.665  0.3212 -1.7097  1.2741
  183SLPC   C3721042   7.118   2.797   9.701 -0.3137 -0.2393  0.0444
  183SLPC   H7X21043   7.124   2.695   9.744  3.2391 -0.8120 -1.6639
  183SLPC   H7Y21044   7.202   2.845   9.756 -0.3530  1.7415 -1.5716
  183SLPC   C3821045   7.152   2.815   9.550  0.2020  0.0181 -0.0082
  183SLPC   H8X21046   7.257   2.788   9.525 -0.1007 -1.8520  0.6384
  183SLPC   H8Y21047   7.120   2.916   9.515 -3.1058 -0.8981  0.2085
  183SLPC   C3921048   7.053   2.723   9.474  0.3158 -0.4182  0.1474
  183SLPC   H9X21049   6.947   2.725   9.508  0.2021  1.1794 -0.2973
  183SLPC   H9Y21050   7.090   2.619   9.492  0.7240 -0.4925 -1.0927
  183SLPC  C31021051   7.042   2.743   9.320 -0.1268  0.4464  0.4507
  183SLPC  H10X21052   6.968   2.818   9.283 -0.9137 -1.3636 -1.7324
  183SLPC  H10Y21053   6.994   2.648   9.288 -1.4910  1.1708  0.3128
  183SLPC  C31121054   7.177   2.772   9.251 -0.3013  0.4311 -0.2081
  183SLPC  H11X21055   7.248   2.696   9.289  0.4270  0.9237 -0.5918
  183SLPC  H11Y21056   7.215   2.870   9.287 -1.6833  0.4129  1.3855
  183SLPC  C31221057   7.151   2.783   9.103 -0.0553 -0.2611 -1.2536
  183SLPC  H12X21058   7.116   2.884   9.070  1.0235 -0.0714 -1.8317
  183SLPC  H12Y21059   7.078   2.702   9.082 -1.6891  0.6362  0.7617
  183SLPC  C31321060   7.281   2.766   9.027  0.3141  0.2558  0.3864
  183SLPC  H13X21061   7.309   2.659   9.027  0.4218  0.2781  1.6633
  183SLPC  H13Y21062   7.364   2.825   9.071  0.3533  0.5006 -0.0185
  183SLPC  C31421063   7.260   2.810   8.882 -0.1340 -0.0708  0.1077
  183SLPC  H14X21064   7.188   2.893   8.867  0.1277  0.8712  3.5924
  183SLPC  H14Y21065   7.204   2.729   8.829  0.2978 -0.3292  0.0447
  183SLPC  C31521066   7.394   2.831   8.823 -0.1678 -0.1915 -0.4049
  183SLPC  H15X21067   7.459   2.744   8.845  0.9895  0.6529 -0.4373
  183SLPC  H15Y21068   7.437   2.920   8.873  1.0777  0.6754 -2.9494
  183SLPC  C31621069   7.384   2.852   8.679  1.0926  0.3897  0.1732
  183SLPC  H16X21070   7.300   2.919   8.653 -0.2051 -1.3695 -0.2799
  183SLPC  H16Y21071   7.363   2.752   8.634  0.4213 -0.0951  1.5240
  183SLPC  C31721072   7.505   2.904   8.600  0.2276  0.3419  1.3479
  183SLPC  H17X21073   7.592   2.837   8.610  0.3365  0.3383  0.4441
  183SLPC  H17Y21074   7.542   3.005   8.629 -1.9238  1.7070 -0.4716
  183SLPC  C31821075   7.474   2.915   8.451 -1.0209  0.2101  0.3395
  183SLPC  H18X21076   7.396   2.989   8.424 -1.3280 -0.6789 -1.2510
  183SLPC  H18Y21077   7.441   2.817   8.412 -3.3695  0.4353  1.6934
  183SLPC  H18Z21078   7.564   2.951   8.396 -1.2380  2.9326  1.6599
  184SLPC     N21079   2.841   6.508  10.818  0.6514 -0.6737 -0.1955
  184SLPC   C1321080   2.826   6.369  10.777  0.4034 -0.0667  0.5056
  184SLPC  H13A21081   2.886   6.358  10.688 -0.9175 -2.1533 -0.1738
  184SLPC  H13B21082   2.867   6.293  10.842 -1.4505 -1.5195  0.0529
  184SLPC  H13C21083   2.720   6.355  10.758  0.2692  1.7523 -0.1325
  184SLPC   C1421084   2.976   6.541  10.875 -0.4978  0.8158  0.4593
  184SLPC  H14A21085   2.990   6.608  10.958  0.7446  3.4979 -1.8204
  184SLPC  H14B21086   3.028   6.447  10.891 -2.0053 -0.5560 -2.2358
  184SLPC  H14C21087   3.032   6.582  10.792 -2.2173  0.9637 -0.6582
  184SLPC   C1521088   2.748   6.532  10.930  0.2203  0.2243 -0.1793
  184SLPC  H15A21089   2.645   6.521  10.902 -0.5526  3.9453  0.9246
  184SLPC  H15B21090   2.778   6.474  11.016  0.2100  0.5485  0.0458
  184SLPC  H15C21091   2.748   6.633  10.968  0.2020  0.7248 -1.4837
  184SLPC   C1221092   2.801   6.615  10.712 -0.0634  0.2192 -0.3708
  184SLPC  H12A21093   2.817   6.712  10.756 -0.2617  0.3515 -0.5948
  184SLPC  H12B21094   2.695   6.607  10.693 -0.3812  0.1134  1.3502
  184SLPC   C1121095   2.881   6.611  10.577  0.1075  0.2187 -0.3258
  184SLPC  H11A21096   2.823   6.680  10.513 -0.1299 -0.2127 -0.5743
  184SLPC  H11B21097   2.880   6.514  10.523 -0.6610  1.0506 -1.8372
  184SLPC     P21098   3.062   6.790  10.628  0.3357 -0.0896  0.1442
  184SLPC   O1321099   2.943   6.868  10.642  0.8562 -0.2421  0.2304
  184SLPC   O1421100   3.153   6.792  10.745  0.0945  0.0159 -0.0573
  184SLPC   O1221101   3.018   6.648  10.597 -0.0057 -0.1448  0.0113
  184SLPC   O1121102   3.140   6.830  10.502 -0.1599  0.0035 -0.7763
  184SLPC    C121103   3.207   6.731  10.421 -0.5548  0.1744 -0.0671
  184SLPC    HA21104   3.313   6.763  10.409 -0.6469  0.5869  0.1980
  184SLPC    HB21105   3.212   6.630  10.468 -1.0732  0.6775  1.0883
  184SLPC    C221106   3.144   6.738  10.274  0.3624 -0.4422 -0.4296
  184SLPC    HS21107   3.040   6.699  10.281  0.3018 -0.0967  0.7421
  184SLPC   O2121108   3.232   6.676  10.177  0.3553  0.1090 -0.1785
  184SLPC   C2121109   3.257   6.547  10.196 -0.0365  0.2611 -0.4714
  184SLPC   O2221110   3.203   6.476  10.277 -0.2751  0.0401 -0.2149
  184SLPC   C2221111   3.360   6.511  10.090  0.0489 -0.2539 -0.0864
  184SLPC   H2R21112   3.459   6.552  10.121  0.2164 -0.4588 -0.3430
  184SLPC   H2S21113   3.374   6.401  10.095  0.4727 -0.2109 -0.2657
  184SLPC    C321114   3.122   6.888  10.242  0.1354  0.4075 -0.5380
  184SLPC    HX21115   3.199   6.954  10.287 -1.3791  1.4741  0.5431
  184SLPC    HY21116   3.032   6.925  10.297  0.5905  2.6863 -1.2485
  184SLPC   O3121117   3.117   6.915  10.103  0.4206 -0.1025 -0.0809
  184SLPC   C3121118   3.013   6.878  10.028  1.1522 -0.4142  0.1817
  184SLPC   O3221119   2.928   6.796  10.060  0.7964 -0.4773  0.0960
  184SLPC   C3221120   3.003   6.959   9.902 -0.0911 -0.1007  0.6007
  184SLPC   H2X21121   3.055   7.056   9.922  1.5828 -1.0335  0.8477
  184SLPC   H2Y21122   2.894   6.962   9.881  0.1541 -0.5005 -0.8255
  184SLPC   C2321123   3.316   6.551   9.950  0.6360 -0.2559  0.0390
  184SLPC   H3R21124   3.397   6.549   9.874  0.3496 -0.0201 -0.2763
  184SLPC   H3S21125   3.283   6.657   9.954  0.4015 -0.3296  0.0754
  184SLPC   C2421126   3.214   6.445   9.894  0.2323  0.2852  0.2900
  184SLPC   H4R21127   3.122   6.448   9.956  0.1518  0.1941  0.1737
  184SLPC   H4S21128   3.258   6.343   9.891 -1.3282 -0.4044  0.3618
  184SLPC   C2521129   3.180   6.486   9.751  0.4178  0.0232 -0.3518
  184SLPC   H5R21130   3.267   6.491   9.682  1.6255  2.4894  1.2618
  184SLPC   H5S21131   3.133   6.586   9.743  1.7910  0.8454  1.4274
  184SLPC   C2621132   3.081   6.378   9.694  0.1221  0.5269  0.7886
  184SLPC   H6R21133   2.996   6.375   9.766  0.1460 -0.7444  0.7730
  184SLPC   H6S21134   3.137   6.282   9.695 -0.0290  0.4080  3.9914
  184SLPC   C2721135   3.040   6.398   9.548 -0.3204 -0.0333 -0.5060
  184SLPC   H7R21136   3.125   6.429   9.484 -0.6917  2.7639  0.2662
  184SLPC   H7S21137   2.967   6.482   9.552 -0.9117 -0.4658 -1.9257
  184SLPC   C2821138   2.962   6.286   9.492 -0.2672  0.3198  0.5682
  184SLPC   H8R21139   2.898   6.338   9.417  1.2093  1.4247  0.0443
  184SLPC   H8S21140   2.895   6.244   9.571  0.4077  1.7361  1.9229
  184SLPC   C2921141   3.045   6.184   9.416  0.2724  0.4629  0.8853
  184SLPC   H9R21142   3.147   6.166   9.452  0.9339  2.0224 -0.1760
  184SLPC  C21021143   3.004   6.113   9.307  0.4557 -0.1197  0.2745
  184SLPC  H10R21144   3.070   6.046   9.250 -2.5901 -1.6093 -1.6536
  184SLPC  C21121145   2.869   6.123   9.252 -0.8401 -0.1143  0.0698
  184SLPC  H11R21146   2.850   6.220   9.200  0.4309  0.7902  1.2611
  184SLPC  H11S21147   2.796   6.108   9.334 -2.1112  0.3416 -0.9677
  184SLPC  C21221148   2.841   6.016   9.149 -0.4868 -0.1117 -0.0338
  184SLPC  H12R21149   2.819   5.914   9.185 -1.5712 -1.4017 -4.1400
  184SLPC  C21321150   2.831   6.017   9.019 -0.4520  0.0413  0.2486
  184SLPC  H13R21151   2.814   5.923   8.964 -1.1630 -0.5590  1.4913
  184SLPC  C21421152   2.857   6.140   8.937 -0.0267 -1.3320 -0.0543
  184SLPC  H14R21153   2.907   6.112   8.842 -0.7767 -0.0958 -0.8264
  184SLPC  H14S21154   2.916   6.220   8.988  1.4971 -0.1214 -3.5625
  184SLPC  C21521155   2.721   6.210   8.900 -0.0080 -0.7157 -0.2721
  184SLPC  H15R21156   2.760   6.303   8.854 -0.3427 -0.3457  0.1894
  184SLPC  H15S21157   2.671   6.231   8.997  0.8413  0.3112 -0.0437
  184SLPC  C21621158   2.631   6.145   8.796  0.3915 -0.9712 -0.4650
  184SLPC  H16R21159   2.570   6.062   8.837 -2.0608  1.3374  0.7312
  184SLPC  H16S21160   2.698   6.112   8.713  0.1163 -2.2036 -0.2027
  184SLPC  C21721161   2.523   6.238   8.737 -0.0081 -0.1329 -0.4458
  184SLPC  H17R21162   2.552   6.340   8.704  2.1232 -1.2332 -2.0903
  184SLPC  H17S21163   2.454   6.258   8.822  0.4422 -0.4189 -0.0052
  184SLPC  C21821164   2.431   6.169   8.627 -0.2397 -0.0261 -0.0403
  184SLPC  H18R21165   2.425   6.231   8.535  0.2244  0.5519  0.3136
  184SLPC  H18S21166   2.326   6.156   8.661  0.7913 -0.2777  3.2013
  184SLPC  H18T21167   2.469   6.066   8.609  0.3706 -0.1457  1.8066
  184SLPC   C3321168   3.075   6.869   9.801  0.0136 -0.4185  0.4609
  184SLPC   H3X21169   3.022   6.771   9.796  0.0908 -0.3919 -1.0810
  184SLPC   H3Y21170   3.182   6.863   9.829  0.0108  0.7489  0.7216
  184SLPC   C3421171   3.074   6.925   9.659 -0.3239 -0.3258 -0.9705
  184SLPC   H4X21172   3.136   6.874   9.583  1.7484  0.3491  0.2433
  184SLPC   H4Y21173   3.109   7.029   9.673 -1.9042  0.2523 -1.2127
  184SLPC   C3521174   2.929   6.923   9.598  0.7364  0.2079  0.3157
  184SLPC   H5X21175   2.864   6.982   9.666 -0.4031  0.2377 -0.7969
  184SLPC   H5Y21176   2.890   6.819   9.596  2.4552 -0.4130 -1.8752
  184SLPC   C3621177   2.943   6.983   9.456 -0.3762  0.6912  0.2528
  184SLPC   H6X21178   3.021   6.929   9.397  0.1271 -0.6831  2.0970
  184SLPC   H6Y21179   2.987   7.084   9.471  0.7947  0.2434 -0.1177
  184SLPC   C3721180   2.802   6.993   9.397  0.4311 -0.2905 -0.2906
  184SLPC   H7X21181   2.734   7.032   9.475 -1.7024 -1.9828 -1.2524
  184SLPC   H7Y21182   2.773   6.887   9.378 -0.9049  0.0502 -0.1717
  184SLPC   C3821183   2.783   7.067   9.262 -0.8651 -0.9576  0.1151
  184SLPC   H8X21184   2.853   7.017   9.191 -0.6337  1.8881 -1.7428
  184SLPC   H8Y21185   2.820   7.171   9.276 -2.8602 -0.1471 -0.3598
  184SLPC   C3921186   2.644   7.060   9.204  0.3699  0.2660  0.8574
  184SLPC   H9X21187   2.559   7.087   9.269  0.3726 -0.4401  1.1513
  184SLPC   H9Y21188   2.623   6.961   9.158  1.8812  0.8331 -1.1496
  184SLPC  C31021189   2.628   7.162   9.085  0.2126 -0.2830 -0.0221
  184SLPC  H10X21190   2.670   7.113   8.994  0.4094  1.1453 -0.7032
  184SLPC  H10Y21191   2.689   7.250   9.116  1.3425 -0.9890 -0.2060
  184SLPC  C31121192   2.484   7.213   9.066 -0.0820 -0.5559  0.0229
  184SLPC  H11X21193   2.454   7.278   9.151 -3.3620 -1.0609 -0.6882
  184SLPC  H11Y21194   2.420   7.122   9.062  1.2354 -1.5996  1.9364
  184SLPC  C31221195   2.471   7.310   8.955  0.6542 -0.0010  0.5557
  184SLPC  H12X21196   2.368   7.343   8.932  1.3578  0.3701 -2.2701
  184SLPC  H12Y21197   2.518   7.261   8.867 -0.4761 -0.9319  0.4592
  184SLPC  C31321198   2.544   7.443   8.982  0.2464 -0.7158  0.5721
  184SLPC  H13X21199   2.649   7.430   9.015 -0.0689 -1.6595  1.2014
  184SLPC  H13Y21200   2.490   7.508   9.053  3.0448  0.7864  1.4221
  184SLPC  C31421201   2.549   7.523   8.849 -0.0806  0.0098  0.2274
  184SLPC  H14X21202   2.443   7.538   8.820  0.1955 -1.4039 -1.6160
  184SLPC  H14Y21203   2.597   7.460   8.771  0.8800  0.7436  0.2162
  184SLPC  C31521204   2.612   7.661   8.864  0.0591  0.6151  0.0359
  184SLPC  H15X21205   2.689   7.658   8.944  1.4084 -0.2025 -1.2638
  184SLPC  H15Y21206   2.533   7.727   8.906 -0.5653  0.7986 -1.3979
  184SLPC  C31621207   2.658   7.725   8.734 -0.3120  0.5479  0.6732
  184SLPC  H16X21208   2.576   7.733   8.659 -2.0466 -1.1836  2.3223
  184SLPC  H16Y21209   2.737   7.670   8.678  0.5552  2.1681  0.2935
  184SLPC  C31721210   2.696   7.873   8.754 -0.1694  0.0432  0.1633
  184SLPC  H17X21211   2.742   7.906   8.659 -0.7735 -0.7837 -0.4288
  184SLPC  H17Y21212   2.767   7.877   8.839 -1.5802 -1.3668  1.4573
  184SLPC  C31821213   2.589   7.978   8.771  0.2265 -0.1722 -0.1501
  184SLPC  H18X21214   2.642   8.075   8.765  0.5383 -0.4039 -1.1367
  184SLPC  H18Y21215   2.528   7.968   8.864 -1.8125 -0.7573 -1.5046
  184SLPC  H18Z21216   2.513   7.975   8.690  0.8655 -0.5337 -0.7345
  185SLPC     N21217   0.360   3.493   6.127 -0.3168 -0.3416  0.5322
  185SLPC   C1321218   0.268   3.495   6.009 -0.5577  0.3727 -0.8389
  185SLPC  H13A21219   0.300   3.564   5.931 -0.3320  1.1259 -0.0917
  185SLPC  H13B21220   0.263   3.408   5.946  0.0602  1.0534 -1.8715
  185SLPC  H13C21221   0.173   3.534   6.041 -0.9714 -1.5042  0.2445
  185SLPC   C1421222   0.338   3.623   6.201 -0.5490 -0.5673  0.0321
  185SLPC  H14A21223   0.234   3.644   6.222 -1.8305 -2.3301 -4.0072
  185SLPC  H14B21224   0.401   3.629   6.288  0.5349 -0.4052 -0.7598
  185SLPC  H14C21225   0.372   3.704   6.139 -1.7930 -0.8011 -0.9743
  185SLPC   C1521226   0.500   3.476   6.076  0.4820 -0.2055 -0.1930
  185SLPC  H15A21227   0.558   3.462   6.166  1.0382 -2.0898 -0.8167
  185SLPC  H15B21228   0.503   3.389   6.012 -1.2039  0.4539 -1.2102
  185SLPC  H15C21229   0.533   3.563   6.022 -2.6033  1.0761 -0.1277
  185SLPC   C1221230   0.310   3.377   6.209 -0.5177 -0.2804  0.2559
  185SLPC  H12A21231   0.294   3.286   6.154  1.2857  0.1116 -0.9543
  185SLPC  H12B21232   0.212   3.413   6.237  0.6091  0.8270  2.9526
  185SLPC   C1121233   0.379   3.331   6.339 -0.0119 -0.5188 -0.0072
  185SLPC  H11A21234   0.478   3.292   6.305 -0.6444  0.1801 -2.7921
  185SLPC  H11B21235   0.325   3.241   6.374  0.2379 -0.9709 -0.7759
  185SLPC     P21236   0.531   3.442   6.521  0.2837  0.4021 -0.2695
  185SLPC   O1321237   0.550   3.329   6.614  0.1003  0.2021 -0.3564
  185SLPC   O1421238   0.636   3.461   6.421 -1.0096  0.1138 -0.8684
  185SLPC   O1221239   0.394   3.428   6.442  0.3065 -0.0755 -0.6203
  185SLPC   O1121240   0.515   3.576   6.607  0.0406 -0.2749  0.5622
  185SLPC    C121241   0.388   3.586   6.684 -1.0108  0.5823 -0.1898
  185SLPC    HA21242   0.326   3.674   6.656  0.9110  2.3403  0.9359
  185SLPC    HB21243   0.328   3.492   6.684 -0.8852  0.4930  0.7491
  185SLPC    C221244   0.422   3.606   6.835  0.5477  0.4295 -0.6109
  185SLPC    HS21245   0.503   3.682   6.829  1.6905 -0.7928 -0.8930
  185SLPC   O2121246   0.453   3.475   6.891 -0.4993  0.0045 -0.4984
  185SLPC   C2121247   0.584   3.471   6.921 -0.5743 -0.2088 -0.4679
  185SLPC   O2221248   0.666   3.563   6.918  0.3243  0.2370 -0.5437
  185SLPC   C2221249   0.621   3.325   6.955 -0.3116 -0.5155  0.6257
  185SLPC   H2R21250   0.529   3.263   6.948 -1.7385  1.7894 -2.3925
  185SLPC   H2S21251   0.694   3.294   6.877  0.9930 -1.2373  2.1020
  185SLPC    C321252   0.299   3.650   6.917 -0.0851  0.3319  0.2392
  185SLPC    HX21253   0.209   3.592   6.889  1.1146 -0.6841 -1.5860
  185SLPC    HY21254   0.287   3.751   6.872 -0.6218  0.7122  1.2033
  185SLPC   O3121255   0.327   3.654   7.054 -0.0529  0.2188  0.1038
  185SLPC   C3121256   0.268   3.754   7.123  0.0847 -0.4029  0.3742
  185SLPC   O3221257   0.203   3.844   7.071  0.2330  0.2777 -0.2834
  185SLPC   C3221258   0.299   3.737   7.272 -0.4354  0.5145  0.5278
  185SLPC   H2X21259   0.380   3.813   7.276  0.6055 -0.6140  1.1350
  185SLPC   H2Y21260   0.330   3.631   7.275 -0.1985  0.5688 -0.0423
  185SLPC   C2321261   0.699   3.305   7.091 -0.3748 -0.1515  0.4205
  185SLPC   H3R21262   0.782   3.378   7.099 -0.4395  0.3045 -2.5999
  185SLPC   H3S21263   0.767   3.219   7.076  0.1091  0.4653 -1.0081
  185SLPC   C2421264   0.606   3.288   7.213 -0.1900  0.6941  0.0501
  185SLPC   H4R21265   0.654   3.224   7.290 -1.5711  0.5198  0.7914
  185SLPC   H4S21266   0.509   3.247   7.177  0.5174 -2.0605  1.1736
  185SLPC   C2521267   0.564   3.427   7.276 -0.1028  0.2061 -0.3139
  185SLPC   H5R21268   0.488   3.422   7.357 -0.4767 -0.3414 -0.6920
  185SLPC   H5S21269   0.521   3.481   7.189  1.2813  0.5771 -0.7676
  185SLPC   C2621270   0.689   3.496   7.331  0.2686  0.2944 -0.1143
  185SLPC   H6R21271   0.751   3.535   7.248 -0.5243 -0.0604 -0.8730
  185SLPC   H6S21272   0.757   3.433   7.393  1.1432  0.8486 -0.4953
  185SLPC   C2721273   0.663   3.620   7.407  0.5597 -0.2570 -0.2500
  185SLPC   H7R21274   0.608   3.598   7.501  2.0807 -1.6688  0.3333
  185SLPC   H7S21275   0.591   3.685   7.353  0.4291  2.0070  2.4892
  185SLPC   C2821276   0.789   3.710   7.428  0.5774  0.2624  0.9862
  185SLPC   H8R21277   0.759   3.808   7.471  0.6643  0.5262  0.4529
  185SLPC   H8S21278   0.841   3.734   7.333 -0.4002  0.6709  0.5470
  185SLPC   C2921279   0.890   3.641   7.519 -0.2085  0.1185  0.3229
  185SLPC   H9R21280   0.920   3.547   7.472  1.8666  0.3469  1.1527
  185SLPC  C21021281   0.944   3.675   7.635 -0.3109  0.0848  0.3131
  185SLPC  H10R21282   1.010   3.605   7.689 -2.1558 -1.3763  0.7079
  185SLPC  C21121283   0.901   3.793   7.718 -0.2499 -0.1945  0.1935
  185SLPC  H11R21284   0.869   3.880   7.656  0.9491 -0.1756 -0.4123
  185SLPC  H11S21285   0.982   3.829   7.785 -0.5688 -0.3371  0.6578
  185SLPC  C21221286   0.794   3.750   7.814  0.1509 -0.0165 -0.5968
  185SLPC  H12R21287   0.719   3.684   7.768  0.4804 -0.2225 -0.8488
  185SLPC  C21321288   0.789   3.780   7.941  0.1529 -0.0033 -0.6817
  185SLPC  H13R21289   0.701   3.744   7.996  0.5102 -0.0845 -0.1614
  185SLPC  C21421290   0.886   3.872   8.014  0.0983 -0.3260 -0.5033
  185SLPC  H14R21291   0.817   3.928   8.081 -0.0619 -1.5443  0.3704
  185SLPC  H14S21292   0.932   3.944   7.943  1.4425 -1.0216 -0.3578
  185SLPC  C21521293   0.988   3.802   8.102 -0.3893 -0.1288  0.0821
  185SLPC  H15R21294   1.061   3.756   8.032  0.6332  0.1876  0.9238
  185SLPC  H15S21295   0.961   3.708   8.155  3.7427 -1.9814 -0.8874
  185SLPC  C21621296   1.067   3.889   8.209 -0.7066  0.3802  0.3282
  185SLPC  H16R21297   0.991   3.953   8.259  0.6271  2.6188 -0.4020
  185SLPC  H16S21298   1.146   3.944   8.153  0.3437 -2.6494 -1.2953
  185SLPC  C21721299   1.131   3.799   8.311 -0.5919 -0.0216 -0.0331
  185SLPC  H17R21300   1.180   3.713   8.259 -0.9659 -1.3077  1.6909
  185SLPC  H17S21301   1.059   3.743   8.373 -0.5469  0.8080  0.7716
  185SLPC  C21821302   1.220   3.869   8.412 -0.1925 -0.0340  0.0252
  185SLPC  H18R21303   1.268   3.796   8.481  0.9183  0.1562 -0.5260
  185SLPC  H18S21304   1.156   3.937   8.473 -0.1724 -0.0010  0.0083
  185SLPC  H18T21305   1.302   3.929   8.367  0.2065  0.8704  1.9152
  185SLPC   C3321306   0.183   3.774   7.371 -0.1718 -0.1946  0.1457
  185SLPC   H3X21307   0.087   3.747   7.321 -0.4823  3.5007 -1.4651
  185SLPC   H3Y21308   0.185   3.884   7.386  1.3182 -0.0758 -0.8337
  185SLPC   C3421309   0.203   3.689   7.495 -0.1695 -0.2571  0.2729
  185SLPC   H4X21310   0.241   3.586   7.481 -0.4069 -0.1257 -1.4627
  185SLPC   H4Y21311   0.114   3.687   7.562  0.5099 -0.3893  1.1676
  185SLPC   C3521312   0.305   3.752   7.584  0.0866  0.0461 -0.3562
  185SLPC   H5X21313   0.279   3.860   7.593  2.2544  0.6601 -1.0531
  185SLPC   H5Y21314   0.405   3.742   7.537 -0.1315  0.7129 -0.9758
  185SLPC   C3621315   0.325   3.678   7.718  0.2901 -0.5176 -1.3118
  185SLPC   H6X21316   0.364   3.577   7.693 -3.3096 -2.6050  1.0977
  185SLPC   H6Y21317   0.228   3.658   7.768  0.2031  1.4831 -0.6435
  185SLPC   C3721318   0.404   3.756   7.822 -0.7091  0.2697  0.4374
  185SLPC   H7X21319   0.378   3.864   7.823 -2.9358 -0.2468  0.7299
  185SLPC   H7Y21320   0.507   3.761   7.781  0.0200  0.1224  2.2010
  185SLPC   C3821321   0.383   3.710   7.968  0.9383  0.0687  0.1939
  185SLPC   H8X21322   0.279   3.730   8.003  0.9226  0.8902 -0.3133
  185SLPC   H8Y21323   0.450   3.777   8.025  2.3762  0.6842 -2.1454
  185SLPC   C3921324   0.421   3.571   8.003  0.0197 -0.6094 -0.6862
  185SLPC   H9X21325   0.499   3.539   7.931  1.6669  0.1029  0.7632
  185SLPC   H9Y21326   0.333   3.504   7.990 -0.4604 -0.1132  0.0120
  185SLPC  C31021327   0.471   3.562   8.145  0.8114  0.3940  0.7886
  185SLPC  H10X21328   0.397   3.611   8.212 -0.7222  1.4637 -1.6040
  185SLPC  H10Y21329   0.562   3.623   8.163  0.8650  0.2764  0.9144
  185SLPC  C31121330   0.483   3.414   8.189 -0.0035 -0.2094  0.1137
  185SLPC  H11X21331   0.567   3.363   8.136 -1.2840 -2.5775  0.3235
  185SLPC  H11Y21332   0.385   3.364   8.176 -0.3942  0.1272  1.6103
  185SLPC  C31221333   0.515   3.404   8.342  0.1101  0.5179  0.3887
  185SLPC  H12X21334   0.429   3.438   8.403  1.1190  0.0408  2.1272
  185SLPC  H12Y21335   0.600   3.467   8.376  0.7626 -0.3431  0.3655
  185SLPC  C31321336   0.542   3.261   8.385 -0.3607 -0.3486 -0.9908
  185SLPC  H13X21337   0.622   3.218   8.322  0.0012 -2.0679  0.5864
  185SLPC  H13Y21338   0.454   3.195   8.368  1.2062 -2.4103 -1.1923
  185SLPC  C31421339   0.562   3.257   8.535  0.7171 -0.0506 -0.0614
  185SLPC  H14X21340   0.629   3.336   8.577  0.3940  0.1483  0.0837
  185SLPC  H14Y21341   0.604   3.159   8.566 -2.4571 -0.6542  2.6177
  185SLPC  C31521342   0.435   3.254   8.614  0.1321  0.5993  0.4613
  185SLPC  H15X21343   0.375   3.174   8.563  1.9154 -0.0905 -0.5962
  185SLPC  H15Y21344   0.373   3.346   8.613 -1.2171 -0.2754 -1.0007
  185SLPC  C31621345   0.456   3.223   8.762  0.0299 -0.2776  0.7888
  185SLPC  H16X21346   0.530   3.292   8.808  1.0741  0.0101 -1.2737
  185SLPC  H16Y21347   0.510   3.126   8.755  0.6972  0.0188  1.7505
  185SLPC  C31721348   0.327   3.213   8.845 -0.2789  0.2096  0.1409
  185SLPC  H17X21349   0.250   3.146   8.802  0.8863 -2.1908  1.7305
  185SLPC  H17Y21350   0.292   3.318   8.857  0.8195  0.5264  0.6640
  185SLPC  C31821351   0.359   3.165   8.984 -0.4851 -0.5293 -0.2872
  185SLPC  H18X21352   0.277   3.104   9.028  0.3489 -0.7150  1.0397
  185SLPC  H18Y21353   0.390   3.245   9.054  0.8869 -2.3683  1.2713
  185SLPC  H18Z21354   0.448   3.098   8.992  0.0995  0.4766  2.3627
  186SLPC     N21355   1.479   5.392   6.073  0.2594  0.4207 -0.4408
  186SLPC   C1321356   1.564   5.339   5.960 -0.7756 -0.2545 -0.3238
  186SLPC  H13A21357   1.507   5.321   5.870  2.4724 -1.8093 -2.1544
  186SLPC  H13B21358   1.633   5.413   5.924  0.1138 -0.3557  1.1499
  186SLPC  H13C21359   1.607   5.244   5.990  1.7134  1.4323  1.6055
  186SLPC   C1421360   1.404   5.274   6.119  0.2185 -0.0482 -0.1967
  186SLPC  H14A21361   1.346   5.296   6.208 -0.0032  2.9766 -1.0150
  186SLPC  H14B21362   1.320   5.244   6.058 -0.8253 -1.9592  2.1003
  186SLPC  H14C21363   1.472   5.192   6.137 -0.3436 -0.3875  0.4376
  186SLPC   C1521364   1.391   5.496   6.017  0.3946  0.2652  0.0372
  186SLPC  H15A21365   1.306   5.523   6.079 -1.4508 -1.0584 -1.8420
  186SLPC  H15B21366   1.454   5.583   6.005 -1.1495  1.5206  0.8507
  186SLPC  H15C21367   1.349   5.474   5.920 -3.4863  1.9409  1.2363
  186SLPC   C1221368   1.573   5.452   6.177 -0.4989  0.8240  0.1065
  186SLPC  H12A21369   1.646   5.383   6.215 -1.1459  0.8874  1.4805
  186SLPC  H12B21370   1.513   5.472   6.264 -0.8287 -0.4235  0.1790
  186SLPC   C1121371   1.641   5.586   6.142  0.2654  0.0426  0.1607
  186SLPC  H11A21372   1.680   5.586   6.038 -0.8691 -0.4080 -0.2719
  186SLPC  H11B21373   1.724   5.602   6.215  0.3521  1.1332 -0.1592
  186SLPC     P21374   1.529   5.769   6.282 -0.2087 -0.1275 -0.0127
  186SLPC   O1321375   1.423   5.873   6.273  0.2111 -0.2759  0.2796
  186SLPC   O1421376   1.508   5.657   6.375 -0.3824 -0.2180 -0.0860
  186SLPC   O1221377   1.549   5.702   6.139 -0.3598  0.2242  0.0131
  186SLPC   O1121378   1.659   5.847   6.316 -0.3269 -0.3655  0.6682
  186SLPC    C121379   1.658   5.945   6.422 -0.6183  0.9362 -0.5397
  186SLPC    HA21380   1.569   6.011   6.429 -0.9003  0.3986  1.0402
  186SLPC    HB21381   1.673   5.903   6.523 -5.0241  0.9315  0.2187
  186SLPC    C221382   1.780   6.039   6.400  0.2251 -0.4371 -0.1032
  186SLPC    HS21383   1.790   6.066   6.293  1.4693  3.0843  0.8220
  186SLPC   O2121384   1.910   5.978   6.445  0.3623  0.4824  0.3779
  186SLPC   C2121385   2.016   6.051   6.420  0.5683 -0.3415  0.5896
  186SLPC   O2221386   2.027   6.143   6.338  0.1091  0.4678 -1.1617
  186SLPC   C2221387   2.124   6.008   6.519 -0.3735  0.6826 -0.1519
  186SLPC   H2R21388   2.146   5.900   6.506  0.5220  0.9024 -0.5317
  186SLPC   H2S21389   2.220   6.064   6.511  1.0281 -1.5462  0.6431
  186SLPC    C321390   1.759   6.182   6.458 -0.1316 -0.0649 -0.8448
  186SLPC    HX21391   1.666   6.221   6.411 -1.5219 -2.2135 -0.0158
  186SLPC    HY21392   1.828   6.261   6.424 -0.6989  1.2971  1.0526
  186SLPC   O3121393   1.742   6.179   6.600 -0.4524 -0.4370 -0.7285
  186SLPC   C3121394   1.787   6.294   6.654 -0.0745  0.2736 -0.0613
  186SLPC   O3221395   1.813   6.395   6.597  0.4015  0.3610  0.2693
  186SLPC   C3221396   1.795   6.268   6.800 -0.2245  0.5200  0.3551
  186SLPC   H2X21397   1.898   6.240   6.832  0.2145 -0.7807 -2.1055
  186SLPC   H2Y21398   1.719   6.194   6.835  0.0903  0.3911  0.7781
  186SLPC   C2321399   2.099   6.025   6.674 -0.5718  0.7887  0.3174
  186SLPC   H3R21400   2.041   6.118   6.695 -2.7402 -0.2100 -0.9852
  186SLPC   H3S21401   2.194   6.030   6.731 -0.9505 -0.5411  1.0789
  186SLPC   C2421402   2.018   5.911   6.726  0.6723 -0.3286 -1.0637
  186SLPC   H4R21403   2.080   5.820   6.714 -1.9452 -2.7548  2.5589
  186SLPC   H4S21404   1.930   5.908   6.659  0.8048 -0.7715 -1.2186
  186SLPC   C2521405   1.980   5.921   6.878 -0.0697 -0.3027 -0.0709
  186SLPC   H5R21406   1.950   5.819   6.912  0.4634  0.1849  1.9297
  186SLPC   H5S21407   1.895   5.989   6.901 -2.1173 -3.3612  1.9090
  186SLPC   C2621408   2.098   5.960   6.983 -0.2599  0.3425  0.3033
  186SLPC   H6R21409   2.096   6.069   7.005 -2.9060  0.4551 -0.4159
  186SLPC   H6S21410   2.202   5.938   6.950  0.5906  2.1740  1.6230
  186SLPC   C2721411   2.077   5.899   7.123  0.7210 -0.1910 -0.2150
  186SLPC   H7R21412   2.158   5.932   7.192 -1.5183  1.3082  1.7557
  186SLPC   H7S21413   2.082   5.788   7.113  1.0780 -0.0705 -1.5189
  186SLPC   C2821414   1.944   5.930   7.188  0.6484  0.0876 -0.7674
  186SLPC   H8R21415   1.864   5.911   7.113  1.0953  1.1198 -1.5177
  186SLPC   H8S21416   1.949   6.041   7.186  1.0600  0.0815 -0.1526
  186SLPC   C2921417   1.915   5.865   7.321 -0.1911 -0.1647  0.5766
  186SLPC   H9R21418   1.853   5.775   7.308 -1.8906  0.9469  0.9549
  186SLPC  C21021419   1.922   5.910   7.444 -0.0500  0.4096 -0.1849
  186SLPC  H10R21420   1.897   5.845   7.529 -0.5860  2.2476  1.0978
  186SLPC  C21121421   1.979   6.047   7.479 -0.1484  0.3108  0.2718
  186SLPC  H11R21422   1.907   6.094   7.550 -0.3828  0.8128 -0.2894
  186SLPC  H11S21423   1.986   6.109   7.387 -1.7770  2.5385  1.6087
  186SLPC  C21221424   2.116   6.040   7.541 -0.0516 -0.1003 -0.7505
  186SLPC  H12R21425   2.188   6.068   7.463  1.9113 -2.8630  0.0128
  186SLPC  C21321426   2.164   6.020   7.671  0.3244  0.2347 -0.5999
  186SLPC  H13R21427   2.273   6.015   7.686  0.4417  0.0588 -1.5201
  186SLPC  C21421428   2.068   5.999   7.787 -0.0998 -1.5917  0.6709
  186SLPC  H14R21429   2.109   5.920   7.854  2.2399 -0.7984  0.2246
  186SLPC  H14S21430   1.969   5.960   7.757 -1.3514  0.6413  1.7560
  186SLPC  C21521431   2.046   6.132   7.863  0.0880  0.5687 -0.4547
  186SLPC  H15R21432   1.966   6.187   7.810 -0.6747 -0.4338 -0.3556
  186SLPC  H15S21433   2.141   6.189   7.880  1.5768 -1.6621 -1.1673
  186SLPC  C21621434   1.998   6.094   8.007 -1.1458 -0.8279  0.7386
  186SLPC  H16R21435   2.062   6.012   8.046 -2.7978 -2.5773 -0.1162
  186SLPC  H16S21436   1.897   6.048   8.000 -1.1970 -0.5912 -0.0566
  186SLPC  C21721437   1.990   6.216   8.111 -0.5005  0.2453  0.3101
  186SLPC  H17R21438   1.910   6.274   8.060 -1.3082 -0.2836  0.9589
  186SLPC  H17S21439   2.088   6.268   8.111 -0.1747 -0.3141  2.2727
  186SLPC  C21821440   1.959   6.185   8.261 -0.6495 -0.4342 -0.2756
  186SLPC  H18R21441   1.866   6.124   8.264 -1.3427  0.6988  1.8800
  186SLPC  H18S21442   1.945   6.285   8.306  2.0990 -0.6780  1.1943
  186SLPC  H18T21443   2.044   6.133   8.310 -1.2170 -0.5953  0.5586
  186SLPC   C3321444   1.756   6.395   6.882  0.1944 -0.0511 -0.2246
  186SLPC   H3X21445   1.657   6.443   6.866 -0.6243 -0.8492  2.2587
  186SLPC   H3Y21446   1.831   6.475   6.863  3.4018 -3.3140 -1.9024
  186SLPC   C3421447   1.772   6.383   7.040  1.0202  0.2590  0.5109
  186SLPC   H4X21448   1.776   6.489   7.073 -4.7317  1.2019 -1.3425
  186SLPC   H4Y21449   1.866   6.327   7.058  1.3864  0.1734 -1.4979
  186SLPC   C3521450   1.651   6.305   7.098 -0.1757 -0.5883 -0.3651
  186SLPC   H5X21451   1.628   6.207   7.049 -0.9303 -1.1467  1.0757
  186SLPC   H5Y21452   1.567   6.377   7.101  1.9743  2.0169 -0.4682
  186SLPC   C3621453   1.676   6.271   7.252 -0.2848  0.2655 -0.4002
  186SLPC   H6X21454   1.679   6.373   7.294 -3.0998 -0.6172  2.1125
  186SLPC   H6Y21455   1.769   6.211   7.259  0.5543  1.4652 -1.1620
  186SLPC   C3721456   1.559   6.186   7.297  0.5824 -0.0949 -0.4610
  186SLPC   H7X21457   1.528   6.104   7.228 -2.3724 -0.6532  1.4580
  186SLPC   H7Y21458   1.469   6.250   7.291  1.0805  0.6153 -0.4297
  186SLPC   C3821459   1.578   6.143   7.440 -0.1417  0.3190  0.3668
  186SLPC   H8X21460   1.637   6.225   7.487 -0.3452  0.4836  0.3356
  186SLPC   H8Y21461   1.646   6.055   7.444  1.9693  1.9932  2.9764
  186SLPC   C3921462   1.457   6.110   7.526 -0.3307 -0.1573  0.6099
  186SLPC   H9X21463   1.432   6.002   7.519 -1.9135  0.2113  0.3822
  186SLPC   H9Y21464   1.377   6.177   7.487 -0.7580 -2.5674 -2.8619
  186SLPC  C31021465   1.493   6.140   7.672  0.0950 -0.4568  0.0669
  186SLPC  H10X21466   1.392   6.165   7.712  0.5232 -0.5770  1.2438
  186SLPC  H10Y21467   1.555   6.230   7.690  1.2434 -1.1860 -0.2266
  186SLPC  C31121468   1.559   6.017   7.739 -0.3049 -0.0743 -0.0513
  186SLPC  H11X21469   1.649   5.974   7.688  0.3442  1.2179  0.0001
  186SLPC  H11Y21470   1.491   5.930   7.750 -0.2868 -0.2784 -1.4420
  186SLPC  C31221471   1.594   6.036   7.886  0.0788 -0.5037  0.1663
  186SLPC  H12X21472   1.506   6.095   7.921  1.9078  0.6060  3.1221
  186SLPC  H12Y21473   1.683   6.103   7.890 -1.5346  1.6321  1.3148
  186SLPC  C31321474   1.613   5.917   7.977 -0.4278  0.1094 -0.1447
  186SLPC  H13X21475   1.693   5.856   7.931  0.8702  1.7551 -0.1155
  186SLPC  H13Y21476   1.520   5.857   7.986  0.2644 -1.1112 -0.9745
  186SLPC  C31421477   1.647   5.956   8.123  0.5332 -0.1449  0.7079
  186SLPC  H14X21478   1.564   5.998   8.184 -0.8713 -1.1780 -0.4577
  186SLPC  H14Y21479   1.729   6.031   8.124  0.0542  0.3779  2.0434
  186SLPC  C31521480   1.693   5.827   8.192 -0.3665  0.0047  0.3992
  186SLPC  H15X21481   1.779   5.781   8.138 -0.2415 -0.7512  1.2491
  186SLPC  H15Y21482   1.601   5.765   8.203 -0.4421  0.1885  0.8114
  186SLPC  C31621483   1.739   5.856   8.337 -0.1133 -0.2307 -0.6369
  186SLPC  H16X21484   1.644   5.876   8.390  1.2712 -0.9943  2.2569
  186SLPC  H16Y21485   1.799   5.947   8.356 -0.3577 -0.5671  1.9981
  186SLPC  C31721486   1.793   5.730   8.408  0.2557  0.2637  0.0578
  186SLPC  H17X21487   1.890   5.709   8.357  1.5717  2.8766  1.3943
  186SLPC  H17Y21488   1.718   5.648   8.398  1.0758 -0.2209 -2.5284
  186SLPC  C31821489   1.840   5.748   8.556  0.0749 -0.5323 -0.6612
  186SLPC  H18X21490   1.860   5.856   8.571 -1.0524 -0.3737 -0.2857
  186SLPC  H18Y21491   1.933   5.688   8.568  0.1213 -0.7889 -2.2659
  186SLPC  H18Z21492   1.758   5.715   8.623 -1.1890  1.9439 -0.9226
  187SLPC     N21493   2.536   2.881   6.191  0.2112  0.7723  0.0424
  187SLPC   C1321494   2.573   2.751   6.127  0.2402 -0.1863  0.5388
  187SLPC  H13A21495   2.498   2.676   6.148  2.7240 -2.7543  0.6078
  187SLPC  H13B21496   2.575   2.764   6.020  1.0354  1.2135  0.7114
  187SLPC  H13C21497   2.664   2.713   6.171  0.2247  0.2664  0.9704
  187SLPC   C1421498   2.409   2.937   6.125  1.3494 -0.6896 -0.3253
  187SLPC  H14A21499   2.331   2.862   6.128  0.5348  0.1699  1.2469
  187SLPC  H14B21500   2.375   3.029   6.171  1.2327  0.2960 -2.3505
  187SLPC  H14C21501   2.422   2.962   6.021 -1.7052 -2.2371 -1.1410
  187SLPC   C1521502   2.635   2.994   6.174 -0.1744 -0.3103  0.3615
  187SLPC  H15A21503   2.614   3.076   6.241 -0.5809 -1.7520  2.0675
  187SLPC  H15B21504   2.739   2.973   6.198 -0.4934 -1.3566  0.9065
  187SLPC  H15C21505   2.630   3.033   6.074  0.0770  1.3382  0.9860
  187SLPC   C1221506   2.522   2.862   6.341 -0.1029  0.0052  0.1186
  187SLPC  H12A21507   2.515   2.961   6.383 -0.8137 -0.2856  0.7118
  187SLPC  H12B21508   2.611   2.817   6.383 -0.9643 -0.8775  1.0406
  187SLPC   C1121509   2.402   2.777   6.381 -0.4164 -1.0694 -0.0048
  187SLPC  H11A21510   2.316   2.826   6.328  1.8468  2.4643 -0.6224
  187SLPC  H11B21511   2.381   2.794   6.488  1.1931  1.2920 -0.0248
  187SLPC     P21512   2.486   2.532   6.425 -0.1278  0.2833 -0.1903
  187SLPC   O1321513   2.467   2.400   6.356 -0.1049 -0.2884  0.0338
  187SLPC   O1421514   2.622   2.571   6.459 -0.2126 -0.0440  0.5935
  187SLPC   O1221515   2.416   2.638   6.346 -0.3375 -0.8711 -0.5429
  187SLPC   O1121516   2.406   2.530   6.561  0.5150  0.0893  0.1380
  187SLPC    C121517   2.261   2.506   6.544  0.0697  0.3808  0.4956
  187SLPC    HA21518   2.220   2.561   6.456  0.8601  1.1780  0.6235
  187SLPC    HB21519   2.241   2.397   6.536  0.9621  0.0905  2.0807
  187SLPC    C221520   2.198   2.562   6.675  0.2229 -0.6729  0.7862
  187SLPC    HS21521   2.090   2.541   6.690  0.1460 -0.5979  0.3574
  187SLPC   O2121522   2.229   2.697   6.674 -0.5703 -0.3551  0.0263
  187SLPC   C2121523   2.139   2.782   6.614 -0.5390  0.5660  0.3993
  187SLPC   O2221524   2.047   2.743   6.542 -0.2620  0.1581  0.1404
  187SLPC   C2221525   2.164   2.920   6.665  0.7305  0.2009 -0.0827
  187SLPC   H2R21526   2.262   2.916   6.717  1.8028  0.4036 -2.0109
  187SLPC   H2S21527   2.177   2.996   6.584  1.3581  0.4349  0.2349
  187SLPC    C321528   2.269   2.492   6.793 -0.3615 -0.3787 -0.6898
  187SLPC    HX21529   2.379   2.512   6.787 -0.2489 -1.1116 -1.1248
  187SLPC    HY21530   2.253   2.382   6.788 -0.9307 -0.3763  0.8517
  187SLPC   O3121531   2.211   2.542   6.918  0.6269 -0.7378  0.0666
  187SLPC   C3121532   2.281   2.633   6.978  0.0841 -0.4104  0.5235
  187SLPC   O3221533   2.386   2.676   6.942 -0.5904 -0.3143 -0.1529
  187SLPC   C3221534   2.224   2.647   7.118  0.0873 -0.5306  0.2667
  187SLPC   H2X21535   2.241   2.554   7.176  0.6933  0.8211  2.2895
  187SLPC   H2Y21536   2.115   2.666   7.106  0.2200 -0.8618 -1.7911
  187SLPC   C2321537   2.051   2.967   6.766 -0.3063 -0.7488  0.6629
  187SLPC   H3R21538   1.960   2.965   6.702  1.2466  1.8342 -1.7225
  187SLPC   H3S21539   2.087   3.064   6.805  1.1733 -1.1517  0.3600
  187SLPC   C2421540   2.046   2.861   6.879 -0.1275 -0.8613 -0.2040
  187SLPC   H4R21541   2.146   2.847   6.926  0.9952  0.3096 -2.1443
  187SLPC   H4S21542   2.029   2.758   6.840  0.0608 -1.0995  0.3363
  187SLPC   C2521543   1.940   2.882   6.986  0.0476  0.5352  1.0103
  187SLPC   H5R21544   1.912   2.787   7.037  1.9574  0.4417  1.9466
  187SLPC   H5S21545   1.853   2.911   6.924  0.5635 -0.5271 -0.2274
  187SLPC   C2621546   1.974   2.994   7.086  0.4572  0.3500  0.0092
  187SLPC   H6R21547   1.979   3.091   7.031  0.3389  0.0015 -0.6294
  187SLPC   H6S21548   2.079   2.980   7.120 -0.1078 -2.2084  0.7984
  187SLPC   C2721549   1.875   3.013   7.187 -0.1959 -0.2692 -0.5634
  187SLPC   H7R21550   1.861   2.911   7.228  2.8183 -0.4808  0.0398
  187SLPC   H7S21551   1.780   3.052   7.145  0.2384  0.4149 -0.9150
  187SLPC   C2821552   1.906   3.103   7.310 -0.0196 -0.0426 -0.3481
  187SLPC   H8R21553   1.968   3.186   7.270  2.1329 -0.7608  1.3978
  187SLPC   H8S21554   1.968   3.040   7.378  1.1982 -1.0838 -2.3789
  187SLPC   C2921555   1.779   3.144   7.390 -0.2631 -0.0035  0.7379
  187SLPC   H9R21556   1.696   3.172   7.324  0.2720  0.6864  0.3389
  187SLPC  C21021557   1.761   3.148   7.519 -0.6292  0.1709 -0.2251
  187SLPC  H10R21558   1.660   3.162   7.561 -1.3134  1.4007 -2.2146
  187SLPC  C21121559   1.866   3.114   7.621 -0.4669 -0.0489  0.3486
  187SLPC  H11R21560   1.905   3.211   7.659  0.6617  0.8024 -2.8769
  187SLPC  H11S21561   1.955   3.064   7.579 -2.0920 -2.6375 -0.1222
  187SLPC  C21221562   1.796   3.029   7.727  0.3639 -0.3904 -0.1171
  187SLPC  H12R21563   1.751   2.936   7.690 -1.2961 -0.5155  2.1325
  187SLPC  C21321564   1.791   3.050   7.859  0.1776  0.0222 -0.3056
  187SLPC  H13R21565   1.733   2.976   7.916  0.9045  1.2177  2.0499
  187SLPC  C21421566   1.859   3.159   7.943  0.3418  0.1067  0.2162
  187SLPC  H14R21567   1.801   3.254   7.941 -2.4291 -1.4341  2.9998
  187SLPC  H14S21568   1.965   3.178   7.916  0.3919 -2.1906 -1.2683
  187SLPC  C21521569   1.854   3.114   8.090 -0.0521 -0.1576  0.4950
  187SLPC  H15R21570   1.895   3.011   8.088  1.0393  0.2859  0.1464
  187SLPC  H15S21571   1.747   3.112   8.120  0.2544 -1.3738  1.5476
  187SLPC  C21621572   1.938   3.202   8.174  0.4053  0.5084 -0.0013
  187SLPC  H16R21573   2.042   3.193   8.137 -0.1615  1.1891 -1.8077
  187SLPC  H16S21574   1.929   3.161   8.277  0.9685 -1.3254 -0.6696
  187SLPC  C21721575   1.891   3.344   8.176  0.1093 -0.5215 -0.6238
  187SLPC  H17R21576   1.780   3.348   8.176  0.1227 -0.1579  0.0329
  187SLPC  H17S21577   1.930   3.394   8.085  0.3708  0.2942 -0.0709
  187SLPC  C21821578   1.929   3.417   8.306  0.2733 -0.1980 -0.3415
  187SLPC  H18R21579   2.035   3.407   8.337  0.1426  1.1832  0.6390
  187SLPC  H18S21580   1.858   3.385   8.386  0.0867 -1.3244 -0.9512
  187SLPC  H18T21581   1.925   3.526   8.284 -1.5588 -0.1864 -0.0638
  187SLPC   C3321582   2.288   2.767   7.180 -0.2627  0.4942  0.0471
  187SLPC   H3X21583   2.254   2.860   7.129  0.4007 -0.0335 -1.3512
  187SLPC   H3Y21584   2.398   2.757   7.175 -0.3236 -0.4063  0.3280
  187SLPC   C3421585   2.252   2.775   7.336  0.6201 -0.1998  0.7478
  187SLPC   H4X21586   2.276   2.677   7.381  1.6829 -1.2739 -2.0685
  187SLPC   H4Y21587   2.142   2.786   7.328  0.4970 -2.6315 -1.1495
  187SLPC   C3521588   2.326   2.898   7.394  0.1451 -0.1081 -0.0166
  187SLPC   H5X21589   2.312   2.976   7.317 -0.9080 -0.3099 -0.0294
  187SLPC   H5Y21590   2.436   2.883   7.402  0.1621 -1.6120 -2.4486
  187SLPC   C3621591   2.297   2.944   7.538  0.2354  0.2352 -0.5138
  187SLPC   H6X21592   2.190   2.975   7.542  0.1304 -0.3941  1.9294
  187SLPC   H6Y21593   2.351   3.040   7.556 -0.7706  0.5717  0.8031
  187SLPC   C3721594   2.321   2.853   7.659  0.2890  0.3402 -0.1944
  187SLPC   H7X21595   2.265   2.757   7.662  1.8022 -0.5285  2.3753
  187SLPC   H7Y21596   2.427   2.831   7.684  0.1439 -0.7433 -0.5213
  187SLPC   C3821597   2.259   2.923   7.783  0.5557 -0.5022 -0.1828
  187SLPC   H8X21598   2.157   2.964   7.769  0.8805  0.7971  1.1454
  187SLPC   H8Y21599   2.327   3.006   7.812 -0.1038  0.9914 -2.7522
  187SLPC   C3921600   2.252   2.823   7.902  0.5884 -1.3020  0.4630
  187SLPC   H9X21601   2.357   2.787   7.916  1.4096  0.7634 -0.2314
  187SLPC   H9Y21602   2.192   2.731   7.883  0.7367 -1.5019  0.9444
  187SLPC  C31021603   2.208   2.878   8.038 -0.5440  0.0986  0.2997
  187SLPC  H10X21604   2.099   2.896   8.024 -0.9957 -2.8336 -0.3229
  187SLPC  H10Y21605   2.251   2.978   8.057 -0.3798 -0.2308  1.7531
  187SLPC  C31121606   2.226   2.787   8.165  0.6329 -0.2943  0.2315
  187SLPC  H11X21607   2.333   2.761   8.181  0.6887  0.0405  0.4212
  187SLPC  H11Y21608   2.163   2.696   8.156  0.1101  0.2218 -1.6978
  187SLPC  C31221609   2.166   2.870   8.284  0.6106 -0.2468  0.3634
  187SLPC  H12X21610   2.061   2.898   8.259  0.0157 -1.4102  1.4677
  187SLPC  H12Y21611   2.227   2.961   8.302 -0.4139  0.4581  0.2977
  187SLPC  C31321612   2.162   2.800   8.420  0.3369 -1.0440 -0.6517
  187SLPC  H13X21613   2.257   2.754   8.455 -0.0749 -0.9939  0.5302
  187SLPC  H13Y21614   2.084   2.722   8.431 -0.2775 -0.1417  1.5225
  187SLPC  C31421615   2.128   2.911   8.522 -0.6040 -0.4828 -0.9224
  187SLPC  H14X21616   2.036   2.969   8.502 -0.1182 -0.4857 -3.2402
  187SLPC  H14Y21617   2.204   2.992   8.516  0.0220 -0.9957 -0.0843
  187SLPC  C31521618   2.115   2.864   8.661  0.0840 -0.7547 -0.0808
  187SLPC  H15X21619   2.174   2.770   8.665 -0.0696 -0.9089 -1.4122
  187SLPC  H15Y21620   2.008   2.834   8.675 -1.7430  3.4775 -3.7406
  187SLPC  C31621621   2.174   2.967   8.765  0.1706  0.6618 -0.5420
  187SLPC  H16X21622   2.137   3.066   8.731 -0.2194  0.5210 -0.5272
  187SLPC  H16Y21623   2.285   2.957   8.760 -0.0781 -2.7191 -0.8757
  187SLPC  C31721624   2.111   2.924   8.899 -0.3603 -0.0170  0.5706
  187SLPC  H17X21625   2.127   2.819   8.933 -0.8675 -0.4752 -0.5853
  187SLPC  H17Y21626   2.000   2.933   8.895 -0.2244  1.0831 -1.0498
  187SLPC  C31821627   2.159   3.009   9.016  0.4239  0.4269  0.1648
  187SLPC  H18X21628   2.257   2.973   9.055  0.5356  1.5882  0.9971
  187SLPC  H18Y21629   2.088   3.018   9.101 -0.3086  0.8612 -0.4891
  187SLPC  H18Z21630   2.191   3.112   8.987 -1.0596  0.7375 -0.4152
  188SLPC     N21631   3.913   3.533   6.339  0.1298 -0.1499  0.5198
  188SLPC   C1321632   3.814   3.428   6.316  0.6297  0.3165 -0.2173
  188SLPC  H13A21633   3.832   3.344   6.382  0.7377  0.3231 -0.2392
  188SLPC  H13B21634   3.717   3.475   6.327 -0.2203 -1.4532  0.1013
  188SLPC  H13C21635   3.820   3.394   6.214  1.5446 -5.0043  1.4355
  188SLPC   C1421636   3.904   3.631   6.222  0.2615 -0.0651  0.8964
  188SLPC  H14A21637   3.983   3.705   6.220 -0.3447  0.5884  0.9702
  188SLPC  H14B21638   3.919   3.580   6.128 -0.1772 -0.0540  0.8198
  188SLPC  H14C21639   3.809   3.682   6.233 -0.5897 -1.2336 -0.8160
  188SLPC   C1521640   4.047   3.461   6.345  0.2417 -0.1684 -0.0072
  188SLPC  H15A21641   4.056   3.381   6.417 -0.0835  0.3454  0.6117
  188SLPC  H15B21642   4.054   3.418   6.247 -2.1491  1.0436 -0.7573
  188SLPC  H15C21643   4.130   3.531   6.345  0.5423 -0.5085 -1.1518
  188SLPC   C1221644   3.899   3.601   6.472  0.0372  0.3759  1.0092
  188SLPC  H12A21645   3.985   3.665   6.481  0.4442  0.0714 -0.5723
  188SLPC  H12B21646   3.918   3.536   6.556  0.5917 -0.2107  0.4292
  188SLPC   C1121647   3.763   3.674   6.498 -0.1597  0.8820  0.2558
  188SLPC  H11A21648   3.774   3.725   6.597 -2.5321  0.9653  0.4904
  188SLPC  H11B21649   3.692   3.591   6.513 -0.4434  1.5960  3.1465
  188SLPC     P21650   3.573   3.768   6.356 -0.3995 -0.2686 -0.1158
  188SLPC   O1321651   3.568   3.908   6.298  0.2867  0.2393  0.0317
  188SLPC   O1421652   3.537   3.651   6.271  0.6808 -0.1092  0.1162
  188SLPC   O1221653   3.717   3.762   6.400  0.2878  0.0540 -0.1942
  188SLPC   O1121654   3.490   3.769   6.496  0.1307 -0.6796  0.1256
  188SLPC    C121655   3.444   3.894   6.545 -0.6002  0.8063  0.5351
  188SLPC    HA21656   3.532   3.962   6.542  1.6522 -2.0333 -0.8328
  188SLPC    HB21657   3.363   3.942   6.486 -0.5984  0.9586  0.6572
  188SLPC    C221658   3.380   3.874   6.687  0.0584  0.9530  0.6101
  188SLPC    HS21659   3.358   3.978   6.719  0.7861  1.0341  0.8681
  188SLPC   O2121660   3.472   3.801   6.764  0.0132  0.5243 -0.5579
  188SLPC   C2121661   3.573   3.874   6.816  0.0327 -0.0549 -0.4357
  188SLPC   O2221662   3.595   3.989   6.792 -0.8971 -0.2109 -0.1163
  188SLPC   C2221663   3.680   3.796   6.895 -0.3363 -0.2492 -0.0553
  188SLPC   H2R21664   3.728   3.722   6.828  2.1814 -0.8838  2.3625
  188SLPC   H2S21665   3.748   3.880   6.921 -0.6882  0.0623 -0.1258
  188SLPC    C321666   3.247   3.809   6.683  0.5548 -0.0728  0.1629
  188SLPC    HX21667   3.235   3.708   6.640  1.5348  1.5454 -4.0842
  188SLPC    HY21668   3.186   3.877   6.620  0.3294  0.7302  1.2288
  188SLPC   O3121669   3.192   3.817   6.816  0.3633 -0.4312  0.1520
  188SLPC   C3121670   3.212   3.708   6.892 -0.4657  0.2813  0.1995
  188SLPC   O3221671   3.264   3.606   6.853 -0.2565  0.3610 -0.2000
  188SLPC   C3221672   3.162   3.738   7.035  0.0303  0.1590  0.1209
  188SLPC   H2X21673   3.072   3.803   7.039 -1.5024 -1.8765 -0.0771
  188SLPC   H2Y21674   3.248   3.790   7.083 -0.6823  0.8219  0.6942
  188SLPC   C2321675   3.619   3.727   7.014 -0.4286 -0.0539  0.1615
  188SLPC   H3R21676   3.706   3.679   7.064  0.1325  0.1695 -0.5729
  188SLPC   H3S21677   3.552   3.643   6.989  0.8928 -0.7750 -1.0495
  188SLPC   C2421678   3.559   3.827   7.120 -0.2135 -0.1771  0.3478
  188SLPC   H4R21679   3.460   3.865   7.087 -0.2031  0.1588  0.7004
  188SLPC   H4S21680   3.634   3.909   7.128  0.5616 -0.9715  1.4230
  188SLPC   C2521681   3.543   3.765   7.260  0.2636  0.0336 -1.0917
  188SLPC   H5R21682   3.635   3.704   7.266  0.6825  0.6843 -0.8313
  188SLPC   H5S21683   3.453   3.701   7.248 -0.6919  1.2898 -0.8173
  188SLPC   C2621684   3.519   3.868   7.373  0.0233  0.6218  0.5446
  188SLPC   H6R21685   3.436   3.933   7.338 -2.0374 -2.4482 -0.3786
  188SLPC   H6S21686   3.619   3.914   7.393  0.3879  0.3253 -0.5673
  188SLPC   C2721687   3.473   3.793   7.508  0.0142  0.5614 -0.2577
  188SLPC   H7R21688   3.568   3.759   7.554  0.1667  1.4236  0.0678
  188SLPC   H7S21689   3.423   3.699   7.475  0.8614 -0.1719  0.5286
  188SLPC   C2821690   3.386   3.885   7.602  0.5181 -0.4913  0.9335
  188SLPC   H8R21691   3.279   3.865   7.582  0.6724  0.2019 -0.6833
  188SLPC   H8S21692   3.404   3.990   7.568 -0.1204 -0.2683  1.2773
  188SLPC   C2921693   3.429   3.859   7.749  0.3567  0.4285  0.0154
  188SLPC   H9R21694   3.432   3.755   7.782 -0.9712  1.7636  4.6351
  188SLPC  C21021695   3.447   3.957   7.839 -0.1073  0.1144 -0.2877
  188SLPC  H10R21696   3.476   3.925   7.940 -1.1106  2.0906  0.6424
  188SLPC  C21121697   3.436   4.109   7.816  0.4765  0.4760  0.2057
  188SLPC  H11R21698   3.497   4.129   7.725 -2.1693  0.0876 -1.6874
  188SLPC  H11S21699   3.482   4.154   7.907  1.3035  1.3194 -0.6163
  188SLPC  C21221700   3.297   4.170   7.795  0.2333  0.4753 -0.6541
  188SLPC  H12R21701   3.272   4.188   7.690 -1.2769 -0.6006 -0.5094
  188SLPC  C21321702   3.206   4.222   7.879 -0.1154 -0.4499  0.6531
  188SLPC  H13R21703   3.106   4.251   7.845 -0.1587  0.4509  1.5028
  188SLPC  C21421704   3.217   4.227   8.032 -0.2277 -0.1682 -0.5567
  188SLPC  H14R21705   3.322   4.207   8.064  0.4414  0.6351 -2.1724
  188SLPC  H14S21706   3.143   4.152   8.067 -0.3233 -0.1896 -0.8021
  188SLPC  C21521707   3.166   4.364   8.074  0.4021  0.2575  0.6878
  188SLPC  H15R21708   3.065   4.396   8.040  0.8486 -0.0657 -0.9898
  188SLPC  H15S21709   3.231   4.436   8.019  0.8993 -0.9494 -0.3358
  188SLPC  C21621710   3.187   4.381   8.225  0.3644  0.1748 -0.3090
  188SLPC  H16R21711   3.149   4.477   8.264  1.6429 -0.1215  1.7315
  188SLPC  H16S21712   3.296   4.375   8.248  0.3253 -2.4322 -0.5592
  188SLPC  C21721713   3.117   4.278   8.310  0.3310 -0.1198  0.0350
  188SLPC  H17R21714   3.129   4.170   8.288 -1.0348  0.2475 -2.7494
  188SLPC  H17S21715   3.007   4.290   8.304  0.4088  0.2812 -0.6417
  188SLPC  C21821716   3.152   4.304   8.459  0.5437  0.6464  0.7693
  188SLPC  H18R21717   3.102   4.220   8.512  0.1413 -0.7483 -1.7804
  188SLPC  H18S21718   3.107   4.401   8.490  0.1207  0.5980  0.3078
  188SLPC  H18T21719   3.262   4.310   8.472  1.0109 -2.5865 -1.4508
  188SLPC   C3321720   3.143   3.614   7.128  0.1026 -0.5726 -0.5325
  188SLPC   H3X21721   3.228   3.545   7.110  0.6482  0.3696 -1.6109
  188SLPC   H3Y21722   3.045   3.572   7.096  0.1520 -2.7431  1.9981
  188SLPC   C3421723   3.145   3.641   7.282 -0.0043 -0.4192  0.4074
  188SLPC   H4X21724   3.070   3.718   7.311  0.9964  0.9456 -0.5806
  188SLPC   H4Y21725   3.240   3.691   7.310 -0.1285  1.0427 -1.7132
  188SLPC   C3521726   3.122   3.511   7.365 -0.1261  0.0467  0.1952
  188SLPC   H5X21727   3.211   3.445   7.358 -0.8597 -0.9115 -0.3419
  188SLPC   H5Y21728   3.041   3.449   7.319  0.1494 -0.6558  0.6537
  188SLPC   C3621729   3.093   3.532   7.515 -0.5844  0.4230 -0.0144
  188SLPC   H6X21730   2.995   3.579   7.535  0.0695  1.0898  1.7256
  188SLPC   H6Y21731   3.168   3.606   7.551 -0.4402 -0.3758  1.3962
  188SLPC   C3721732   3.108   3.404   7.587 -0.0613 -0.0898  0.6688
  188SLPC   H7X21733   3.212   3.369   7.573  1.1215  3.1996  0.8646
  188SLPC   H7Y21734   3.039   3.329   7.541 -0.6036  0.7361  0.1255
  188SLPC   C3821735   3.089   3.431   7.737 -0.8509  0.3217 -0.1891
  188SLPC   H8X21736   2.985   3.470   7.739 -1.8564 -2.1912 -1.6875
  188SLPC   H8Y21737   3.166   3.498   7.782  1.3605 -0.7727 -2.2415
  188SLPC   C3921738   3.086   3.293   7.810  0.8935  0.1628  0.2479
  188SLPC   H9X21739   3.160   3.223   7.768 -1.5122 -2.5158  0.3693
  188SLPC   H9Y21740   2.986   3.247   7.796  1.3985 -0.4229 -1.4509
  188SLPC  C31021741   3.110   3.300   7.959  0.6305  0.2229  0.2631
  188SLPC  H10X21742   3.181   3.382   7.982  0.8745  0.2217 -0.4600
  188SLPC  H10Y21743   3.161   3.210   8.001  0.0547 -0.2907 -0.1311
  188SLPC  C31121744   2.981   3.334   8.022 -0.4592 -0.8738 -0.6009
  188SLPC  H11X21745   2.903   3.255   8.015  0.6749 -2.2505  1.5654
  188SLPC  H11Y21746   2.944   3.423   7.968  2.1028  0.3568 -0.3984
  188SLPC  C31221747   3.010   3.365   8.176 -0.4488 -0.6530 -0.0355
  188SLPC  H12X21748   3.071   3.458   8.173  0.7475 -1.2350  3.8264
  188SLPC  H12Y21749   3.067   3.286   8.230 -1.2339  1.1179  3.5689
  188SLPC  C31321750   2.887   3.409   8.258 -0.0638  0.0126 -0.5475
  188SLPC  H13X21751   2.846   3.309   8.284  0.4936  0.6499  2.9558
  188SLPC  H13Y21752   2.817   3.449   8.182 -1.1262 -2.2306 -0.8101
  188SLPC  C31421753   2.909   3.495   8.387 -0.3248  0.0890 -0.1336
  188SLPC  H14X21754   2.809   3.509   8.434 -0.3043 -0.2825  0.0256
  188SLPC  H14Y21755   2.947   3.593   8.351 -0.9901 -0.3467 -2.1186
  188SLPC  C31521756   2.997   3.434   8.491 -0.1863  0.0561  0.0649
  188SLPC  H15X21757   3.090   3.397   8.443 -0.1236  2.0548 -1.4125
  188SLPC  H15Y21758   2.954   3.340   8.531 -0.5118  1.0378  2.0998
  188SLPC  C31621759   3.024   3.517   8.620 -0.3519  0.0597 -0.4101
  188SLPC  H16X21760   3.055   3.450   8.703  1.4758 -0.4048 -1.4444
  188SLPC  H16Y21761   2.920   3.545   8.647 -0.1032  0.9480 -0.3397
  188SLPC  C31721762   3.112   3.636   8.613 -0.0538 -0.1477  0.8712
  188SLPC  H17X21763   3.085   3.671   8.511 -1.4383 -0.3498  1.1690
  188SLPC  H17Y21764   3.222   3.620   8.619  0.1662  0.3310 -1.4608
  188SLPC  C31821765   3.085   3.748   8.715  0.1844  0.0948 -0.1984
  188SLPC  H18X21766   2.993   3.806   8.690  0.8404  0.6620 -1.3595
  188SLPC  H18Y21767   3.159   3.830   8.703  0.0709  0.2906  0.4121
  188SLPC  H18Z21768   3.088   3.721   8.822 -0.1991  3.3352  0.6739
  189SLPC     N21769   5.897   6.430   6.056 -0.8748  0.0620 -0.4255
  189SLPC   C1321770   6.032   6.386   6.009  0.2974 -0.4496  0.6580
  189SLPC  H13A21771   6.074   6.442   5.927  0.0798  0.1848  0.9697
  189SLPC  H13B21772   6.101   6.374   6.091  0.0738 -3.6719  0.4433
  189SLPC  H13C21773   6.033   6.285   5.972  1.2634 -0.6029  1.0848
  189SLPC   C1421774   5.790   6.407   5.953 -0.1507 -0.1378 -0.1877
  189SLPC  H14A21775   5.695   6.416   6.004 -0.7122  3.4784 -1.6793
  189SLPC  H14B21776   5.781   6.479   5.873  3.1943  0.0437 -0.4689
  189SLPC  H14C21777   5.788   6.305   5.919 -1.0108 -0.1006 -0.2640
  189SLPC   C1521778   5.900   6.589   6.057  0.1213  1.2195  0.4210
  189SLPC  H15A21779   5.908   6.623   5.955  0.3120 -3.0664 -1.1105
  189SLPC  H15B21780   5.805   6.618   6.098 -0.3269  0.6361 -0.2070
  189SLPC  H15C21781   5.977   6.618   6.128  3.3349  1.5555 -3.0352
  189SLPC   C1221782   5.863   6.371   6.189 -0.1140 -0.6091  0.2654
  189SLPC  H12A21783   5.947   6.404   6.248  0.6328 -1.5202 -0.2579
  189SLPC  H12B21784   5.846   6.264   6.191  0.1307 -0.6355  3.4590
  189SLPC   C1121785   5.739   6.425   6.265 -0.3489  0.3322 -0.9916
  189SLPC  H11A21786   5.749   6.535   6.276 -2.3994  0.4899 -0.5694
  189SLPC  H11B21787   5.734   6.399   6.373 -0.1323 -0.1237 -1.0891
  189SLPC     P21788   5.553   6.248   6.260 -0.3860  0.3428  0.1032
  189SLPC   O1321789   5.435   6.216   6.176 -0.1845  0.5195  0.2008
  189SLPC   O1421790   5.657   6.144   6.282 -0.1392 -0.4774 -0.6864
  189SLPC   O1221791   5.620   6.382   6.199 -0.6693  0.5322  0.0469
  189SLPC   O1121792   5.494   6.278   6.404  0.3784 -0.2535 -0.1520
  189SLPC    C121793   5.472   6.419   6.447  0.6146  0.4565 -0.3662
  189SLPC    HA21794   5.566   6.459   6.490  1.6260 -0.9519 -1.2209
  189SLPC    HB21795   5.442   6.484   6.363  0.0685 -0.0121 -0.5434
  189SLPC    C221796   5.365   6.429   6.560 -0.8395 -1.0958  0.5133
  189SLPC    HS21797   5.369   6.535   6.593  0.2026 -1.3066  1.0720
  189SLPC   O2121798   5.394   6.342   6.675  0.1772 -0.3585 -0.1596
  189SLPC   C2121799   5.499   6.380   6.743 -0.2918  0.2973  0.6999
  189SLPC   O2221800   5.570   6.475   6.726  0.0732 -0.1218  0.1225
  189SLPC   C2221801   5.494   6.306   6.879  0.1452 -0.1445 -0.1179
  189SLPC   H2R21802   5.458   6.201   6.867  0.5767 -0.1037 -2.0422
  189SLPC   H2S21803   5.601   6.296   6.907  0.8349  2.0446 -1.8541
  189SLPC    C321804   5.225   6.388   6.510  0.2581 -0.3895  0.0135
  189SLPC    HX21805   5.242   6.296   6.450 -0.2584 -0.1996 -0.4223
  189SLPC    HY21806   5.176   6.463   6.444  0.6137  0.5886  0.8396
  189SLPC   O3121807   5.136   6.374   6.621 -0.0336  0.0312 -0.3680
  189SLPC   C3121808   5.073   6.266   6.645 -0.6012  0.1268  0.2842
  189SLPC   O3221809   5.061   6.166   6.573  0.4002 -0.2038  0.5363
  189SLPC   C3221810   5.029   6.276   6.794  0.5600  0.5702  0.1686
  189SLPC   H2X21811   4.931   6.330   6.789 -0.1936 -0.9027 -1.4034
  189SLPC   H2Y21812   5.106   6.341   6.840  0.8526  1.4687 -1.5675
  189SLPC   C2321813   5.400   6.380   6.975  0.3972  0.0333  0.4701
  189SLPC   H3R21814   5.301   6.395   6.927  1.0766  0.0576 -0.9271
  189SLPC   H3S21815   5.444   6.477   7.006  0.5687  0.2716 -0.5136
  189SLPC   C2421816   5.371   6.285   7.098 -0.2914  0.3197 -0.0728
  189SLPC   H4R21817   5.469   6.276   7.149  0.1498  0.8114 -0.8065
  189SLPC   H4S21818   5.336   6.184   7.069  0.9286 -0.3411  0.7063
  189SLPC   C2521819   5.272   6.350   7.198  0.2706 -0.0158  0.4046
  189SLPC   H5R21820   5.181   6.378   7.140  0.0830  1.1251  1.2424
  189SLPC   H5S21821   5.318   6.448   7.223  0.7898 -0.7108  2.1922
  189SLPC   C2621822   5.247   6.279   7.332 -0.1445  0.3617  0.8644
  189SLPC   H6R21823   5.341   6.267   7.390  1.3486  0.9541 -1.3645
  189SLPC   H6S21824   5.195   6.184   7.307  1.2707  0.3728 -2.4276
  189SLPC   C2721825   5.149   6.359   7.417 -0.6879  0.4761 -0.7371
  189SLPC   H7R21826   5.052   6.355   7.363  0.3286  1.3344 -2.6852
  189SLPC   H7S21827   5.183   6.465   7.419 -0.5078  0.4128 -0.1408
  189SLPC   C2821828   5.130   6.301   7.552 -0.2889  0.2258 -0.0428
  189SLPC   H8R21829   5.234   6.309   7.592 -0.5771 -0.4382  0.8567
  189SLPC   H8S21830   5.106   6.193   7.551 -0.8037  0.3394 -0.1953
  189SLPC   C2921831   5.030   6.378   7.642 -0.9056  0.9850 -0.7263
  189SLPC   H9R21832   4.925   6.358   7.618 -1.2051  1.2817  0.3010
  189SLPC  C21021833   5.058   6.447   7.756 -0.4925  0.3525  0.1528
  189SLPC  H10R21834   4.980   6.492   7.820  0.7675 -0.2991  2.2236
  189SLPC  C21121835   5.191   6.470   7.809 -0.5493 -0.2845  0.4284
  189SLPC  H11R21836   5.183   6.565   7.867 -0.2486  1.3247 -2.0657
  189SLPC  H11S21837   5.252   6.499   7.720 -1.6600 -0.4058 -0.3767
  189SLPC  C21221838   5.264   6.371   7.898 -0.2448  0.4134 -0.7676
  189SLPC  H12R21839   5.348   6.317   7.852 -1.6863 -1.7277 -0.9693
  189SLPC  C21321840   5.251   6.345   8.033  0.3713 -0.4213  0.1869
  189SLPC  H13R21841   5.306   6.260   8.076 -0.0132 -1.8203 -1.9814
  189SLPC  C21421842   5.145   6.411   8.121  0.5608  0.0222  0.1024
  189SLPC  H14R21843   5.066   6.448   8.054 -0.3112 -1.3351  0.3580
  189SLPC  H14S21844   5.174   6.509   8.164 -1.6865  0.4075  0.8219
  189SLPC  C21521845   5.090   6.322   8.233 -0.0788 -0.6754 -0.3246
  189SLPC  H15R21846   5.036   6.232   8.198  1.8098 -2.4509  1.2317
  189SLPC  H15S21847   5.012   6.390   8.272  1.3340  1.6181 -1.3447
  189SLPC  C21621848   5.196   6.287   8.342 -0.1611 -0.3402  0.4321
  189SLPC  H16R21849   5.264   6.373   8.358  0.7502 -1.0222  0.2591
  189SLPC  H16S21850   5.248   6.202   8.293  2.4910  1.3839  0.1696
  189SLPC  C21721851   5.132   6.251   8.480 -0.2277  0.1622  0.0559
  189SLPC  H17R21852   5.071   6.161   8.456  0.7773 -0.8671  1.3180
  189SLPC  H17S21853   5.071   6.330   8.529 -0.9169  0.4210 -1.1976
  189SLPC  C21821854   5.231   6.211   8.588  0.1586  0.3383  0.1152
  189SLPC  H18R21855   5.297   6.295   8.620 -0.4450  0.1172  2.0343
  189SLPC  H18S21856   5.301   6.132   8.554  2.1142  2.4157 -0.8427
  189SLPC  H18T21857   5.186   6.179   8.685 -0.3337 -0.9220 -0.5284
  189SLPC   C3321858   5.021   6.140   6.860 -0.2333 -0.4191 -0.4252
  189SLPC   H3X21859   5.113   6.080   6.839  1.6036  2.1504 -0.0336
  189SLPC   H3Y21860   4.943   6.075   6.815 -0.2020 -0.4709 -0.4060
  189SLPC   C3421861   4.991   6.140   7.012  0.8685 -0.1770  0.3541
  189SLPC   H4X21862   4.915   6.220   7.025  0.3548 -0.9390  2.2059
  189SLPC   H4Y21863   5.081   6.167   7.072  0.5143  0.3545  0.6485
  189SLPC   C3521864   4.935   6.002   7.052 -0.0484 -0.0911 -0.2541
  189SLPC   H5X21865   5.009   5.922   7.076 -0.6897 -0.9823 -1.1914
  189SLPC   H5Y21866   4.865   5.961   6.975 -0.1192 -1.5024  0.5367
  189SLPC   C3621867   4.825   6.007   7.163 -0.3438 -0.6943 -0.3260
  189SLPC   H6X21868   4.784   5.908   7.191 -0.3447 -0.6364 -0.1233
  189SLPC   H6Y21869   4.734   6.062   7.130  0.9501 -0.5073 -3.8303
  189SLPC   C3721870   4.882   6.061   7.297 -0.4177 -0.2004 -0.1651
  189SLPC   H7X21871   4.876   6.171   7.288 -0.3701  0.0132  2.1436
  189SLPC   H7Y21872   4.986   6.023   7.306 -0.2534 -0.5874 -3.0155
  189SLPC   C3821873   4.794   6.026   7.417 -0.2632  0.8935  0.1561
  189SLPC   H8X21874   4.765   5.919   7.415  0.8518  0.5706  1.2549
  189SLPC   H8Y21875   4.701   6.088   7.413  0.4213  2.0954  2.0894
  189SLPC   C3921876   4.854   6.065   7.549  0.0386 -0.4016 -0.0961
  189SLPC   H9X21877   4.880   6.172   7.540  0.7335 -0.6683 -1.6373
  189SLPC   H9Y21878   4.951   6.010   7.558  1.2219  0.8970 -3.8847
  189SLPC  C31021879   4.766   6.025   7.668  0.3760  0.2920  0.0269
  189SLPC  H10X21880   4.744   5.917   7.678  0.2809  0.3025 -0.0715
  189SLPC  H10Y21881   4.668   6.077   7.673  0.0397 -0.3668  0.4329
  189SLPC  C31121882   4.823   6.074   7.806  0.1502 -0.7800  1.0037
  189SLPC  H11X21883   4.843   6.182   7.794  0.2728 -0.8793  0.2916
  189SLPC  H11Y21884   4.916   6.026   7.844  1.1488 -0.3834 -0.8834
  189SLPC  C31221885   4.728   6.057   7.923  0.3284  0.0477 -0.1388
  189SLPC  H12X21886   4.708   5.948   7.929 -3.0676  0.6653  0.8577
  189SLPC  H12Y21887   4.629   6.100   7.897  1.1673  2.4518  0.5902
  189SLPC  C31321888   4.785   6.104   8.057  0.3516  0.0328  0.4577
  189SLPC  H13X21889   4.822   6.207   8.037 -1.5487  0.3874 -1.5161
  189SLPC  H13Y21890   4.864   6.038   8.097  0.4355  0.7616  1.5181
  189SLPC  C31421891   4.670   6.130   8.165 -0.0714  0.0085  0.1078
  189SLPC  H14X21892   4.615   6.038   8.193 -0.5534 -0.1237 -1.1972
  189SLPC  H14Y21893   4.587   6.184   8.114 -1.0158 -2.2718 -0.8864
  189SLPC  C31521894   4.718   6.204   8.294  0.2176  0.4404  0.3918
  189SLPC  H15X21895   4.783   6.288   8.260 -0.3783  0.2918 -1.1441
  189SLPC  H15Y21896   4.785   6.137   8.352  1.2752 -0.1559 -1.4817
  189SLPC  C31621897   4.609   6.267   8.380 -0.1371 -0.6505 -0.7893
  189SLPC  H16X21898   4.529   6.193   8.402 -1.7983  1.6811  1.2891
  189SLPC  H16Y21899   4.564   6.339   8.309  0.0480 -0.1610 -0.4102
  189SLPC  C31721900   4.660   6.340   8.507 -0.0145  0.0454 -0.3287
  189SLPC  H17X21901   4.713   6.263   8.567 -0.3314 -1.2303 -1.6536
  189SLPC  H17Y21902   4.560   6.359   8.553  0.3833  1.2079  0.0740
  189SLPC  C31821903   4.752   6.465   8.483  0.0657 -0.6120 -0.4348
  189SLPC  H18X21904   4.708   6.534   8.408  0.1888 -0.5787 -0.4763
  189SLPC  H18Y21905   4.855   6.435   8.454  0.2880 -0.4212  0.1583
  189SLPC  H18Z21906   4.772   6.520   8.577 -3.5198 -0.3031  0.2056
  190SLPC     N21907   5.130   5.945   6.229 -0.1189 -0.1888  0.3049
  190SLPC   C1321908   5.047   6.046   6.297  0.3443 -0.0294  0.0866
  190SLPC  H13A21909   5.064   6.062   6.403 -0.2386  0.4071  0.1158
  190SLPC  H13B21910   5.069   6.142   6.253 -1.1015  0.8999  1.3501
  190SLPC  H13C21911   4.943   6.030   6.274  0.3318 -0.1379  0.2238
  190SLPC   C1421912   5.088   5.952   6.085 -0.7233 -0.1413 -0.6708
  190SLPC  H14A21913   5.133   5.871   6.029  1.2068  1.0877 -0.9451
  190SLPC  H14B21914   4.983   5.941   6.063 -0.8124 -1.2194  0.2550
  190SLPC  H14C21915   5.121   6.046   6.042  2.4766  0.5532  3.1241
  190SLPC   C1521916   5.093   5.814   6.294  0.4014  0.1394 -0.2321
  190SLPC  H15A21917   5.155   5.731   6.260 -0.5889 -0.0957 -1.5136
  190SLPC  H15B21918   5.123   5.819   6.397 -2.3535  1.2488  0.5417
  190SLPC  H15C21919   4.992   5.778   6.281  0.3860 -0.1506  0.6742
  190SLPC   C1221920   5.275   5.969   6.245  0.2908  0.0669 -0.2484
  190SLPC  H12A21921   5.293   6.073   6.221  0.4116 -0.3185 -1.8629
  190SLPC  H12B21922   5.336   5.912   6.177  0.0808 -0.9227  0.3811
  190SLPC   C1121923   5.349   5.943   6.380  0.4349 -0.1492  0.0943
  190SLPC  H11A21924   5.284   5.998   6.451 -2.4559 -1.9787 -1.0094
  190SLPC  H11B21925   5.448   5.991   6.371 -0.2348  0.8655 -2.4360
  190SLPC     P21926   5.431   5.687   6.333  0.1574 -0.1322  0.3269
  190SLPC   O1321927   5.362   5.638   6.212 -1.0398  0.2307 -0.5028
  190SLPC   O1421928   5.568   5.740   6.297 -0.1325  0.2607 -0.4180
  190SLPC   O1221929   5.355   5.805   6.411 -1.0651  0.3833  0.2070
  190SLPC   O1121930   5.449   5.571   6.436 -0.4464  0.0222  0.6113
  190SLPC    C121931   5.521   5.566   6.556  1.1678 -0.2750 -0.8409
  190SLPC    HA21932   5.609   5.498   6.555 -0.7447 -2.8294  0.1217
  190SLPC    HB21933   5.552   5.664   6.598  1.7063 -0.6489 -0.3629
  190SLPC    C221934   5.432   5.514   6.670 -0.3447  0.3434  0.3276
  190SLPC    HS21935   5.356   5.588   6.703 -1.1040  0.1328 -0.8941
  190SLPC   O2121936   5.523   5.492   6.777 -1.0243 -0.0071 -0.2822
  190SLPC   C2121937   5.593   5.595   6.829 -0.0991 -0.1030  0.2810
  190SLPC   O2221938   5.575   5.714   6.819 -0.1365 -0.1894 -0.3091
  190SLPC   C2221939   5.710   5.526   6.890  0.1789 -0.2710 -0.0382
  190SLPC   H2R21940   5.697   5.416   6.897 -0.4789 -0.1469  0.7584
  190SLPC   H2S21941   5.800   5.552   6.830  0.2940  2.3615  1.1856
  190SLPC    C321942   5.362   5.379   6.637  0.0627 -1.1117  0.8573
  190SLPC    HX21943   5.432   5.293   6.638 -1.1055 -2.1018 -0.2779
  190SLPC    HY21944   5.315   5.383   6.536  1.5474 -2.0563  0.1166
  190SLPC   O3121945   5.257   5.370   6.741 -0.0648 -0.2991  0.1685
  190SLPC   C3121946   5.242   5.245   6.791  0.1413  0.0748  0.1462
  190SLPC   O3221947   5.293   5.141   6.748 -0.1184  0.5612 -0.3485
  190SLPC   C3221948   5.142   5.242   6.912 -0.4571  0.9681 -0.2582
  190SLPC   H2X21949   5.058   5.175   6.885 -0.7315  1.4838 -0.7097
  190SLPC   H2Y21950   5.087   5.339   6.924  1.6517  2.2306 -0.5547
  190SLPC   C2321951   5.756   5.576   7.029  0.1108  0.2735 -0.3247
  190SLPC   H3R21952   5.730   5.680   7.059  1.1268  0.0241  1.5153
  190SLPC   H3S21953   5.866   5.567   7.030  0.0020 -1.1720 -0.8813
  190SLPC   C2421954   5.715   5.475   7.142  0.1188 -0.0454 -0.1241
  190SLPC   H4R21955   5.740   5.370   7.115 -2.1158 -0.0729 -2.2809
  190SLPC   H4S21956   5.607   5.488   7.166  0.2281 -1.9173  1.4957
  190SLPC   C2521957   5.799   5.496   7.267  0.2975  0.6047  0.4369
  190SLPC   H5R21958   5.806   5.605   7.289  1.5519  1.1360 -2.3515
  190SLPC   H5S21959   5.901   5.455   7.253  1.1791  1.3855  4.0004
  190SLPC   C2621960   5.735   5.428   7.389 -0.4761 -0.2081  0.1590
  190SLPC   H6R21961   5.737   5.317   7.379  3.7606 -0.1743 -0.0884
  190SLPC   H6S21962   5.631   5.464   7.401 -0.3050 -0.3567  2.3086
  190SLPC   C2721963   5.814   5.464   7.512  1.2593 -0.6336 -1.1282
  190SLPC   H7R21964   5.823   5.574   7.518 -0.2518 -0.5277 -0.5005
  190SLPC   H7S21965   5.917   5.423   7.502  1.8689  0.3486  0.8719
  190SLPC   C2821966   5.745   5.405   7.644 -0.4515  0.2388 -0.2732
  190SLPC   H8R21967   5.772   5.299   7.628 -3.5275 -0.8836  1.4396
  190SLPC   H8S21968   5.634   5.404   7.642 -0.4312 -1.5055 -3.4922
  190SLPC   C2921969   5.801   5.459   7.771 -0.3918 -0.5700 -0.4688
  190SLPC   H9R21970   5.798   5.568   7.787 -2.6431 -0.7243  0.3571
  190SLPC  C21021971   5.833   5.388   7.881 -0.2418  0.1354 -0.0389
  190SLPC  H10R21972   5.876   5.437   7.969 -2.9223 -2.8135  3.0826
  190SLPC  C21121973   5.816   5.237   7.897 -0.6396 -0.6237 -0.5345
  190SLPC  H11R21974   5.728   5.195   7.845 -1.2765 -0.2580  0.2335
  190SLPC  H11S21975   5.791   5.230   8.005  0.6599  2.5475  0.0302
  190SLPC  C21221976   5.923   5.148   7.839  0.2857  1.1856  0.4715
  190SLPC  H12R21977   5.956   5.172   7.737 -2.3901  0.6075 -0.5607
  190SLPC  C21321978   5.987   5.043   7.901  0.0587 -0.1804 -0.2385
  190SLPC  H13R21979   6.050   4.986   7.831 -1.3580 -0.2717 -1.4637
  190SLPC  C21421980   5.976   4.996   8.046  0.0763 -0.7185 -0.5808
  190SLPC  H14R21981   5.917   5.072   8.101  2.5479 -0.2955  1.5964
  190SLPC  H14S21982   6.075   5.020   8.090  0.8795  1.8885 -3.6236
  190SLPC  C21521983   5.931   4.855   8.080  0.0845 -0.0114  0.3846
  190SLPC  H15R21984   5.829   4.829   8.044  0.3186 -0.4742  0.0448
  190SLPC  H15S21985   5.931   4.852   8.191  2.0381 -1.3937  0.3693
  190SLPC  C21621986   6.027   4.748   8.025  0.0675  0.8120 -0.6517
  190SLPC  H16R21987   6.128   4.771   8.065  0.6962 -1.2882 -0.9690
  190SLPC  H16S21988   6.040   4.762   7.915 -0.3770 -1.8602 -1.0719
  190SLPC  C21721989   5.997   4.601   8.055  0.8039 -0.0621  0.0239
  190SLPC  H17R21990   6.074   4.542   8.001 -0.6072 -2.4141  0.5305
  190SLPC  H17S21991   5.896   4.569   8.020  0.6844  1.1153 -0.7451
  190SLPC  C21821992   5.997   4.573   8.208  0.2470 -0.0269  0.2316
  190SLPC  H18R21993   5.951   4.476   8.237 -0.8228 -0.8474 -3.9535
  190SLPC  H18S21994   5.947   4.654   8.265  1.0777  0.8101 -0.2343
  190SLPC  H18T21995   6.105   4.566   8.232  1.0709 -0.3648 -3.3480
  190SLPC   C3321996   5.213   5.223   7.043 -0.9627 -0.1148  0.3492
  190SLPC   H3X21997   5.271   5.128   7.032 -1.6188 -0.3551 -1.1492
  190SLPC   H3Y21998   5.127   5.218   7.113 -1.5560 -0.1634 -0.3799
  190SLPC   C3421999   5.311   5.340   7.081 -0.4784 -0.1527 -0.1827
  190SLPC   H4X22000   5.253   5.435   7.083 -1.3691 -0.6262 -2.2242
  190SLPC   H4Y22001   5.397   5.343   7.011 -0.8242 -3.0469 -0.7816
  190SLPC   C3522002   5.367   5.328   7.222 -0.5779  0.3471 -0.8447
  190SLPC   H5X22003   5.275   5.321   7.284 -0.2590  0.4430 -0.3568
  190SLPC   H5Y22004   5.423   5.420   7.252 -1.2346 -0.1042  1.8210
  190SLPC   C3622005   5.462   5.210   7.243 -0.3879 -0.5898 -1.1643
  190SLPC   H6X22006   5.569   5.238   7.230 -0.4650 -0.0905 -0.7704
  190SLPC   H6Y22007   5.431   5.126   7.178 -2.3354  0.0007 -1.0342
  190SLPC   C3722008   5.457   5.160   7.392 -0.7620 -0.3004 -0.3066
  190SLPC   H7X22009   5.352   5.133   7.413 -0.6311 -0.5926 -0.0238
  190SLPC   H7Y22010   5.495   5.235   7.465 -1.4586  0.1030 -0.3537
  190SLPC   C3822011   5.542   5.038   7.432 -0.3596  0.2521  0.7937
  190SLPC   H8X22012   5.554   4.979   7.339  1.1464  2.0955 -0.1967
  190SLPC   H8Y22013   5.483   4.976   7.504 -4.3032  2.1457 -0.6894
  190SLPC   C3922014   5.682   5.057   7.489 -0.3766  0.1844  0.0857
  190SLPC   H9X22015   5.675   5.128   7.574 -2.9395  2.3044 -1.8111
  190SLPC   H9Y22016   5.741   5.104   7.408 -1.1962  1.1128  0.0159
  190SLPC  C31022017   5.747   4.923   7.532 -0.1076 -0.1677  0.7059
  190SLPC  H10X22018   5.846   4.953   7.573  1.4282 -4.2096  0.2434
  190SLPC  H10Y22019   5.774   4.862   7.443  1.7845  1.4248  0.1645
  190SLPC  C31122020   5.678   4.845   7.642  1.2420 -0.9586  0.4905
  190SLPC  H11X22021   5.727   4.748   7.663 -0.2709 -2.2708 -1.7658
  190SLPC  H11Y22022   5.578   4.819   7.600  0.9227 -0.8481  1.1736
  190SLPC  C31222023   5.656   4.919   7.780  0.1047 -0.0712 -0.1350
  190SLPC  H12X22024   5.622   5.022   7.754 -1.6427 -0.6487 -0.2083
  190SLPC  H12Y22025   5.755   4.938   7.828  0.5332 -0.1372 -0.9916
  190SLPC  C31322026   5.565   4.853   7.879 -0.2557  0.3868 -0.2887
  190SLPC  H13X22027   5.600   4.758   7.926 -0.2322  1.7552  2.5700
  190SLPC  H13Y22028   5.469   4.832   7.827 -0.8272  1.4504  0.3355
  190SLPC  C31422029   5.532   4.946   7.994  0.3707 -0.4327  0.2785
  190SLPC  H14X22030   5.480   5.031   7.945 -1.7861 -1.9848 -0.1859
  190SLPC  H14Y22031   5.625   4.988   8.038 -0.4510  0.6967  0.9898
  190SLPC  C31522032   5.436   4.883   8.098  0.4787 -1.0386 -0.1103
  190SLPC  H15X22033   5.499   4.808   8.151 -2.8838 -1.8460  2.9790
  190SLPC  H15Y22034   5.362   4.826   8.037  0.7227 -0.0539 -1.3472
  190SLPC  C31622035   5.369   4.980   8.203  0.3439  0.1586  0.2362
  190SLPC  H16X22036   5.305   4.917   8.269 -1.6393 -0.3491 -2.1331
  190SLPC  H16Y22037   5.302   5.049   8.149  0.8001 -0.3292 -0.9812
  190SLPC  C31722038   5.469   5.054   8.288 -0.0344  0.4408 -0.0485
  190SLPC  H17X22039   5.403   5.108   8.359  0.2470  0.3692  0.2713
  190SLPC  H17Y22040   5.522   5.125   8.222 -0.8247 -0.3991 -1.6407
  190SLPC  C31822041   5.556   4.955   8.370 -0.0640  0.2269 -1.0302
  190SLPC  H18X22042   5.594   4.999   8.464 -1.8606 -0.9387  0.2675
  190SLPC  H18Y22043   5.633   4.921   8.297  0.5342  2.3034 -1.4015
  190SLPC  H18Z22044   5.486   4.872   8.396  1.7482 -1.1508 -0.5034
  191SLPC     N22045   5.172   0.827   5.735 -0.3137  0.1176  0.4783
  191SLPC   C1322046   5.122   0.712   5.654  0.5303 -0.3836 -0.0456
  191SLPC  H13A22047   5.163   0.710   5.554 -2.0764 -0.4582 -1.1704
  191SLPC  H13B22048   5.159   0.619   5.694  0.0218 -0.6899 -0.2718
  191SLPC  H13C22049   5.014   0.708   5.645  0.6089  1.0327 -1.7178
  191SLPC   C1422050   5.122   0.811   5.879  1.6328 -0.5715  0.6532
  191SLPC  H14A22051   5.170   0.727   5.927  0.7850 -1.5568 -0.1991
  191SLPC  H14B22052   5.161   0.895   5.933  1.9666 -0.2373 -0.1006
  191SLPC  H14C22053   5.016   0.809   5.902  1.6955 -2.0124  0.8773
  191SLPC   C1522054   5.124   0.954   5.678 -0.1617  0.0085 -0.2284
  191SLPC  H15A22055   5.017   0.947   5.671 -0.1160 -1.9991  0.6806
  191SLPC  H15B22056   5.145   1.036   5.746  1.3340  0.1839 -0.8694
  191SLPC  H15C22057   5.163   0.982   5.582 -3.8044 -0.3638 -1.8668
  191SLPC   C1222058   5.324   0.820   5.721 -0.7111 -0.0667  0.3846
  191SLPC  H12A22059   5.368   0.896   5.783 -0.9512 -1.2109  1.9719
  191SLPC  H12B22060   5.353   0.844   5.620  2.6997 -2.1263  0.8166
  191SLPC   C1122061   5.392   0.694   5.780  0.1352 -0.5691 -0.6147
  191SLPC  H11A22062   5.501   0.703   5.760 -0.1464  2.5074 -1.0362
  191SLPC  H11B22063   5.353   0.600   5.735  0.6345 -1.3859  0.6579
  191SLPC     P22064   5.470   0.783   6.015 -0.0270  0.0996  0.3892
  191SLPC   O1322065   5.595   0.701   6.028 -0.3388  0.7227 -0.6521
  191SLPC   O1422066   5.485   0.919   5.960  0.0238  0.0048 -0.1586
  191SLPC   O1222067   5.373   0.695   5.923  0.2979  0.2195 -0.0503
  191SLPC   O1122068   5.396   0.781   6.157 -0.8068  0.1008 -0.0403
  191SLPC    C122069   5.346   0.669   6.221 -0.5459 -0.4539 -0.6836
  191SLPC    HA22070   5.242   0.637   6.202 -0.5107  0.4657 -2.5532
  191SLPC    HB22071   5.403   0.581   6.182  0.9272 -0.2142  0.8456
  191SLPC    C222072   5.353   0.681   6.376 -0.2506  0.1141 -0.1926
  191SLPC    HS22073   5.378   0.579   6.410 -0.6157  0.0080 -0.2402
  191SLPC   O2122074   5.219   0.714   6.419  0.2555  0.5473 -0.4439
  191SLPC   C2122075   5.188   0.705   6.551 -0.1347 -0.3413 -1.1550
  191SLPC   O2222076   5.245   0.637   6.630 -0.3670 -0.4624 -0.3894
  191SLPC   C2222077   5.075   0.807   6.567 -0.0328  0.0166  0.4255
  191SLPC   H2R22078   5.111   0.905   6.531  0.9515 -0.7528 -0.7194
  191SLPC   H2S22079   4.984   0.775   6.513 -1.0344  1.5601  1.1803
  191SLPC    C322080   5.465   0.778   6.416 -0.0230  0.1186  0.0616
  191SLPC    HX22081   5.417   0.877   6.401 -0.2416  0.0508  0.3288
  191SLPC    HY22082   5.556   0.773   6.351  2.6124  0.6596  3.5460
  191SLPC   O3122083   5.525   0.761   6.549  0.2002  0.4525  0.4644
  191SLPC   C3122084   5.533   0.868   6.632  0.0442  0.0816  0.7105
  191SLPC   O3222085   5.502   0.979   6.600  0.1318 -0.6543  0.3086
  191SLPC   C3222086   5.588   0.826   6.769  1.2027  0.0145  0.0432
  191SLPC   H2X22087   5.695   0.853   6.781  1.1988  0.0841 -0.0810
  191SLPC   H2Y22088   5.561   0.719   6.782 -1.6514  0.7538  0.5530
  191SLPC   C2322089   5.036   0.821   6.717  1.0650 -0.4380 -0.1778
  191SLPC   H3R22090   5.034   0.720   6.763  2.6324 -0.0476  0.7620
  191SLPC   H3S22091   4.927   0.842   6.716  0.8102 -1.6397  1.8492
  191SLPC   C2422092   5.120   0.926   6.800  0.1415  0.7264 -0.1719
  191SLPC   H4R22093   5.227   0.908   6.775 -0.1265  1.1035 -1.6579
  191SLPC   H4S22094   5.095   0.916   6.908  1.6275 -1.4041  0.0144
  191SLPC   C2522095   5.099   1.077   6.758  0.0861  0.8505  0.5124
  191SLPC   H5R22096   4.994   1.108   6.775 -0.7357 -2.1697  1.3774
  191SLPC   H5S22097   5.128   1.097   6.652 -0.4969  2.2836  0.6178
  191SLPC   C2622098   5.184   1.172   6.845  0.3773 -0.6325  0.4430
  191SLPC   H6R22099   5.293   1.150   6.851  1.1741  2.3451 -1.8956
  191SLPC   H6S22100   5.137   1.174   6.946  1.4093  2.4895  0.9359
  191SLPC   C2722101   5.168   1.313   6.792  0.3615  0.0958 -0.5614
  191SLPC   H7R22102   5.061   1.341   6.787  0.4779  0.3851 -1.6568
  191SLPC   H7S22103   5.209   1.330   6.690  0.6112  1.4123 -0.2466
  191SLPC   C2822104   5.239   1.416   6.881  0.5491  0.2788 -0.0356
  191SLPC   H8R22105   5.264   1.505   6.819 -3.2203  2.5648  1.5258
  191SLPC   H8S22106   5.336   1.370   6.907  0.3628 -0.4283 -0.5666
  191SLPC   C2922107   5.157   1.463   6.998 -0.0977 -0.4825  0.4306
  191SLPC   H9R22108   5.070   1.525   6.974  0.0240 -0.2196  0.6534
  191SLPC  C21022109   5.187   1.426   7.123 -0.4759 -0.1694  0.0358
  191SLPC  H10R22110   5.123   1.461   7.206 -1.7338 -1.2679 -0.4498
  191SLPC  C21122111   5.302   1.330   7.165 -0.4463  0.2835  0.1787
  191SLPC  H11R22112   5.396   1.378   7.130 -0.6518  0.0242 -0.7317
  191SLPC  H11S22113   5.291   1.238   7.104 -1.0050  1.1785 -1.0946
  191SLPC  C21222114   5.317   1.308   7.313  0.0404 -0.4455  0.4125
  191SLPC  H12R22115   5.397   1.364   7.364 -0.8705  1.6039 -0.3435
  191SLPC  C21322116   5.247   1.213   7.379 -0.0839 -0.2124  0.3942
  191SLPC  H13R22117   5.253   1.205   7.489 -4.4505 -1.4266  0.6393
  191SLPC  C21422118   5.139   1.126   7.321  0.1496 -0.0857  0.1168
  191SLPC  H14R22119   5.190   1.064   7.243 -0.9830 -0.7817 -0.0740
  191SLPC  H14S22120   5.070   1.188   7.261  1.5170  2.1485  0.7799
  191SLPC  C21522121   5.080   1.031   7.422  0.5678 -0.1216 -0.5710
  191SLPC  H15R22122   5.036   1.101   7.497  1.2855 -0.2011 -0.0708
  191SLPC  H15S22123   5.150   0.960   7.472  0.3843  0.2683  0.2525
  191SLPC  C21622124   4.967   0.939   7.367 -0.4605 -1.0395  0.0469
  191SLPC  H16R22125   4.891   1.018   7.352 -0.3291 -0.2829  2.9456
  191SLPC  H16S22126   4.928   0.870   7.445 -1.1618 -1.6983 -0.8888
  191SLPC  C21722127   4.995   0.874   7.234 -0.7525 -0.2306  0.1249
  191SLPC  H17R22128   4.994   0.946   7.150 -3.6458 -0.1523  0.1570
  191SLPC  H17S22129   4.900   0.819   7.214 -0.4420 -0.5829 -0.3878
  191SLPC  C21822130   5.120   0.790   7.231 -0.1039 -0.5257 -0.3281
  191SLPC  H18R22131   5.126   0.723   7.142  0.1206 -0.8750 -0.0506
  191SLPC  H18S22132   5.116   0.721   7.318  0.7103 -0.9562 -0.6239
  191SLPC  H18T22133   5.213   0.850   7.230 -1.4279  1.5766 -1.3735
  191SLPC   C3322134   5.513   0.901   6.881 -0.3236 -0.1545  0.5419
  191SLPC   H3X22135   5.402   0.892   6.877 -0.1857 -0.9150 -2.6426
  191SLPC   H3Y22136   5.540   1.008   6.874 -0.0413 -0.2876 -0.5385
  191SLPC   C3422137   5.570   0.859   7.018  0.0674  0.0648 -0.1995
  191SLPC   H4X22138   5.681   0.855   7.011  0.1619 -0.0492  1.1979
  191SLPC   H4Y22139   5.524   0.760   7.039 -0.3771  0.0554 -1.1765
  191SLPC   C3522140   5.532   0.957   7.133 -0.5237  1.0143  0.1141
  191SLPC   H5X22141   5.424   0.982   7.125 -1.2134 -1.9624 -0.3660
  191SLPC   H5Y22142   5.574   1.057   7.108  0.1833  0.3636 -1.3450
  191SLPC   C3622143   5.572   0.909   7.273 -1.1058  0.2578 -0.1348
  191SLPC   H6X22144   5.683   0.909   7.276 -1.1144 -0.9890  0.9029
  191SLPC   H6Y22145   5.549   0.804   7.304  2.4992 -0.6207 -0.1702
  191SLPC   C3722146   5.526   1.007   7.386 -0.3972  0.3685 -0.1698
  191SLPC   H7X22147   5.418   0.988   7.402  0.2072 -3.0295  0.3509
  191SLPC   H7Y22148   5.543   1.111   7.349 -2.8288  0.7071 -0.3941
  191SLPC   C3822149   5.605   0.976   7.512 -0.3653 -0.7118 -0.3980
  191SLPC   H8X22150   5.713   0.982   7.487 -0.0370  0.3128  1.1950
  191SLPC   H8Y22151   5.592   0.869   7.541  1.2815 -0.9674 -0.5385
  191SLPC   C3922152   5.582   1.069   7.633 -0.1927 -0.1740 -0.5325
  191SLPC   H9X22153   5.566   1.171   7.591  1.5896  0.6645  0.8074
  191SLPC   H9Y22154   5.675   1.065   7.693 -0.5913  0.9891  0.1854
  191SLPC  C31022155   5.460   1.022   7.721 -0.2785  0.3900 -0.2800
  191SLPC  H10X22156   5.485   0.922   7.763 -1.0980 -0.0127 -0.7336
  191SLPC  H10Y22157   5.374   0.995   7.656 -0.2438 -0.3490 -0.0285
  191SLPC  C31122158   5.435   1.112   7.842  0.4021  0.5006  0.5869
  191SLPC  H11X22159   5.525   1.131   7.904 -0.0547  0.9405  1.1263
  191SLPC  H11Y22160   5.358   1.059   7.903  1.1462 -0.7509  0.4428
  191SLPC  C31222161   5.362   1.246   7.797  0.0685  0.1554  0.1419
  191SLPC  H12X22162   5.256   1.221   7.772  0.0009  1.1579 -0.6353
  191SLPC  H12Y22163   5.408   1.279   7.701 -0.3333 -1.4069 -0.6122
  191SLPC  C31322164   5.384   1.358   7.902 -0.3999 -0.0199 -0.0639
  191SLPC  H13X22165   5.318   1.439   7.862  0.3827 -0.1723 -1.7227
  191SLPC  H13Y22166   5.486   1.402   7.902 -0.4134  0.0190  1.1670
  191SLPC  C31422167   5.352   1.322   8.048  0.1096  0.7669 -0.3148
  191SLPC  H14X22168   5.444   1.280   8.093 -0.2283 -0.9192 -1.1695
  191SLPC  H14Y22169   5.277   1.240   8.044  1.0818 -0.1501  0.0513
  191SLPC  C31522170   5.315   1.444   8.136 -0.1694  0.6950  0.2046
  191SLPC  H15X22171   5.228   1.487   8.081 -0.2412  0.2726 -0.0178
  191SLPC  H15Y22172   5.405   1.508   8.127 -0.0657  0.4225 -0.8013
  191SLPC  C31622173   5.272   1.408   8.276 -0.2814  0.0251  0.4426
  191SLPC  H16X22174   5.360   1.366   8.330 -1.0481 -0.4715  1.3258
  191SLPC  H16Y22175   5.198   1.326   8.266 -0.4547 -0.1242  2.6297
  191SLPC  C31722176   5.207   1.522   8.354 -0.2433 -0.1383  0.1932
  191SLPC  H17X22177   5.159   1.574   8.269  0.5303 -1.0650 -0.8374
  191SLPC  H17Y22178   5.284   1.594   8.392 -0.2006  0.7604 -1.5578
  191SLPC  C31822179   5.113   1.476   8.466  0.2670  0.6181 -0.0219
  191SLPC  H18X22180   5.183   1.457   8.550  0.1063  2.7223  0.6009
  191SLPC  H18Y22181   5.052   1.388   8.436  0.6190  0.9139 -1.5904
  191SLPC  H18Z22182   5.044   1.560   8.490  0.0709  0.3700  0.2910
  192SLPC     N22183   5.680   1.171   6.220 -0.5800  0.2593  0.0723
  192SLPC   C1322184   5.549   1.136   6.158  0.0726 -0.1249 -0.1638
  192SLPC  H13A22185   5.461   1.114   6.217 -0.4174  0.3135 -0.7268
  192SLPC  H13B22186   5.518   1.213   6.089 -0.3223  0.7455  0.9684
  192SLPC  H13C22187   5.560   1.042   6.105  2.1581  0.4284 -0.7616
  192SLPC   C1422188   5.775   1.197   6.116 -0.3936 -0.0689 -0.0179
  192SLPC  H14A22189   5.868   1.223   6.164 -0.1069 -0.7734 -0.1939
  192SLPC  H14B22190   5.787   1.110   6.055 -2.5635 -0.2286 -0.2550
  192SLPC  H14C22191   5.750   1.275   6.046 -0.3588 -0.2324 -0.2102
  192SLPC   C1522192   5.725   1.042   6.289  0.3590  1.0003 -0.4194
  192SLPC  H15A22193   5.729   0.963   6.215  2.0126 -0.8174  1.5452
  192SLPC  H15B22194   5.830   1.047   6.315  0.3848 -0.5006 -0.1641
  192SLPC  H15C22195   5.659   1.021   6.372 -0.3754 -1.5827 -1.6071
  192SLPC   C1222196   5.658   1.287   6.321  0.0542 -0.2686 -0.7334
  192SLPC  H12A22197   5.566   1.266   6.373 -0.0300  4.0267  1.0716
  192SLPC  H12B22198   5.645   1.376   6.262 -1.6318  0.1849  0.2805
  192SLPC   C1122199   5.760   1.312   6.437  0.0062 -0.3426 -0.3185
  192SLPC  H11A22200   5.757   1.227   6.508 -0.2321  0.2869  0.4231
  192SLPC  H11B22201   5.724   1.404   6.488 -1.0614 -1.4012  0.8840
  192SLPC     P22202   6.018   1.278   6.470  0.2768  0.1464  0.1355
  192SLPC   O1322203   6.017   1.129   6.476  0.8633 -0.4223 -0.5790
  192SLPC   O1422204   6.130   1.340   6.404  0.2045  0.5246 -0.1291
  192SLPC   O1222205   5.895   1.330   6.395 -0.0352  0.2226  0.2119
  192SLPC   O1122206   6.005   1.329   6.614  0.2615  0.4939  0.0094
  192SLPC    C122207   5.992   1.241   6.730  0.1466 -0.0591  0.3587
  192SLPC    HA22208   6.048   1.145   6.723  2.8426  1.4389  0.7209
  192SLPC    HB22209   6.033   1.294   6.819 -2.1040  1.3157  0.6087
  192SLPC    C222210   5.847   1.210   6.781 -0.0400  0.1435 -0.1200
  192SLPC    HS22211   5.787   1.182   6.692  2.8436 -1.4315 -1.6283
  192SLPC   O2122212   5.803   1.324   6.857  0.7027  0.0839  0.4894
  192SLPC   C2122213   5.675   1.326   6.892  0.1199  0.1984 -0.5595
  192SLPC   O2222214   5.584   1.258   6.845  0.0462 -0.1679 -0.0238
  192SLPC   C2222215   5.652   1.434   6.998 -0.1054  0.3066 -0.5896
  192SLPC   H2R22216   5.712   1.522   6.967  2.0315 -1.2442 -0.9599
  192SLPC   H2S22217   5.546   1.466   7.010 -0.1527 -0.8091  2.3400
  192SLPC    C322218   5.853   1.084   6.872  0.2273 -0.7216  0.1603
  192SLPC    HX22219   5.901   0.997   6.823 -2.0340 -1.7766 -0.2712
  192SLPC    HY22220   5.752   1.039   6.888 -0.3590  0.9973  1.4841
  192SLPC   O3122221   5.912   1.121   7.002  0.6711 -0.3132  0.2257
  192SLPC   C3122222   6.032   1.077   7.021 -0.3629  0.4013  0.5111
  192SLPC   O3222223   6.107   1.024   6.944 -0.6244  0.3647  0.0279
  192SLPC   C3222224   6.071   1.142   7.155 -0.5894  0.3845  0.2118
  192SLPC   H2X22225   6.014   1.235   7.175  0.5930  1.3548 -0.9106
  192SLPC   H2Y22226   6.175   1.180   7.150 -1.2892  2.2448 -0.5592
  192SLPC   C2322227   5.703   1.380   7.133 -0.1080  0.0584  0.1355
  192SLPC   H3R22228   5.807   1.341   7.122  0.3932  1.2112  0.6181
  192SLPC   H3S22229   5.642   1.290   7.154 -2.7720  1.9397  0.7821
  192SLPC   C2422230   5.687   1.478   7.244  1.0741 -0.3226 -0.6143
  192SLPC   H4R22231   5.579   1.504   7.254  1.6207  1.4851  0.9845
  192SLPC   H4S22232   5.737   1.564   7.194 -1.5152 -0.4733 -3.6780
  192SLPC   C2522233   5.745   1.430   7.375 -0.7343  0.3980 -0.4162
  192SLPC   H5R22234   5.851   1.400   7.365 -1.2736 -1.7775  0.0737
  192SLPC   H5S22235   5.696   1.333   7.396  3.9697 -2.2751 -1.0681
  192SLPC   C2622236   5.733   1.537   7.489 -0.2755  0.3739  0.9772
  192SLPC   H6R22237   5.704   1.628   7.433 -1.9461  0.5101  2.0088
  192SLPC   H6S22238   5.826   1.560   7.545 -0.8363 -0.2070  2.1673
  192SLPC   C2722239   5.627   1.498   7.596  0.2305  0.3299  0.4979
  192SLPC   H7R22240   5.644   1.392   7.621  0.6239  0.3485  0.3123
  192SLPC   H7S22241   5.530   1.500   7.542  1.5189  1.4829 -1.8662
  192SLPC   C2822242   5.625   1.600   7.715  0.5739  0.0827 -0.1209
  192SLPC   H8R22243   5.720   1.579   7.769  0.8352 -0.9286 -0.9727
  192SLPC   H8S22244   5.536   1.582   7.779 -0.1827 -0.7280 -1.3860
  192SLPC   C2922245   5.621   1.745   7.663  0.5103 -0.4887 -0.2892
  192SLPC   H9R22246   5.575   1.770   7.566 -1.9457 -1.8582  0.4790
  192SLPC  C21022247   5.692   1.843   7.711 -0.0035 -0.2705  0.4663
  192SLPC  H10R22248   5.674   1.944   7.671  3.5554  0.0986 -0.4108
  192SLPC  C21122249   5.785   1.829   7.832  0.4345 -0.0440  0.6655
  192SLPC  H11R22250   5.754   1.752   7.906 -4.7228  0.9305 -0.3071
  192SLPC  H11S22251   5.775   1.913   7.905 -1.6008  0.4697 -0.1593
  192SLPC  C21222252   5.929   1.815   7.790 -0.0298 -0.7132  0.2158
  192SLPC  H12R22253   5.961   1.716   7.755 -2.2547 -1.0614 -0.9448
  192SLPC  C21322254   6.018   1.912   7.773 -0.1325 -0.5462  0.2078
  192SLPC  H13R22255   6.121   1.885   7.744 -0.4686 -1.2141 -0.3775
  192SLPC  C21422256   5.986   2.059   7.801  0.3803 -0.4038 -0.1129
  192SLPC  H14R22257   5.890   2.081   7.852 -1.1927 -0.9389 -2.7308
  192SLPC  H14S22258   5.977   2.107   7.701  0.3627  1.7641  0.9034
  192SLPC  C21522259   6.100   2.127   7.883  0.0138  1.1565 -0.3174
  192SLPC  H15R22260   6.197   2.121   7.830 -0.2351 -0.6339 -0.6093
  192SLPC  H15S22261   6.120   2.062   7.970 -1.5031  0.9575 -0.1125
  192SLPC  C21622262   6.068   2.267   7.908 -0.1702 -0.2634 -0.2593
  192SLPC  H16R22263   5.963   2.270   7.946  0.3477  0.1093  1.1984
  192SLPC  H16S22264   6.081   2.330   7.817 -2.4275  0.7501  0.0865
  192SLPC  C21722265   6.152   2.328   8.022 -0.0743  0.1815  0.5442
  192SLPC  H17R22266   6.259   2.350   8.003  0.4661 -0.8664  2.2236
  192SLPC  H17S22267   6.106   2.422   8.059 -1.7961 -0.4527  0.0283
  192SLPC  C21822268   6.161   2.237   8.148  0.1538 -0.2440  0.3237
  192SLPC  H18R22269   6.239   2.159   8.138  0.5688  0.2030  0.0205
  192SLPC  H18S22270   6.069   2.185   8.180  0.2202  0.4102  1.6229
  192SLPC  H18T22271   6.182   2.304   8.234 -1.2833  0.7538 -0.0796
  192SLPC   C3322272   6.056   1.028   7.265  0.5799 -0.4703  0.4147
  192SLPC   H3X22273   6.117   0.944   7.227  2.9747  0.7576  1.4081
  192SLPC   H3Y22274   5.950   0.996   7.275  0.9220 -1.4879  0.9488
  192SLPC   C3422275   6.109   1.051   7.406 -0.5515 -0.6711 -0.0658
  192SLPC   H4X22276   6.215   1.084   7.417 -0.9920 -0.2277  3.0872
  192SLPC   H4Y22277   6.097   0.950   7.449 -0.3478 -0.5601  0.2510
  192SLPC   C3522278   6.028   1.162   7.473  0.9627 -0.0845 -0.1102
  192SLPC   H5X22279   5.923   1.125   7.461 -0.0073  2.5334  0.0050
  192SLPC   H5Y22280   6.030   1.258   7.416  2.5512  0.6894  1.2377
  192SLPC   C3622281   6.060   1.167   7.624 -0.4888  0.1084 -0.2332
  192SLPC   H6X22282   6.158   1.215   7.645  0.5874 -2.3113  0.4980
  192SLPC   H6Y22283   6.082   1.062   7.656  0.3920  0.7106  1.2123
  192SLPC   C3722284   5.944   1.230   7.700 -1.0732  0.3799 -0.0721
  192SLPC   H7X22285   5.847   1.180   7.680 -1.3073  0.4856  0.7689
  192SLPC   H7Y22286   5.930   1.331   7.656 -1.5937  0.4576  0.2652
  192SLPC   C3822287   5.968   1.250   7.850  0.4030  0.0624  0.6731
  192SLPC   H8X22288   6.074   1.280   7.861  0.3277  1.6742 -2.4031
  192SLPC   H8Y22289   5.946   1.151   7.896 -1.9105  0.1450 -0.1618
  192SLPC   C3922290   5.871   1.348   7.917 -0.7943 -0.3858 -0.0795
  192SLPC   H9X22291   5.769   1.308   7.895 -1.2390  1.0994 -0.7642
  192SLPC   H9Y22292   5.883   1.449   7.872 -0.5528  0.5744  2.0846
  192SLPC  C31022293   5.891   1.368   8.066 -0.0933  0.7115 -0.4724
  192SLPC  H10X22294   6.000   1.387   8.076 -0.0500  0.0913  0.2695
  192SLPC  H10Y22295   5.890   1.270   8.118 -0.0541  0.1324 -1.5423
  192SLPC  C31122296   5.799   1.471   8.128 -0.1219 -0.6874  0.2128
  192SLPC  H11X22297   5.696   1.430   8.113  0.4680 -1.9409 -0.5007
  192SLPC  H11Y22298   5.799   1.568   8.075 -1.6704 -0.1355  1.1888
  192SLPC  C31222299   5.828   1.529   8.272  0.2930 -0.1682  0.6236
  192SLPC  H12X22300   5.927   1.580   8.282 -0.2115  0.6323  1.6430
  192SLPC  H12Y22301   5.828   1.440   8.338 -0.1080 -0.1219  0.6871
  192SLPC  C31322302   5.706   1.609   8.314  0.7456  0.4331  0.2419
  192SLPC  H13X22303   5.706   1.638   8.422 -1.1830 -1.9948  0.9378
  192SLPC  H13Y22304   5.613   1.554   8.292 -0.2999  1.3592  2.2026
  192SLPC  C31422305   5.711   1.752   8.246 -0.1589  0.0899  0.0955
  192SLPC  H14X22306   5.711   1.742   8.136  0.1466 -2.8705  0.3301
  192SLPC  H14Y22307   5.798   1.809   8.284  0.5300 -1.6813  1.2210
  192SLPC  C31522308   5.586   1.822   8.288  0.4316  0.3627 -0.6865
  192SLPC  H15X22309   5.578   1.861   8.392  0.1042  0.0325 -0.5902
  192SLPC  H15Y22310   5.507   1.746   8.274  0.0288  0.3665  1.4150
  192SLPC  C31622311   5.556   1.943   8.202  0.1398  0.5582  0.1493
  192SLPC  H16X22312   5.650   2.002   8.189  0.2169  0.7492  1.5256
  192SLPC  H16Y22313   5.485   2.010   8.254 -1.0829  0.7133 -1.6636
  192SLPC  C31722314   5.507   1.919   8.056 -0.5044  0.5507  0.1812
  192SLPC  H17X22315   5.403   1.879   8.055 -0.2394 -0.1436 -0.1487
  192SLPC  H17Y22316   5.574   1.849   8.002 -2.4060 -0.1792 -1.2814
  192SLPC  C31822317   5.506   2.054   7.985 -0.0852  1.0151  0.5115
  192SLPC  H18X22318   5.605   2.105   7.979 -0.7791  2.2487 -0.9946
  192SLPC  H18Y22319   5.439   2.123   8.041 -0.8833  0.6330  0.0361
  192SLPC  H18Z22320   5.466   2.050   7.881 -0.4977  2.6842  0.5888
  193SOD    SOD22321   4.498   4.540  14.657 -0.1465 -0.3374  0.4013
  194SOD    SOD22322   5.889   5.945   6.047  0.3463  0.3280  0.7421
  195SOD    SOD22323   4.446   0.785  15.098 -0.4520 -0.2123 -0.6999
  196SOD    SOD22324   1.532   4.150  12.068 -0.1137  0.0681  0.5684
  197SOD    SOD22325   0.239   3.919   0.212 -0.2604 -0.4060  0.2014
  198SOD    SOD22326   2.979   5.635   0.254  0.0340 -0.1355 -0.1415
  199SOD    SOD22327   2.189   1.234   3.099 -0.2546  0.1351  0.0108
  200SOD    SOD22328   6.264   4.314  12.192 -0.4941 -0.2987 -0.4069
  201SOD    SOD22329   1.516   3.869  14.962 -0.3728 -0.5394  0.1044
  202SOD    SOD22330   5.072   3.688   6.124 -0.7231  0.1073  0.5923
  203SOD    SOD22331   5.082   4.079   0.969  0.4898  0.2855 -0.2371
  204SOD    SOD22332   5.124   6.351  14.109  0.2438  0.0859 -0.6378
  205SOD    SOD22333   4.279   5.791   0.064 -0.2194 -0.0264 -0.1517
  206SOD    SOD22334   5.920   4.640   3.677 -0.3066  0.3434  0.2355
  207SOD    SOD22335   3.657   6.257  10.779 -0.4264  0.2684 -0.5078
  208SOD    SOD22336   3.562   1.541  11.586  0.1650 -0.3568  0.3262
  209SOD    SOD22337   3.432   6.507  14.509 -0.3326 -0.1075  0.0752
  210SOD    SOD22338   3.384   0.711  14.002 -0.1613 -0.0764  0.6501
  211SOD    SOD22339   2.580   3.773  12.512  0.0416  0.2175 -0.0428
  212SOD    SOD22340   1.957   3.731   6.018 -0.0265 -0.2648 -0.7103
  213SOD    SOD22341   0.092   4.760  11.703 -0.6328 -0.1755  0.2094
  214SOD    SOD22342   5.219   4.196   5.792 -0.0570 -0.1532  0.2295
  215SOD    SOD22343   4.982   6.442  16.825 -0.3396  0.2252 -0.6896
  216SOD    SOD22344   5.919   2.532  15.981 -0.1682  0.7478  0.1463
  217SOD    SOD22345   0.854   2.234  15.802  0.2388  0.1943  0.2247
  218SOD    SOD22346   3.929   0.096   1.330 -0.2757  0.2118  0.3799
  219SOD    SOD22347   3.131   2.129  16.147  0.0385  0.1789 -0.1051
  220SOD    SOD22348   5.550   2.168  15.105  0.1541  0.2794 -0.2662
  221SOD    SOD22349   5.936   5.365  14.909 -0.1402 -0.5200  0.2553
  222SOD    SOD22350   3.926   2.118  12.216  0.0451  0.1175  0.4504
  223SOD    SOD22351   0.551   0.110  11.459  0.6049 -0.3293  0.2426
  224SOD    SOD22352   0.832   4.095  12.625 -0.1405 -0.2130  0.1389
  225SOD    SOD22353   5.221   2.587   5.803 -0.5677  0.4045  0.0523
  226SOD    SOD22354   3.492   5.582  11.781 -0.2741  0.0647  0.4086
  227SOD    SOD22355   3.483   3.252  15.958 -0.7553 -0.9150  0.4595
  228SOD    SOD22356   4.741   4.787   6.354  0.2431  0.0065  0.3517
  229SOD    SOD22357   6.255   1.376  16.963  0.3704 -0.3393 -0.4593
  230SOD    SOD22358   6.630   4.490  16.517 -0.3814 -0.1921  0.7393
  231SOD    SOD22359   5.275   6.624   0.588  0.0717  0.1367  0.3130
  232SOD    SOD22360   6.069   3.166   2.860 -0.2970  0.0780 -0.8800
  233SOD    SOD22361   6.180   1.982   3.073  0.3921 -0.0931  0.0390
  234SOD    SOD22362   5.963   3.035  15.309  0.3432  0.3509 -0.2118
  235SOD    SOD22363   5.998   4.266  15.584 -0.3594  0.5850 -0.0925
  236SOD    SOD22364   4.640   2.621  16.236  0.6625  0.1428  0.0598
  237SOD    SOD22365   0.067   6.050  11.568 -0.5504 -0.2205 -0.0096
  238SOD    SOD22366   1.559   2.692   2.192 -0.0961  0.3117 -0.0609
  239SOD    SOD22367   4.496   4.832  10.858  0.7055 -0.8112 -0.1461
  240SOD    SOD22368   3.319   2.102  13.799  0.1216  0.0504  0.1882
  241SOD    SOD22369   5.417   2.821   3.073 -0.1436 -0.2453 -0.6478
  242SOD    SOD22370   3.119   2.372  10.849  0.0487 -0.3300  0.5579
  243SOD    SOD22371   1.319   4.726   2.445  0.6800  0.3248  0.2738
  244SOD    SOD22372   5.245   5.187  13.219  0.0133  0.0921  0.6834
  245SOD    SOD22373   1.252   2.219   5.984 -0.2132  0.1676 -0.4667
  246SOD    SOD22374   2.846   4.767   0.398  0.5589 -0.3643  0.0219
  247SOD    SOD22375   3.921   6.470  14.846  0.4041 -0.1715 -0.7307
  248SOD    SOD22376   5.118   4.307  11.951 -0.1661 -0.0727  0.2482
  249SOD    SOD22377   4.486   3.675   0.116 -0.0646 -0.0642  0.1058
  250SOD    SOD22378   2.372   0.484   2.031  0.2028  0.3074  0.3011
  251SOD    SOD22379   0.326   6.553  14.788  0.3175 -0.1206  0.3350
  252SOD    SOD22380   3.568   5.113  13.820 -0.3279 -0.3898  0.1100
  253SOD    SOD22381   3.790   4.806   3.669  0.3379 -0.0273 -0.1796
  254SOD    SOD22382   3.975   5.522   5.306 -0.0804 -0.1496  0.3142
  255SOD    SOD22383   0.654   4.667   6.577 -1.0274  0.0647 -0.0153
  256SOD    SOD22384   5.324   1.331   5.883  0.2425 -0.1201  1.0109
  257SOD    SOD22385   1.910   4.909   3.125 -0.4313  0.4633 -0.6330
  258SOD    SOD22386   5.295   6.486   5.094  0.0348 -0.0470  0.5869
  259SOD    SOD22387   6.801   5.453  11.386 -0.2260  0.1294  0.6836
  260SOD    SOD22388   0.672   0.064  14.186  0.0898  0.1427 -0.4295
  261SOD    SOD22389   2.062   3.879  15.583 -0.6601  0.1800  0.2155
  262SOD    SOD22390   1.507   3.473  12.978 -0.3848  0.1065  0.2112
  263SOD    SOD22391   2.453   0.883  12.620  0.1263  0.2761  0.2263
  264SOD    SOD22392   1.790   0.879  13.129 -0.3310  0.5333 -0.2795
  265SOD    SOD22393   5.481   0.776   4.949 -0.3922 -0.1818 -0.5421
  266CLA    CLA22394   2.582   4.533  16.782  0.0589  0.6043  0.5098
  267CLA    CLA22395   4.437   1.274  16.542 -0.1440  0.3703 -0.0950
  268CLA    CLA22396   0.812   5.649   0.895  0.0081  0.2617  0.3225
  269CLA    CLA22397   5.964   3.968   1.438 -0.4059  0.1933 -0.4402
  270CLA    CLA22398   5.824   0.650   1.130 -0.3937 -0.0806  0.0257
  271CLA    CLA22399   3.230   5.396  13.335  0.4815  0.0630  0.3269
  272CLA    CLA22400   5.239   3.015   3.552 -0.3032  0.1070  0.1022
  273CLA    CLA22401   3.480   4.996  12.831  0.0882  0.2071  0.4353
  274CLA    CLA22402   4.980   6.365  14.955 -0.5623  0.4979  0.4070
  275CLA    CLA22403   6.063   2.764  14.130 -0.4654 -0.0554  0.4685
  276CLA    CLA22404   6.261   5.330   3.820 -0.3722  0.0782  0.2871
  277CLA    CLA22405   3.254   0.558   2.454 -0.0204  0.3715  0.6045
  278CLA    CLA22406   0.218   1.470   1.542 -0.0120 -0.2496  0.0443
  279CLA    CLA22407   1.669   1.441  14.757 -0.2003  0.0651 -0.1359
  280CLA    CLA22408   2.926   3.144  13.113 -0.0163 -0.0270 -0.3778
  281CLA    CLA22409   3.253   2.899   3.705 -0.2489  0.0076 -0.0176
  282CLA    CLA22410   1.416   6.023  13.468  0.3933 -0.1002  0.2220
  283CLA    CLA22411   6.444   0.828  14.259 -0.2927  0.3505 -0.0577
  284CLA    CLA22412   5.949   5.380  16.714  0.1645  0.4659 -0.1990
  285CLA    CLA22413   3.720   4.850  11.514  0.1686 -0.0560  0.0339
  286CLA    CLA22414   4.157   3.848   1.587  0.1606  0.5369  0.0309
  287CLA    CLA22415   6.055   2.709   5.555  0.0665  0.0474 -0.1669
  288CLA    CLA22416   3.659   6.508  16.244  0.0629  0.5428  0.1162
  289CLA    CLA22417   6.566   2.214   0.156 -0.1606  0.1876 -0.1831
  290CLA    CLA22418   0.163   4.148   2.949 -0.0975 -0.2330 -0.1287
  291CLA    CLA22419   4.116   6.341   1.437 -0.6023  0.0480 -0.1306
  292CLA    CLA22420   4.673   3.548  16.651  0.5208 -0.1310 -0.1828
  293CLA    CLA22421   4.769   1.995   4.718  0.0611 -0.5739 -0.0168
  294CLA    CLA22422   0.405   4.446  15.545  0.4789  0.2625  0.0348
  295CLA    CLA22423   1.900   3.946  13.959  0.1627 -0.4096  0.1539
  296CLA    CLA22424   4.736   1.006  12.409 -0.3268 -0.1247  0.1931
  297CLA    CLA22425   2.189   4.767  15.595  0.1913  0.4523 -0.2023
  298CLA    CLA22426   5.582   3.369  15.273  0.1469 -0.0661 -0.3525
  299CLA    CLA22427   5.683   4.952  14.866 -0.0852 -0.7265  0.3848
  300CLA    CLA22428   4.319   5.876  13.954 -0.4486 -0.1307 -0.4321
  301CLA    CLA22429   3.422   3.340  17.009 -0.1454 -0.2510  0.1784
  302CLA    CLA22430   5.498   0.971  14.935  0.0251 -0.2811  0.2846
  303CLA    CLA22431   4.946   0.950  15.857  0.4329 -0.0611  0.1905
  304CLA    CLA22432   0.671   4.625  14.413 -0.4495 -0.0622  0.3815
  305CLA    CLA22433   3.552   2.505  14.249  0.0762  0.3308  0.0110
  306CLA    CLA22434   0.254   4.265  12.153  0.1710  0.4880 -0.0259
  307CLA    CLA22435   4.146   3.680   4.350  0.0402 -0.2761 -0.0688
  308CLA    CLA22436   4.764   4.146  14.869 -0.2217 -0.3287 -0.1239
  309CLA    CLA22437   4.556   2.899  13.421 -0.1891 -0.3094  0.2175
  310CLA    CLA22438   6.630   2.523   3.177 -0.4103 -0.0603 -0.0446
  311CLA    CLA22439   2.708   4.848   2.370 -0.1302 -0.0687  0.2268
  312CLA    CLA22440   0.354   6.471  11.255 -0.3834 -0.3348  0.0134
  313CLA    CLA22441   4.922   2.382   3.121  0.2367  0.2211 -0.1240
  314CLA    CLA22442   1.469   3.120  11.500 -0.3102 -0.1035  0.0036
  315CLA    CLA22443   2.323   0.882  13.197  0.2878  0.1039  0.3487
  316CLA    CLA22444   1.825   1.383   0.392  0.1456  0.0085  0.2104
  317CLA    CLA22445   1.638   5.362  15.092  0.2348 -0.3052  0.2831
  318CLA    CLA22446   5.874   2.966  15.791  0.1498  0.1412 -0.1976
  319TIP3   OH222447   6.382   2.096  17.176  0.1098  0.1078 -0.0127
  319TIP3    H122448   6.331   2.174  17.156  0.3057  0.4686  0.8618
  319TIP3    H222449   6.452   2.127  17.234 -0.1509 -0.8151  0.8165
  320TIP3   OH222450   4.500   5.071   2.467 -0.4828  0.7112 -0.2969
  320TIP3    H122451   4.484   4.990   2.516  0.8972  0.0622 -0.8815
  320TIP3    H222452   4.474   5.049   2.377 -2.5189  1.7309  0.0228
  321TIP3   OH222453   6.513   4.952   5.087  0.0698  0.1366 -0.2651
  321TIP3    H122454   6.558   5.015   5.031  1.1340  0.3157  0.7551
  321TIP3    H222455   6.543   4.973   5.176  0.2073 -1.5787  0.1288
  322TIP3   OH222456   5.035   1.319  13.878  0.5404  0.1020  0.7954
  322TIP3    H122457   5.075   1.351  13.959 -1.8966 -0.3221  2.1838
  322TIP3    H222458   4.974   1.388  13.853  0.9271  0.0086 -0.4450
  323TIP3   OH222459   2.112   1.662  11.893 -0.4179 -0.0322 -0.1487
  323TIP3    H122460   2.065   1.579  11.901 -3.5702  1.6578 -0.4060
  323TIP3    H222461   2.161   1.671  11.975 -0.7413 -1.6826  0.2428
  324TIP3   OH222462   6.790   1.547  13.586 -0.5000  0.4913  0.3213
  324TIP3    H122463   6.752   1.541  13.499 -0.6333 -1.2364  0.4655
  324TIP3    H222464   6.852   1.620  13.582 -0.2594  0.2032 -1.3114
  325TIP3   OH222465   4.597   5.419   5.362  0.2984  0.4147 -0.2535
  325TIP3    H122466   4.515   5.465   5.378  1.3986  2.2304  0.2800
  325TIP3    H222467   4.648   5.434   5.442  2.0871  1.3284 -1.5600
  326TIP3   OH222468   5.739   4.533   2.852 -0.3739 -0.4859  0.9049
  326TIP3    H122469   5.783   4.452   2.878 -1.3349 -0.9435  1.1192
  326TIP3    H222470   5.710   4.572   2.934  0.1470  0.1230  0.8086
  327TIP3   OH222471   3.395   5.496  13.066 -0.2809  0.6329  0.0522
  327TIP3    H122472   3.347   5.464  13.143 -0.1309  1.8483  0.6583
  327TIP3    H222473   3.336   5.476  12.992 -0.0254 -1.3789  0.3466
  328TIP3   OH222474   4.866   1.036   4.088  0.3796  0.1328  0.4813
  328TIP3    H122475   4.899   1.107   4.034  0.4521  1.1486  1.8184
  328TIP3    H222476   4.945   0.989   4.118  0.3254 -0.5955 -0.5039
  329TIP3   OH222477   0.855   4.158  14.480  0.3709  0.0464  0.2070
  329TIP3    H122478   0.913   4.222  14.441 -0.3432  0.3433 -0.3674
  329TIP3    H222479   0.783   4.209  14.518  0.5424 -0.3055  1.0343
  330TIP3   OH222480   3.679   6.172   1.075  0.5499  0.2718  0.2342
  330TIP3    H122481   3.686   6.085   1.115 -2.4032  0.0201  0.3199
  330TIP3    H222482   3.713   6.232   1.141  0.5738 -0.6159  1.0390
  331TIP3   OH222483   5.707   0.392  11.958 -0.1204 -0.5223 -0.4229
  331TIP3    H122484   5.706   0.388  12.054  1.1491  1.6228 -0.2792
  331TIP3    H222485   5.628   0.441  11.935 -0.0034 -0.3302 -0.4186
  332TIP3   OH222486   6.792   1.286  16.669 -0.7176 -0.5909 -0.1677
  332TIP3    H122487   6.707   1.286  16.626  0.1535  0.0918 -1.9536
  332TIP3    H222488   6.855   1.269  16.599  0.6698 -0.5304  1.0197
  333TIP3   OH222489   0.842   5.020  11.391 -0.5203  0.6503 -0.3273
  333TIP3    H122490   0.896   4.985  11.320 -2.7654 -2.1534 -0.7533
  333TIP3    H222491   0.768   5.062  11.347 -1.3793 -0.1683  0.3168
  334TIP3   OH222492   4.560   4.850  16.573 -0.4289 -0.6283 -0.3057
  334TIP3    H122493   4.641   4.868  16.620 -1.1427  2.2122 -0.0830
  334TIP3    H222494   4.499   4.822  16.640 -0.2118 -0.7694 -0.1668
  335TIP3   OH222495   6.686   0.341   2.263 -0.2447  0.2488 -0.2789
  335TIP3    H122496   6.647   0.268   2.216  1.2367 -0.8798  0.2066
  335TIP3    H222497   6.764   0.364   2.212  1.1375 -0.7062  1.3472
  336TIP3   OH222498   2.722   4.378  11.232  0.2707  0.2411 -0.2094
  336TIP3    H122499   2.631   4.403  11.247 -0.1766  0.4132 -2.8679
  336TIP3    H222500   2.718   4.286  11.205  0.6595  0.7341 -2.0412
  337TIP3   OH222501   2.399   1.057   0.782 -0.1037 -0.4854  0.8138
  337TIP3    H122502   2.382   1.102   0.700  2.1022  0.4839  0.8435
  337TIP3    H222503   2.360   0.971   0.771  0.7452 -0.6089 -1.5342
  338TIP3   OH222504   6.427   6.704   1.834 -0.0161 -0.0226  0.4549
  338TIP3    H122505   6.441   6.719   1.927  2.2402  0.9860 -0.0281
  338TIP3    H222506   6.464   6.617   1.817 -0.0743 -0.0390  0.4082
  339TIP3   OH222507   0.743   6.091   3.260 -0.7657  0.2603 -0.0145
  339TIP3    H122508   0.761   6.027   3.329 -2.2732 -0.0525  0.1181
  339TIP3    H222509   0.677   6.149   3.298  0.0981  1.4857 -0.3810
  340TIP3   OH222510   6.819   2.793  16.649 -0.1127 -0.3457  0.2964
  340TIP3    H122511   6.842   2.875  16.694 -0.9471 -0.0352  0.1654
  340TIP3    H222512   6.866   2.797  16.566 -0.5776  0.2512  0.0620
  341TIP3   OH222513   4.298   1.770  11.507 -0.0440 -0.3782  0.3181
  341TIP3    H122514   4.275   1.677  11.500 -0.2516 -0.4010  1.2117
  341TIP3    H222515   4.361   1.785  11.436  0.0263 -1.2149  0.1989
  342TIP3   OH222516   3.535   2.321  11.312 -0.3951 -0.1895  0.4329
  342TIP3    H122517   3.476   2.396  11.310 -0.1743 -0.0078  0.6449
  342TIP3    H222518   3.517   2.274  11.231  1.7248  1.8759 -1.3200
  343TIP3   OH222519   2.412   3.522   5.373 -0.2544  0.5873 -0.3623
  343TIP3    H122520   2.420   3.428   5.354  0.7112  0.6463 -0.2890
  343TIP3    H222521   2.494   3.559   5.340 -1.4455  1.6983 -2.1501
  344TIP3   OH222522   1.856   6.265  15.102 -0.0576 -0.3544  0.3123
  344TIP3    H122523   1.941   6.232  15.075 -0.6126 -1.4340 -0.1305
  344TIP3    H222524   1.876   6.345  15.151  1.2446 -0.9926  0.8410
  345TIP3   OH222525   4.739   0.412  13.984  0.2840 -0.1922 -0.3599
  345TIP3    H122526   4.776   0.498  14.000 -0.9259  0.3118 -0.2176
  345TIP3    H222527   4.687   0.422  13.905  0.7682 -0.9902 -0.7853
  346TIP3   OH222528   2.060   3.537   3.866 -0.0169  0.4721  0.0037
  346TIP3    H122529   2.079   3.503   3.779  1.0486  0.6985  0.1362
  346TIP3    H222530   2.053   3.632   3.853 -0.5428  0.4393  0.0478
  347TIP3   OH222531   0.895   3.804  15.798  0.1089  0.3727 -0.3251
  347TIP3    H122532   0.977   3.756  15.807  0.1082  0.4458  0.0838
  347TIP3    H222533   0.900   3.844  15.711 -0.0729 -0.6991 -0.8305
  348TIP3   OH222534   3.716   1.098  14.512  0.1117  0.7688 -0.0238
  348TIP3    H122535   3.723   1.159  14.586  3.0443 -2.3136  2.4040
  348TIP3    H222536   3.788   1.121  14.454 -0.2589  1.1681 -0.3236
  349TIP3   OH222537   4.865   3.701   3.021 -0.8540  0.0988 -0.3778
  349TIP3    H122538   4.911   3.649   3.088  1.0880  1.4785 -0.5912
  349TIP3    H222539   4.773   3.681   3.035 -0.3197 -1.4702  1.1792
  350TIP3   OH222540   2.957   2.418  16.901 -0.0069 -0.1497  0.0324
  350TIP3    H122541   2.901   2.346  16.873  0.2858  0.2443 -1.6097
  350TIP3    H222542   3.010   2.382  16.972 -3.1595 -0.1828  2.4385
  351TIP3   OH222543   3.954   1.404  13.348  0.5607  0.4822  0.5928
  351TIP3    H122544   3.952   1.491  13.310  0.2538 -0.3303 -1.3039
  351TIP3    H222545   3.872   1.398  13.398 -0.4558  0.5486 -1.0161
  352TIP3   OH222546   6.737   3.163  11.257 -0.3950  0.2069 -0.6613
  352TIP3    H122547   6.720   3.250  11.292  1.3054  0.5330 -0.5909
  352TIP3    H222548   6.753   3.178  11.164  0.4906  0.0604 -0.5379
  353TIP3   OH222549   0.470   1.521  15.033 -0.1410 -0.1549  0.3589
  353TIP3    H122550   0.428   1.583  14.973 -0.6092  0.1356  0.9791
  353TIP3    H222551   0.397   1.470  15.068  0.1262 -0.2787  0.7353
  354TIP3   OH222552   2.168   4.079   2.995 -0.7589  0.3873  0.4396
  354TIP3    H122553   2.196   4.097   2.906 -0.7602 -1.1641  0.1091
  354TIP3    H222554   2.078   4.111   2.999 -0.2827  1.7661  0.3222
  355TIP3   OH222555   3.732   1.876   4.838  0.5606  0.1262  0.6260
  355TIP3    H122556   3.749   1.886   4.932  0.3970  1.6013  0.5091
  355TIP3    H222557   3.806   1.824   4.806  0.5315 -0.5284  1.5969
  356TIP3   OH222558   0.600   3.531   0.250 -0.5957  0.0937  0.3785
  356TIP3    H122559   0.577   3.593   0.320  0.6095  0.0825  0.8004
  356TIP3    H222560   0.534   3.462   0.257 -0.8657  0.4121  1.1008
  357TIP3   OH222561   4.169   6.746  10.610 -0.1698 -0.3475 -0.0181
  357TIP3    H122562   4.172   6.835  10.575  1.0322 -0.6264 -0.6334
  357TIP3    H222563   4.094   6.747  10.670 -0.0636  1.1272  0.1178
  358TIP3   OH222564   3.333   0.699   3.601 -0.4710 -0.3807 -0.9960
  358TIP3    H122565   3.294   0.744   3.526 -0.9255  2.2653  0.7418
  358TIP3    H222566   3.372   0.769   3.653 -1.2500 -1.9901  1.8672
  359TIP3   OH222567   1.208   5.806  13.375 -0.0881 -0.1507  0.5779
  359TIP3    H122568   1.252   5.816  13.291  2.0708 -0.1831  1.6642
  359TIP3    H222569   1.246   5.875  13.430 -0.2566 -1.1562  1.9949
  360TIP3   OH222570   5.821   3.907   3.033 -0.1199  0.4576  0.1991
  360TIP3    H122571   5.735   3.887   3.070 -1.1923  0.2022 -2.2953
  360TIP3    H222572   5.868   3.824   3.033 -1.6729 -0.4939 -2.8474
  361TIP3   OH222573   4.752   0.383   2.338 -0.2745 -0.2039 -0.1464
  361TIP3    H122574   4.760   0.478   2.350 -0.3079 -0.0123 -1.6156
  361TIP3    H222575   4.781   0.367   2.249 -0.6278 -1.5400 -0.0376
  362TIP3   OH222576   5.189   2.163  16.873  0.4886  0.0942  0.1969
  362TIP3    H122577   5.246   2.237  16.893 -0.1199  0.7354 -0.4473
  362TIP3    H222578   5.105   2.186  16.913 -0.8864  1.5932 -3.4090
  363TIP3   OH222579   3.424   6.198   2.282  0.9657 -0.3935  0.5224
  363TIP3    H122580   3.354   6.247   2.325 -0.5097 -3.2733  1.5282
  363TIP3    H222581   3.505   6.234   2.320 -0.0414  1.3004  1.1414
  364TIP3   OH222582   1.487   1.363   2.818  0.5404  0.0046 -0.6795
  364TIP3    H122583   1.507   1.455   2.831 -0.4932  0.2530 -0.8348
  364TIP3    H222584   1.562   1.317   2.857 -0.6268  0.8190  2.6611
  365TIP3   OH222585   5.832   4.129  16.483  0.2291 -0.7890  0.3231
  365TIP3    H122586   5.857   4.200  16.424  1.2713 -1.3802  0.0339
  365TIP3    H222587   5.843   4.050  16.431  0.1367 -1.2412  0.9896
  366TIP3   OH222588   1.230   2.309  12.562  0.0975 -0.2950  0.2344
  366TIP3    H122589   1.205   2.262  12.642  0.5005 -0.1193  0.4623
  366TIP3    H222590   1.148   2.316  12.513 -0.4264  0.7375  1.2240
  367TIP3   OH222591   2.651   3.439   4.484 -0.1850  0.2718  0.0947
  367TIP3    H122592   2.731   3.453   4.536  0.2977 -1.7934 -0.0530
  367TIP3    H222593   2.612   3.361   4.521 -2.3451  1.4502  0.3654
  368TIP3   OH222594   5.927   2.122  12.214  0.0650  0.7818  0.7998
  368TIP3    H122595   5.927   2.035  12.254  0.4102  0.1213 -0.6028
  368TIP3    H222596   6.015   2.156  12.230  0.2700  0.4318  0.4201
  369TIP3   OH222597   6.464   1.572  13.672  0.3744  0.4007  0.2580
  369TIP3    H122598   6.511   1.655  13.678 -0.3154  0.8069  0.1528
  369TIP3    H222599   6.501   1.518  13.741 -0.7435  1.5974  1.8216
  370TIP3   OH222600   3.103   6.463   6.057 -0.3286 -0.4367  0.1132
  370TIP3    H122601   3.042   6.536   6.044 -0.0775 -0.0083  1.2691
  370TIP3    H222602   3.190   6.502   6.052 -0.0341 -1.3859 -3.6171
  371TIP3   OH222603   2.694   6.690  11.204 -0.1338 -0.0892 -0.3694
  371TIP3    H122604   2.748   6.700  11.282 -1.5756  1.4086  0.4698
  371TIP3    H222605   2.647   6.607  11.217  0.5780 -0.4746 -0.2521
  372TIP3   OH222606   0.266   5.674  13.814  0.5379 -0.5418 -0.1408
  372TIP3    H122607   0.251   5.579  13.813  1.5657 -0.7192  0.4911
  372TIP3    H222608   0.359   5.684  13.795  0.6277  0.3030  0.7018
  373TIP3   OH222609   0.902   3.206  13.253 -0.2543  0.9948  0.2516
  373TIP3    H122610   0.958   3.153  13.310 -1.3615  0.5758  0.9745
  373TIP3    H222611   0.949   3.289  13.245  1.6416 -0.1781 -1.1426
  374TIP3   OH222612   3.849   2.375   5.842  0.3162 -0.2398 -0.2379
  374TIP3    H122613   3.925   2.351   5.895 -0.3026 -0.9385  0.3468
  374TIP3    H222614   3.829   2.464   5.869 -0.2500 -0.7401  1.0184
  375TIP3   OH222615   3.648   3.282   1.868 -0.1346  0.1188 -0.1192
  375TIP3    H122616   3.663   3.369   1.906 -2.7204  0.9923 -0.9975
  375TIP3    H222617   3.643   3.298   1.774 -0.4372 -1.0243 -0.3004
  376TIP3   OH222618   4.226   5.662  16.447 -0.3724  0.0533 -0.3921
  376TIP3    H122619   4.238   5.683  16.355  2.3240  2.0455  0.3530
  376TIP3    H222620   4.290   5.593  16.464 -1.9556 -1.4302 -0.3515
  377TIP3   OH222621   1.727   2.533  13.215  0.2053  0.4988  0.2977
  377TIP3    H122622   1.796   2.501  13.274  0.7346  0.0285 -0.5619
  377TIP3    H222623   1.769   2.535  13.129 -0.3066  1.9648  0.0647
  378TIP3   OH222624   4.672   4.513  12.060  0.7685  0.2878  0.1137
  378TIP3    H122625   4.673   4.523  11.965  1.6718  0.0305  0.0875
  378TIP3    H222626   4.588   4.549  12.087  1.0569  1.5827 -0.6519
  379TIP3   OH222627   5.440   2.519   1.838  0.2826  0.5313 -0.2201
  379TIP3    H122628   5.437   2.501   1.744 -0.3402  2.0139 -0.5090
  379TIP3    H222629   5.524   2.562   1.852  0.2203  0.6350 -0.1589
  380TIP3   OH222630   5.823   1.473  15.691  0.0065 -0.1749  0.0789
  380TIP3    H122631   5.891   1.496  15.628 -1.1690 -0.0885 -1.1695
  380TIP3    H222632   5.741   1.500  15.650 -0.8262 -0.6136  1.4090
  381TIP3   OH222633   6.616   4.564   2.411  0.5589 -0.1978 -0.0150
  381TIP3    H122634   6.689   4.516   2.450 -0.5126 -0.4558  1.7330
  381TIP3    H222635   6.600   4.520   2.328  0.7838 -1.7327  0.7283
  382TIP3   OH222636   4.257   0.759   0.558 -0.3395 -0.0478  0.2218
  382TIP3    H122637   4.198   0.691   0.589 -1.9770  2.5827  3.2261
  382TIP3    H222638   4.209   0.841   0.573  2.9570  1.9906  0.1603
  383TIP3   OH222639   2.770   5.880  14.021  0.1864  0.2086 -0.1106
  383TIP3    H122640   2.819   5.961  14.011  0.4084  0.1891  0.7211
  383TIP3    H222641   2.817   5.817  13.967  1.4273  0.0529  1.1101
  384TIP3   OH222642   0.455   2.469   3.131 -0.2847 -0.5218  0.2526
  384TIP3    H122643   0.365   2.448   3.155  0.1077 -0.3630  1.9391
  384TIP3    H222644   0.496   2.495   3.213  1.4451 -1.0838 -0.4143
  385TIP3   OH222645   4.944   3.670   6.757  0.0049  0.1311  0.1514
  385TIP3    H122646   4.941   3.623   6.674 -0.5119  0.2883  0.0793
  385TIP3    H222647   4.986   3.754   6.736  0.7110 -0.1941  0.2346
  386TIP3   OH222648   3.847   6.525  12.722  0.2559 -0.4831 -0.2315
  386TIP3    H122649   3.767   6.498  12.768 -0.4690  0.6950 -0.7582
  386TIP3    H222650   3.863   6.614  12.754 -0.4979  0.5201 -2.5671
  387TIP3   OH222651   2.349   0.212  11.251 -0.1117  0.0316  0.0331
  387TIP3    H122652   2.262   0.216  11.213 -0.5579  0.1855  1.0638
  387TIP3    H222653   2.397   0.150  11.195 -0.3692  1.1909 -1.5211
  388TIP3   OH222654   1.619   4.696  15.535  0.0797 -0.2088 -0.4434
  388TIP3    H122655   1.704   4.709  15.575 -0.0502  1.2800 -0.6377
  388TIP3    H222656   1.629   4.728  15.445 -0.6186 -0.2703 -0.5497
  389TIP3   OH222657   5.383   3.574   0.731  0.4447  0.1613  0.0271
  389TIP3    H122658   5.349   3.487   0.755  1.0368  0.6193  2.7405
  389TIP3    H222659   5.315   3.611   0.674  0.0613 -1.9583 -0.9371
  390TIP3   OH222660   5.644   1.729   5.153 -0.3642 -0.2655 -0.2544
  390TIP3    H122661   5.674   1.817   5.131  0.3734  0.1607  2.2303
  390TIP3    H222662   5.570   1.742   5.212 -1.1999 -1.3132 -1.0525
  391TIP3   OH222663   1.120   4.847  13.725 -0.2969 -0.9876 -0.0809
  391TIP3    H122664   1.103   4.910  13.796  0.7238  0.1163 -0.8053
  391TIP3    H222665   1.207   4.870  13.693 -0.4250 -1.9955 -1.1657
  392TIP3   OH222666   4.712   0.669   0.060  0.1149 -0.0851  0.4123
  392TIP3    H122667   4.686   0.713  -0.021  0.3016 -1.8081 -0.6141
  392TIP3    H222668   4.640   0.608   0.079 -0.6141  1.3307  2.3608
  393TIP3   OH222669   3.460   0.678  16.051 -0.8240  0.2452 -0.3095
  393TIP3    H122670   3.526   0.642  15.993 -0.0662  1.2724 -0.0957
  393TIP3    H222671   3.509   0.731  16.114 -1.9852  2.7816 -1.4497
  394TIP3   OH222672   5.469   6.378  12.995 -0.5950 -0.4119 -1.1367
  394TIP3    H122673   5.457   6.287  12.970 -1.0939  0.1846 -3.1393
  394TIP3    H222674   5.384   6.419  12.982 -0.4253  0.3205 -0.0905
  395TIP3   OH222675   5.456   4.548  11.832 -0.0767 -0.5650  0.0767
  395TIP3    H122676   5.442   4.563  11.739  1.9555 -1.2772 -0.3817
  395TIP3    H222677   5.447   4.634  11.872  1.0530  0.1192 -1.0880
  396TIP3   OH222678   5.083   3.552  12.224 -0.0649  0.0099  0.0065
  396TIP3    H122679   5.016   3.492  12.190  0.9372 -0.9282 -0.3543
  396TIP3    H222680   5.124   3.589  12.146  0.0046  0.3882  0.2213
  397TIP3   OH222681   3.631   4.751   2.598 -0.1588 -0.1990 -0.2218
  397TIP3    H122682   3.614   4.657   2.600 -2.8777  0.2002 -1.4457
  397TIP3    H222683   3.629   4.778   2.690  1.3703 -1.4323  0.1881
  398TIP3   OH222684   6.371   1.500  17.107  0.5182 -0.0521 -1.2225
  398TIP3    H122685   6.381   1.524  17.199 -1.1436  0.5548 -1.1814
  398TIP3    H222686   6.457   1.516  17.069  0.9960  0.4996  0.0419
  399TIP3   OH222687   0.389   4.805   4.580  0.1132  0.5727  0.3704
  399TIP3    H122688   0.407   4.883   4.528  1.1869 -0.6152 -1.0836
  399TIP3    H222689   0.463   4.798   4.640 -0.0696  0.7593  0.6206
  400TIP3   OH222690   5.396   3.837  16.784 -0.6936  0.1747 -0.9086
  400TIP3    H122691   5.319   3.809  16.735 -2.3860 -1.6223  2.5849
  400TIP3    H222692   5.376   3.927  16.811 -1.9122 -0.5110  0.5411
  401TIP3   OH222693   3.530   6.619  11.712  0.0486 -0.1113 -0.7389
  401TIP3    H122694   3.469   6.662  11.652  1.2421  0.5256 -1.5231
  401TIP3    H222695   3.574   6.691  11.757  0.6703 -0.5528 -0.6370
  402TIP3   OH222696   5.155   1.669  10.699  0.1823 -0.2744 -0.0644
  402TIP3    H122697   5.242   1.631  10.693 -0.0215 -0.6848 -0.4680
  402TIP3    H222698   5.165   1.758  10.665  0.8103  0.2977  1.5681
  403TIP3   OH222699   1.136   5.673   4.938 -0.2134  0.6087 -0.0322
  403TIP3    H122700   1.210   5.613   4.943  0.3837  1.2827 -0.5945
  403TIP3    H222701   1.175   5.760   4.947 -0.9790  0.9496  0.0427
  404TIP3   OH222702   4.344   2.940   6.293 -0.1498 -0.7975 -0.0253
  404TIP3    H122703   4.395   2.957   6.372  0.3693 -2.2710 -0.0270
  404TIP3    H222704   4.256   2.919   6.324 -0.1083 -0.7347  0.1309
  405TIP3   OH222705   5.344   3.622  17.257 -0.4228  0.9354  0.9367
  405TIP3    H122706   5.416   3.653  17.202  0.2458 -1.9693  0.1090
  405TIP3    H222707   5.383   3.613  17.344 -0.0302  0.2469  0.6900
  406TIP3   OH222708   1.926   4.979   1.065  0.1444 -0.2428  0.8186
  406TIP3    H122709   1.981   5.018   0.997 -0.5763  1.2555  1.0673
  406TIP3    H222710   1.875   5.052   1.099  0.6528 -0.9311  3.1533
  407TIP3   OH222711   5.430   1.184   1.327  0.5440 -0.3297  0.2106
  407TIP3    H122712   5.464   1.273   1.339  0.0759  0.1190 -1.5592
  407TIP3    H222713   5.410   1.154   1.415  2.1225  0.7579  0.9690
  408TIP3   OH222714   0.836   2.003  13.560  0.2492  0.2592  0.0979
  408TIP3    H122715   0.765   1.983  13.500 -0.6631  2.1212  0.5283
  408TIP3    H222716   0.865   1.917  13.592 -1.7897 -0.5227 -0.0831
  409TIP3   OH222717   1.112   4.513  16.867 -0.1823 -0.1540 -0.1154
  409TIP3    H122718   1.142   4.542  16.780 -0.6123  0.1213 -0.1728
  409TIP3    H222719   1.193   4.500  16.916  0.0569 -0.0109 -0.4634
  410TIP3   OH222720   1.143   0.862  11.691  0.4920  0.4201  0.4548
  410TIP3    H122721   1.235   0.865  11.666  0.7097 -1.4541  0.9321
  410TIP3    H222722   1.097   0.844  11.609  0.6144  0.7186  0.3211
  411TIP3   OH222723   0.557   1.221  17.153  0.6895 -0.6381 -0.0257
  411TIP3    H122724   0.628   1.251  17.097 -0.3258 -0.6969 -1.3775
  411TIP3    H222725   0.594   1.221  17.241  2.4381 -0.9457 -0.7391
  412TIP3   OH222726   1.605   0.337   6.682 -0.2237  0.2215  0.6142
  412TIP3    H122727   1.699   0.352   6.691 -0.0487  1.4978 -2.6387
  412TIP3    H222728   1.598   0.259   6.628 -0.9898  0.9938 -0.4259
  413TIP3   OH222729   0.761   6.126   3.832 -0.3479 -0.4949 -0.3130
  413TIP3    H122730   0.684   6.088   3.874  0.3572 -1.2807  0.2785
  413TIP3    H222731   0.833   6.068   3.855  0.1990 -0.5342 -2.0042
  414TIP3   OH222732   1.614   3.416  15.850 -0.2698  0.1614 -0.1325
  414TIP3    H122733   1.620   3.405  15.755  0.7745 -1.0492  0.0662
  414TIP3    H222734   1.661   3.498  15.867  0.5073 -0.1957 -0.5386
  415TIP3   OH222735   4.113   0.398   3.476 -0.4126  0.5854  0.2990
  415TIP3    H122736   4.029   0.439   3.454 -0.7058 -0.1977 -0.0791
  415TIP3    H222737   4.121   0.326   3.414  0.1046  0.0820  0.9433
  416TIP3   OH222738   3.044   5.456  16.670  0.7094 -0.5138 -0.1519
  416TIP3    H122739   3.003   5.415  16.594  0.7026 -2.5470  0.9234
  416TIP3    H222740   2.989   5.430  16.744  0.1368  2.2749  0.4340
  417TIP3   OH222741   1.454   1.670   2.840  0.1320 -0.3737 -0.1264
  417TIP3    H122742   1.486   1.679   2.751  0.6598 -0.2465  0.0744
  417TIP3    H222743   1.387   1.739   2.848 -0.9632 -1.3248 -0.8763
  418TIP3   OH222744   0.741   5.218  13.831 -0.7227 -0.0088  0.1254
  418TIP3    H122745   0.822   5.245  13.787 -0.1556 -1.2495  0.3839
  418TIP3    H222746   0.693   5.168  13.765 -1.2173  0.6150  0.0139
  419TIP3   OH222747   2.486   2.728  14.021  0.1891 -0.1587  0.8248
  419TIP3    H122748   2.532   2.668  13.964 -1.3051 -1.4320  0.9289
  419TIP3    H222749   2.402   2.686  14.039 -0.3974  1.3827  1.8951
  420TIP3   OH222750   4.920   4.974   5.989  0.5076 -0.1355 -0.6283
  420TIP3    H122751   4.887   5.041   6.049  0.7707 -0.1991 -0.4092
  420TIP3    H222752   4.865   4.981   5.911  0.4296  0.2243 -0.5388
  421TIP3   OH222753   5.467   2.527  11.551  0.0147  0.4430 -0.0907
  421TIP3    H122754   5.382   2.488  11.532  1.0956 -1.0812 -2.0326
  421TIP3    H222755   5.520   2.456  11.587  0.8739  1.0356 -0.1423
  422TIP3   OH222756   2.248   0.533   4.871 -0.4488  0.0149 -0.3595
  422TIP3    H122757   2.171   0.495   4.827 -0.0661 -1.2101  0.0093
  422TIP3    H222758   2.216   0.557   4.958 -0.6614  0.4353 -0.5505
  423TIP3   OH222759   3.910   5.479   3.845  0.6103 -0.2653 -0.0299
  423TIP3    H122760   3.916   5.564   3.801 -1.0063 -0.8750 -1.4683
  423TIP3    H222761   3.830   5.440   3.811  1.5488 -2.5506  0.3126
  424TIP3   OH222762   2.511   0.118  17.024 -0.2210  0.6033  0.0411
  424TIP3    H122763   2.427   0.164  17.023 -0.3874  0.3536  1.3913
  424TIP3    H222764   2.491   0.032  17.062 -0.0484 -0.8826 -3.0394
  425TIP3   OH222765   2.009   4.220   6.010 -0.3092  0.1032  0.3276
  425TIP3    H122766   2.071   4.164   6.057 -2.4894 -1.2139  1.7142
  425TIP3    H222767   2.057   4.248   5.932  2.1015 -0.6849  1.4601
  426TIP3   OH222768   1.710   4.109  15.322 -0.1749  0.5103 -0.0734
  426TIP3    H122769   1.686   4.020  15.297 -0.7565  0.9097 -0.9735
  426TIP3    H222770   1.662   4.125  15.404  1.4405 -0.6701  1.1138
  427TIP3   OH222771   5.847   3.268   5.305 -0.3803  0.2677 -0.6156
  427TIP3    H122772   5.863   3.357   5.336  1.4120 -0.2046 -0.1581
  427TIP3    H222773   5.770   3.276   5.248 -1.6557  1.7065  1.2416
  428TIP3   OH222774   3.047   0.484   0.278 -0.2641  0.4514 -0.0265
  428TIP3    H122775   3.025   0.393   0.257  0.5005  0.7800 -2.3917
  428TIP3    H222776   3.072   0.482   0.370 -0.3768 -1.7142 -0.0182
  429TIP3   OH222777   1.423   4.116   5.913 -0.1319 -0.4652  1.1119
  429TIP3    H122778   1.496   4.150   5.964  0.0925  0.3368  0.2713
  429TIP3    H222779   1.362   4.189   5.906 -0.3424 -0.6880  0.5845
  430TIP3   OH222780   0.933   1.890   3.445 -0.9191  0.3354 -0.9626
  430TIP3    H122781   0.924   1.933   3.360 -1.2620  0.4983 -0.8455
  430TIP3    H222782   0.993   1.947   3.494  1.6095 -1.2532 -2.0771
  431TIP3   OH222783   5.400   0.741  16.591 -0.6230  0.2268 -0.4738
  431TIP3    H122784   5.349   0.773  16.516 -1.5915 -0.4282 -0.1072
  431TIP3    H222785   5.335   0.727  16.660 -0.0247 -1.1794 -0.1802
  432TIP3   OH222786   2.896   0.812   5.358 -0.3395 -0.5301  0.2782
  432TIP3    H122787   2.927   0.780   5.273  2.9392  1.0329  0.7683
  432TIP3    H222788   2.801   0.807   5.353 -0.1469 -2.4345 -2.6983
  433TIP3   OH222789   1.405   0.868  16.847  0.1089  0.1791 -0.1527
  433TIP3    H122790   1.422   0.792  16.791 -1.6338  0.8546 -1.6548
  433TIP3    H222791   1.465   0.935  16.815 -0.6045  0.4369 -0.9777
  434TIP3   OH222792   6.041   4.245  16.885  0.5871  0.4741 -0.4695
  434TIP3    H122793   6.115   4.262  16.943  0.0140 -0.5613  0.5786
  434TIP3    H222794   5.988   4.180  16.931  0.1135 -0.3746 -2.1504
  435TIP3   OH222795   2.666   1.474  13.756  0.7611 -0.2963  0.1577
  435TIP3    H122796   2.602   1.442  13.820 -0.3648  0.4038 -0.6043
  435TIP3    H222797   2.751   1.458  13.797  0.1030 -1.3745  1.1152
  436TIP3   OH222798   3.936   1.340   0.288 -0.2273 -0.1495  0.4005
  436TIP3    H122799   3.894   1.329   0.374 -1.0145  0.2028  0.0729
  436TIP3    H222800   3.864   1.365   0.230  0.3059 -0.3721 -0.3611
  437TIP3   OH222801   3.925   4.886   6.431 -0.3637 -0.1039 -0.3945
  437TIP3    H122802   4.003   4.835   6.409 -0.4368 -1.0398  1.3537
  437TIP3    H222803   3.866   4.823   6.473 -2.4656  0.3805 -2.5149
  438TIP3   OH222804   1.557   3.121  15.735 -0.4648 -0.0184 -0.9502
  438TIP3    H122805   1.507   3.147  15.812  1.0710 -0.9293  0.3973
  438TIP3    H222806   1.539   3.027  15.725 -1.3287  0.2818 -2.2150
  439TIP3   OH222807   6.636   0.256   6.039 -0.3104  0.7926 -0.2910
  439TIP3    H122808   6.691   0.246   6.117 -0.4693 -0.1753 -0.2982
  439TIP3    H222809   6.664   0.340   6.001  0.4202  0.8223  0.2926
  440TIP3   OH222810   3.080   2.196   1.789  0.3242  0.6480  0.0592
  440TIP3    H122811   3.127   2.183   1.871  0.8700  1.0314 -0.1923
  440TIP3    H222812   3.056   2.107   1.761  0.9986  0.4384  0.1327
  441TIP3   OH222813   6.136   1.932   6.097  0.5659 -0.3855  0.0434
  441TIP3    H122814   6.211   1.952   6.153 -0.3484  1.3995  0.6486
  441TIP3    H222815   6.071   1.896   6.157  0.1058  0.2042 -0.1041
  442TIP3   OH222816   3.595   6.510  11.463  0.4339 -0.0449  0.0509
  442TIP3    H122817   3.682   6.551  11.464  1.1773 -1.5820 -0.8368
  442TIP3    H222818   3.571   6.503  11.556  1.0433  0.7925  0.2838
  443TIP3   OH222819   1.000   1.822   2.604  0.3047  0.1763 -0.4263
  443TIP3    H122820   0.999   1.901   2.551 -1.4297 -0.0258 -0.7244
  443TIP3    H222821   1.069   1.837   2.669  2.4093  0.4299 -2.6761
  444TIP3   OH222822   1.423   6.488   4.490 -0.1918  0.2256  0.0409
  444TIP3    H122823   1.496   6.475   4.551  0.7577 -0.5870 -1.2539
  444TIP3    H222824   1.447   6.437   4.413 -2.1073  0.0199 -0.4284
  445TIP3   OH222825   6.723   5.183  12.203 -0.0740  0.2547  0.0056
  445TIP3    H122826   6.733   5.213  12.113 -0.8116 -0.9002 -0.4779
  445TIP3    H222827   6.808   5.148  12.227  0.3479  1.2967  0.0310
  446TIP3   OH222828   0.730   1.906   1.815 -0.1120 -0.0255 -0.3061
  446TIP3    H122829   0.773   1.848   1.878 -0.5296  0.6054  0.5748
  446TIP3    H222830   0.653   1.857   1.786 -2.3600  1.3560  2.9765
  447TIP3   OH222831   4.525   4.797   3.435  0.1639 -0.1370  0.0315
  447TIP3    H122832   4.460   4.861   3.405  0.4326 -0.1449 -0.5603
  447TIP3    H222833   4.595   4.800   3.370  1.2138  0.5465  1.1646
  448TIP3   OH222834   5.628   2.043  15.743  0.1240  0.1810 -0.0312
  448TIP3    H122835   5.689   2.034  15.816  1.7450 -1.8570 -1.5802
  448TIP3    H222836   5.541   2.041  15.783  0.9506 -2.5190  1.7000
  449TIP3   OH222837   5.143   2.608   1.766  0.0859 -0.4979  0.3257
  449TIP3    H122838   5.133   2.600   1.861 -2.0048 -1.8405  0.0089
  449TIP3    H222839   5.238   2.617   1.753  0.8346 -4.6011  2.2402
  450TIP3   OH222840   2.741   5.967  12.374 -0.1990 -0.2321 -0.1304
  450TIP3    H122841   2.668   6.019  12.409  1.2156  1.0605  0.9794
  450TIP3    H222842   2.819   6.019  12.394  1.0070 -1.4022 -1.6523
  451TIP3   OH222843   5.314   6.356   5.287 -0.0973  0.0665 -0.7690
  451TIP3    H122844   5.249   6.288   5.267  1.2558 -0.9410 -1.7890
  451TIP3    H222845   5.392   6.307   5.312  1.0096  1.2426 -1.8891
  452TIP3   OH222846   0.836   5.435   1.411  0.3979  0.3225  0.1098
  452TIP3    H122847   0.786   5.369   1.364  0.4234  0.3670  0.0189
  452TIP3    H222848   0.881   5.484   1.342  1.1613 -0.1993  0.2316
  453TIP3   OH222849   2.624   6.518  12.269  0.8916 -0.3520 -0.0937
  453TIP3    H122850   2.706   6.480  12.234  0.7144 -3.5152  2.7207
  453TIP3    H222851   2.644   6.538  12.360 -1.8502 -2.4094  1.0028
  454TIP3   OH222852   0.997   2.178  13.389 -0.2329  0.2647  0.3828
  454TIP3    H122853   1.091   2.182  13.405 -0.1386 -0.4046  0.0267
  454TIP3    H222854   0.966   2.106  13.444 -0.0700 -1.3810 -1.6009
  455TIP3   OH222855   5.750   5.547  11.843  0.3412  0.0417 -0.0798
  455TIP3    H122856   5.687   5.576  11.909 -0.1427 -0.8119 -0.1671
  455TIP3    H222857   5.767   5.456  11.864  1.2335  0.1532 -0.3111
  456TIP3   OH222858   2.185   5.519  15.701  0.4225 -0.6176 -0.7879
  456TIP3    H122859   2.146   5.589  15.649 -2.9164 -0.6148  1.5229
  456TIP3    H222860   2.162   5.439  15.654  0.8882 -0.3766 -1.4229
  457TIP3   OH222861   0.407   3.300   0.336 -0.2927  0.1135  0.0270
  457TIP3    H122862   0.481   3.280   0.394  0.8798 -0.5928 -1.6607
  457TIP3    H222863   0.335   3.247   0.369  0.8622 -1.6369 -0.1877
  458TIP3   OH222864   1.091   1.791   1.276  0.3011  0.8329  0.3927
  458TIP3    H122865   1.001   1.820   1.263  0.3698  0.1667 -1.6382
  458TIP3    H222866   1.090   1.748   1.362 -1.8861 -1.4024 -0.6945
  459TIP3   OH222867   3.498   2.836  14.111 -0.3291 -0.0524  0.0422
  459TIP3    H122868   3.506   2.748  14.147 -2.3703 -0.5749 -0.6969
  459TIP3    H222869   3.527   2.826  14.020  1.3909  0.4905  0.5220
  460TIP3   OH222870   3.441   6.043  14.633  1.0845  0.3260 -0.3080
  460TIP3    H122871   3.474   6.009  14.717  0.7481 -0.9575 -0.6772
  460TIP3    H222872   3.346   6.049  14.646  1.0634  0.3874 -0.4979
  461TIP3   OH222873   4.771   1.493  17.156 -0.2458 -0.3386 -0.1227
  461TIP3    H122874   4.808   1.483  17.068  0.8598 -0.1932  0.3177
  461TIP3    H222875   4.846   1.484  17.214 -0.6122  1.7390  0.7083
  462TIP3   OH222876   6.780   5.771  13.759 -0.0384 -0.4322  0.2380
  462TIP3    H122877   6.857   5.806  13.803  0.0405  0.7867 -0.8391
  462TIP3    H222878   6.784   5.809  13.671 -3.1286  1.5582  0.8764
  463TIP3   OH222879   0.162   0.474   0.045 -0.1756  1.3056 -0.2841
  463TIP3    H122880   0.113   0.445   0.123 -1.5262  0.1527 -1.5233
  463TIP3    H222881   0.100   0.463  -0.027  0.7341  3.3201 -1.3983
  464TIP3   OH222882   3.455   5.480   1.478 -0.2304  0.2789 -0.1437
  464TIP3    H122883   3.541   5.486   1.438 -0.3000  0.3525 -0.2842
  464TIP3    H222884   3.402   5.546   1.432 -0.4776 -0.0702 -0.3650
  465TIP3   OH222885   2.768   1.189   2.809  0.2265  0.6530  0.0123
  465TIP3    H122886   2.863   1.201   2.804  0.0228  2.4486  0.3657
  465TIP3    H222887   2.731   1.270   2.773 -1.1913 -0.7205 -1.7481
  466TIP3   OH222888   3.664   5.414   1.989 -0.2536 -0.3844 -0.4867
  466TIP3    H122889   3.589   5.394   2.046  0.1962 -2.6311 -0.6591
  466TIP3    H222890   3.638   5.382   1.903  0.4526 -0.1277 -0.7960
  467TIP3   OH222891   6.438   4.763  13.349 -0.1641 -0.0591 -0.0512
  467TIP3    H122892   6.478   4.843  13.316  0.5097  0.0210  0.9255
  467TIP3    H222893   6.513   4.708  13.373 -0.6362 -0.4379  0.5565
  468TIP3   OH222894   6.742   6.133  14.990 -0.0793  0.0445 -0.2648
  468TIP3    H122895   6.790   6.051  14.999 -2.4385 -1.2348  1.2852
  468TIP3    H222896   6.737   6.168  15.079 -2.3399 -0.0886 -0.2962
  469TIP3   OH222897   4.705   2.355  17.006  0.6708 -0.6133 -1.1043
  469TIP3    H122898   4.735   2.440  17.036  3.0121 -1.4712 -0.9708
  469TIP3    H222899   4.641   2.375  16.937 -0.2523  1.2520  0.2621
  470TIP3   OH222900   5.173   5.605  11.332  0.0331 -0.1792 -0.1160
  470TIP3    H122901   5.207   5.538  11.273 -0.7853  0.3595 -1.2344
  470TIP3    H222902   5.143   5.557  11.409  1.2317 -0.8849 -0.0700
  471TIP3   OH222903   4.870   1.530   0.688 -0.1728  0.7306  0.2517
  471TIP3    H122904   4.793   1.508   0.741 -0.9697 -1.4844 -1.7366
  471TIP3    H222905   4.890   1.620   0.711 -1.9738  0.5980  2.5072
  472TIP3   OH222906   1.415   2.575   1.561 -0.2006  0.0195  0.2019
  472TIP3    H122907   1.343   2.569   1.624 -0.5916  0.4772 -0.1960
  472TIP3    H222908   1.393   2.511   1.493  1.0808 -1.6829  1.3823
  473TIP3   OH222909   4.426   0.016   0.752  0.2830 -0.0197  0.2129
  473TIP3    H122910   4.520   0.003   0.741  0.0499 -1.0278 -0.7170
  473TIP3    H222911   4.391   0.015   0.663 -0.8896 -2.1517  0.6543
  474TIP3   OH222912   2.026   0.137   3.184 -0.0380  0.2325 -0.0944
  474TIP3    H122913   2.047   0.075   3.254  1.8270  0.7025 -0.1999
  474TIP3    H222914   1.946   0.180   3.213 -0.0126 -0.5172  1.1268
  475TIP3   OH222915   0.926   4.544   5.559 -0.4048  0.1150 -0.2696
  475TIP3    H122916   0.897   4.469   5.611  1.0030  0.6180  1.2738
  475TIP3    H222917   0.847   4.573   5.512 -1.7250 -0.2807  1.6724
  476TIP3   OH222918   6.620   4.503  15.196 -0.5725  0.5583 -0.1827
  476TIP3    H122919   6.687   4.436  15.181 -3.0886 -2.5459  1.7590
  476TIP3    H222920   6.662   4.566  15.254  0.9680 -0.8610  0.2727
  477TIP3   OH222921   4.823   2.712  15.820  0.4116 -0.4668 -0.1229
  477TIP3    H122922   4.833   2.793  15.869 -0.8036 -0.3521 -0.0431
  477TIP3    H222923   4.909   2.671  15.823  0.7872  0.3680  0.6429
  478TIP3   OH222924   0.109   6.422   3.565  0.2283 -0.2309  0.2072
  478TIP3    H122925   0.147   6.347   3.611 -1.3215 -1.8792 -1.1599
  478TIP3    H222926   0.060   6.469   3.633  0.1983 -1.1340  0.8230
  479TIP3   OH222927   1.562   6.026   1.545 -0.1613 -0.2606 -0.2751
  479TIP3    H122928   1.645   6.018   1.498  1.1988  1.7071  1.6948
  479TIP3    H222929   1.562   5.953   1.607 -0.3832 -0.8815 -1.0122
  480TIP3   OH222930   4.615   1.737   5.006  0.3305  0.4695 -0.5271
  480TIP3    H122931   4.626   1.653   4.960  0.2677 -0.0400  0.3665
  480TIP3    H222932   4.697   1.748   5.055 -0.1324  0.3540  0.2753
  481TIP3   OH222933   5.481   1.787   4.646  0.0262  0.5150 -0.4820
  481TIP3    H122934   5.389   1.813   4.644 -0.0422  0.2180 -1.2484
  481TIP3    H222935   5.488   1.727   4.721 -0.5611 -0.0660 -0.8954
  482TIP3   OH222936   6.476   5.029  13.290  0.0402 -0.0163 -0.0215
  482TIP3    H122937   6.450   5.091  13.358 -1.2123 -0.9988  0.4225
  482TIP3    H222938   6.400   5.025  13.231 -0.1959 -1.6693  0.3611
  483TIP3   OH222939   0.704   5.408   0.229  0.2355 -0.3283 -0.3854
  483TIP3    H122940   0.782   5.415   0.174  1.6750 -0.6195  1.5853
  483TIP3    H222941   0.673   5.319   0.214  0.4409 -0.3083 -0.9567
  484TIP3   OH222942   2.744   0.015   0.533  0.4190  0.3535  0.4737
  484TIP3    H122943   2.782  -0.072   0.538  0.6099  0.4427  0.5490
  484TIP3    H222944   2.662   0.003   0.484 -0.4389 -0.1619  2.0197
  485TIP3   OH222945   3.224   3.219  13.932 -0.0658  0.1401 -0.7882
  485TIP3    H122946   3.142   3.179  13.902 -0.1822  1.1444 -1.8557
  485TIP3    H222947   3.219   3.310  13.903  0.2751  0.8986  1.4702
  486TIP3   OH222948   0.858   6.587  13.836 -0.0487  0.4874  0.2681
  486TIP3    H122949   0.944   6.578  13.794 -0.2513  1.3946 -0.3543
  486TIP3    H222950   0.801   6.620  13.767 -1.0763 -0.7807  0.4905
  487TIP3   OH222951   2.563   3.203  13.478 -0.1158  0.2136 -0.7157
  487TIP3    H122952   2.649   3.244  13.465 -1.0346  2.1612 -0.8479
  487TIP3    H222953   2.527   3.195  13.389 -0.1635 -0.3823 -0.6425
  488TIP3   OH222954   0.376   2.707   5.457  0.2868  0.1086  0.2011
  488TIP3    H122955   0.284   2.733   5.453  0.4017  0.4065 -0.7646
  488TIP3    H222956   0.419   2.779   5.503  0.5457  1.5345 -2.1620
  489TIP3   OH222957   6.586   0.952   0.271  0.8161  0.6277  0.3751
  489TIP3    H122958   6.640   0.938   0.349  1.5234 -1.7002 -0.5108
  489TIP3    H222959   6.634   1.017   0.220  1.7524  0.0940  0.5625
  490TIP3   OH222960   4.075   1.132   1.774  0.4286 -0.1056 -0.0983
  490TIP3    H122961   3.998   1.189   1.766  0.5428  0.2812  1.4511
  490TIP3    H222962   4.076   1.082   1.692  0.2717  2.0187 -1.4383
  491TIP3   OH222963   2.090   4.625   1.902 -0.1495 -0.0827  0.2297
  491TIP3    H122964   2.161   4.669   1.950 -0.2927 -1.7857  2.0635
  491TIP3    H222965   2.135   4.578   1.832  0.5029 -0.8293  1.1366
  492TIP3   OH222966   4.616   0.898   2.595  0.0280  0.5959  0.4692
  492TIP3    H122967   4.539   0.842   2.605 -0.7411  1.7038  0.8424
  492TIP3    H222968   4.589   0.965   2.532  0.5734  1.1852  0.8542
  493TIP3   OH222969   1.766   0.345  12.761 -0.5842 -0.3605 -0.2092
  493TIP3    H122970   1.691   0.317  12.813 -0.0964  2.0609  1.9429
  493TIP3    H222971   1.832   0.276  12.774 -1.0052 -0.5048  1.2095
  494TIP3   OH222972   3.793   6.033  14.649  0.1524 -0.1284 -0.2539
  494TIP3    H122973   3.886   6.014  14.660  0.2909  1.1666  1.0643
  494TIP3    H222974   3.758   5.957  14.604  1.4814 -1.5359  1.0160
  495TIP3   OH222975   1.952   2.245   6.250  0.4405 -0.5544 -0.4960
  495TIP3    H122976   1.932   2.227   6.341  2.1276 -1.8292 -0.3472
  495TIP3    H222977   1.927   2.337   6.237  0.1470 -0.3836  1.2254
  496TIP3   OH222978   3.642   0.541   2.778 -0.2780  0.2902  0.0386
  496TIP3    H122979   3.611   0.470   2.722  1.5556  0.4802 -1.2905
  496TIP3    H222980   3.652   0.616   2.718  0.5378  0.8453  0.8563
  497TIP3   OH222981   1.831   0.199   6.516 -0.1182  0.5566 -0.5209
  497TIP3    H122982   1.738   0.176   6.516 -0.1104  0.5279 -0.9619
  497TIP3    H222983   1.838   0.270   6.580 -0.2128 -0.3731  0.5597
  498TIP3   OH222984   1.456   3.194  14.924  0.6580  0.2249 -0.3202
  498TIP3    H122985   1.443   3.128  14.992 -0.8124  0.0982 -0.7124
  498TIP3    H222986   1.383   3.183  14.864  1.5294  0.8295 -1.5427
  499TIP3   OH222987   4.237   0.839   4.957  1.0091 -0.2962  0.6993
  499TIP3    H122988   4.217   0.912   5.015 -0.0409 -0.8086  0.9980
  499TIP3    H222989   4.209   0.762   5.006 -1.4678 -0.6138 -1.1747
  500TIP3   OH222990   3.077   6.758   5.264  0.0194  0.6005 -0.3087
  500TIP3    H122991   3.044   6.707   5.189 -0.9043 -0.1172  0.5776
  500TIP3    H222992   3.080   6.695   5.336  1.6897  1.1000  0.0577
  501TIP3   OH222993   6.553   3.154  16.225 -0.3009 -0.1677  0.6908
  501TIP3    H122994   6.507   3.169  16.308  1.4183 -2.4065  2.0851
  501TIP3    H222995   6.498   3.092  16.178 -1.0479  0.7587  0.3130
  502TIP3   OH222996   1.185   2.256   0.504  0.6424 -0.5158  0.1357
  502TIP3    H122997   1.235   2.209   0.437  0.8416 -2.3359  1.5361
  502TIP3    H222998   1.102   2.209   0.509 -0.5544  1.4296 -0.9204
  503TIP3   OH222999   3.265   3.514   4.308 -0.3661 -0.4445  0.9753
  503TIP3    H123000   3.250   3.476   4.222 -0.2685 -1.7562  1.5356
  503TIP3    H223001   3.360   3.524   4.313 -0.5070  1.6737  0.0794
  504TIP3   OH223002   6.347   0.139   2.119  0.1761 -0.0744 -0.4210
  504TIP3    H123003   6.340   0.049   2.152  0.1642  0.1757  0.2665
  504TIP3    H223004   6.337   0.194   2.197 -0.9128  0.5519 -0.9852
  505TIP3   OH223005   6.068   6.071   3.675  0.1966 -0.7401 -0.0511
  505TIP3    H123006   6.022   6.042   3.596 -2.2661 -3.1481  2.1243
  505TIP3    H223007   6.160   6.072   3.651 -0.6712  0.9542 -3.6265
  506TIP3   OH223008   4.429   1.167   1.607  0.0240  0.1363 -0.3235
  506TIP3    H123009   4.492   1.153   1.536  1.3070  0.6804  0.6937
  506TIP3    H223010   4.440   1.092   1.664 -0.8941 -0.2172 -0.6051
  507TIP3   OH223011   6.623   1.637  13.384 -0.5675 -0.1666  0.0286
  507TIP3    H123012   6.646   1.726  13.360  1.3117 -0.9534 -1.2031
  507TIP3    H223013   6.565   1.607  13.314 -0.7907 -0.0755  0.1762
  508TIP3   OH223014   3.675   2.569  12.228 -0.1341 -0.5094 -0.5375
  508TIP3    H123015   3.688   2.663  12.238 -0.0817 -0.6259  0.5481
  508TIP3    H223016   3.730   2.545  12.154 -1.4522  0.5900 -1.9028
  509TIP3   OH223017   1.674   0.955  11.553 -0.3428  0.0763 -0.1891
  509TIP3    H123018   1.755   0.950  11.604 -1.1102 -1.2427  0.9145
  509TIP3    H223019   1.639   1.042  11.574 -0.7154 -0.5070  1.6414
  510TIP3   OH223020   0.033   2.887   0.783 -0.0313  0.1714 -0.7353
  510TIP3    H123021   0.072   2.801   0.797  1.2763  0.6330 -1.4564
  510TIP3    H223022  -0.061   2.870   0.775  0.0089 -0.9686  0.9174
  511TIP3   OH223023   1.028   0.954  14.145  0.4478 -0.0225  0.0799
  511TIP3    H123024   1.055   0.863  14.161 -1.8913 -0.6094  0.8552
  511TIP3    H223025   1.015   0.959  14.051 -2.6903 -1.4891  0.3720
  512TIP3   OH223026   6.476   2.004   0.848  0.3528  0.2231  0.0329
  512TIP3    H123027   6.534   2.060   0.898  1.6693 -0.8781 -0.2311
  512TIP3    H223028   6.397   2.057   0.834  1.4402  1.8696  0.0524
  513TIP3   OH223029   1.504   5.247  14.141 -0.3914 -0.3600  0.3682
  513TIP3    H123030   1.575   5.286  14.193  0.6702 -1.1714 -0.4384
  513TIP3    H223031   1.424   5.279  14.182  0.4176 -0.9559  2.4803
  514TIP3   OH223032   1.629   2.060  13.795 -0.0400  1.1223 -0.4122
  514TIP3    H123033   1.652   2.006  13.871 -1.8880 -0.1572 -0.7220
  514TIP3    H223034   1.713   2.095  13.765  1.0243 -0.2939  0.7755
  515TIP3   OH223035   0.212   2.460  14.009 -0.0395 -0.4357 -0.3848
  515TIP3    H123036   0.200   2.419  13.923  1.8110 -1.2926 -0.2491
  515TIP3    H223037   0.136   2.433  14.060  0.3193 -2.3229 -0.8323
  516TIP3   OH223038   6.458   3.798  16.006  0.1366 -0.0414 -0.2582
  516TIP3    H123039   6.449   3.817  15.913 -0.4252  0.4852 -0.0995
  516TIP3    H223040   6.542   3.751  16.013  1.6845  2.5623 -0.6319
  517TIP3   OH223041   0.208   4.686   4.035  0.4605  0.2638 -0.6887
  517TIP3    H123042   0.150   4.762   4.039 -0.9576 -0.8890  1.4365
  517TIP3    H223043   0.203   4.657   3.943 -1.6219  0.7308 -0.7437
  518TIP3   OH223044   0.797   1.940   3.990  0.1432 -0.0369 -0.0458
  518TIP3    H123045   0.726   1.984   3.942  0.1492 -1.5454 -1.4767
  518TIP3    H223046   0.793   1.849   3.961  3.1857  0.0028 -0.7967
  519TIP3   OH223047   2.450   5.612   0.192  0.2208 -0.1770 -0.3487
  519TIP3    H123048   2.497   5.693   0.212  1.0751 -0.6837 -0.3010
  519TIP3    H223049   2.430   5.574   0.277  2.3178 -1.4433 -0.3902
  520TIP3   OH223050   3.763   4.799   1.462  0.2756  0.2022 -0.0611
  520TIP3    H123051   3.763   4.720   1.516  0.4481 -1.0502 -1.8575
  520TIP3    H223052   3.834   4.786   1.399  0.1181  1.6607 -0.5793
  521TIP3   OH223053   4.956   1.116  12.802 -0.6462 -0.5712  0.2959
  521TIP3    H123054   4.989   1.167  12.875 -1.7554  0.8561 -0.1744
  521TIP3    H223055   5.008   1.145  12.727  1.2085 -2.7844  0.6726
  522TIP3   OH223056   5.277   4.381   3.138 -0.1707  0.6060 -0.3435
  522TIP3    H123057   5.276   4.474   3.115  1.5469  0.4115 -1.2450
  522TIP3    H223058   5.291   4.336   3.054  0.0577 -0.4171  0.2431
  523TIP3   OH223059   4.930   1.746  13.041 -0.2151 -0.2574 -0.2247
  523TIP3    H123060   4.835   1.761  13.043 -0.7923 -3.5717  0.0693
  523TIP3    H223061   4.953   1.726  13.131  0.3492 -1.7652 -0.6905
  524TIP3   OH223062   6.202   6.363  15.266  0.0742  0.0152 -0.7528
  524TIP3    H123063   6.248   6.446  15.254  1.8378 -0.6151  1.2748
  524TIP3    H223064   6.177   6.362  15.358  0.4803 -1.8845 -0.6360
  525TIP3   OH223065   2.684   2.557   2.839 -0.4479  0.0604 -0.1730
  525TIP3    H123066   2.676   2.463   2.823 -0.2458  0.1200 -0.6348
  525TIP3    H223067   2.664   2.597   2.754 -1.3342  0.4688  0.2229
  526TIP3   OH223068   4.443   2.562  13.368  0.2974 -0.1348  0.5479
  526TIP3    H123069   4.457   2.484  13.314  0.7349  1.2493 -1.4141
  526TIP3    H223070   4.531   2.600  13.377 -0.4957  2.7019 -2.6089
  527TIP3   OH223071   2.127   0.694  14.382 -0.3497 -0.1841 -0.6395
  527TIP3    H123072   2.191   0.701  14.454  0.1732  0.9021 -1.2011
  527TIP3    H223073   2.119   0.784  14.349  0.0619 -0.8185 -2.4961
  528TIP3   OH223074   0.224   6.207   3.896  0.4946 -0.1786  0.4222
  528TIP3    H123075   0.261   6.119   3.899 -0.6002 -0.6641 -0.1787
  528TIP3    H223076   0.134   6.196   3.928 -0.7525  0.1384 -2.8485
  529TIP3   OH223077   3.723   3.813  13.001  0.2110  0.2209 -0.4472
  529TIP3    H123078   3.746   3.744  12.940  1.8776  0.8962 -0.6022
  529TIP3    H223079   3.803   3.827  13.053 -0.8336  0.4093  1.1506
  530TIP3   OH223080   5.265   0.476  15.860  0.2244 -0.0137 -0.7949
  530TIP3    H123081   5.300   0.563  15.839 -2.8701  1.3117 -0.6773
  530TIP3    H223082   5.314   0.449  15.937  0.9620  1.7799 -0.6075
  531TIP3   OH223083   0.053   6.222  17.119  0.5479  0.1494 -0.4401
  531TIP3    H123084  -0.026   6.188  17.076  0.2599 -0.5322  0.5881
  531TIP3    H223085   0.052   6.181  17.205  1.5077  0.9102 -0.0567
  532TIP3   OH223086   3.472   6.454   3.932 -0.1871 -0.1473  0.4201
  532TIP3    H123087   3.555   6.407   3.923 -0.8850 -1.5515  1.1016
  532TIP3    H223088   3.467   6.478   4.025 -0.9932 -0.9411  0.5892
  533TIP3   OH223089   4.481   1.561   5.250  0.9494 -0.2759 -0.5648
  533TIP3    H123090   4.449   1.622   5.183  2.6900  1.7741  0.3913
  533TIP3    H223091   4.412   1.559   5.316  0.8825  0.6750 -0.6017
  534TIP3   OH223092   5.615   3.024  16.792  0.2260 -0.1378  0.5000
  534TIP3    H123093   5.645   3.053  16.878  1.0366 -1.9125  0.8387
  534TIP3    H223094   5.523   3.052  16.788 -0.8066 -2.8626  3.2968
  535TIP3   OH223095   6.784   3.072   3.806 -0.0172  0.0991 -0.8414
  535TIP3    H123096   6.780   3.074   3.710  0.9353 -1.4364 -0.9263
  535TIP3    H223097   6.867   3.113   3.827  0.8224 -1.6071 -0.7847
  536TIP3   OH223098   6.632   3.610  15.978 -0.3270  0.2187 -0.1455
  536TIP3    H123099   6.559   3.572  15.930 -0.3252  0.4253 -0.3112
  536TIP3    H223100   6.658   3.542  16.041  0.1464 -0.3271 -0.9295
  537TIP3   OH223101   2.045   3.701  14.642 -0.2643 -0.0309 -0.1011
  537TIP3    H123102   2.012   3.748  14.718  0.3025  0.6998 -0.2908
  537TIP3    H223103   1.980   3.633  14.624  0.1832 -0.9591  1.7254
  538TIP3   OH223104   4.946   0.477   0.063 -0.9271  0.2360  0.8416
  538TIP3    H123105   4.960   0.546  -0.001  2.2737 -0.6543  0.5265
  538TIP3    H223106   4.969   0.516   0.147  1.8346 -0.6439  0.5526
  539TIP3   OH223107   3.543   0.243   1.727  0.2501 -0.2210  0.6762
  539TIP3    H123108   3.619   0.246   1.786  1.7998 -2.2544 -1.1246
  539TIP3    H223109   3.488   0.173   1.763 -0.0001  0.1803  1.0796
  540TIP3   OH223110   5.647   1.918   2.224  0.2475 -0.0523 -0.5033
  540TIP3    H123111   5.637   1.829   2.255 -0.1742  0.0714 -0.2772
  540TIP3    H223112   5.741   1.936   2.228  0.3484 -0.5375 -0.7003
  541TIP3   OH223113   6.447   0.435   4.791 -0.0431  0.1420 -0.4188
  541TIP3    H123114   6.414   0.509   4.842  1.6435  2.2287 -2.2738
  541TIP3    H223115   6.372   0.405   4.740 -0.5795  0.9272 -0.0870
  542TIP3   OH223116   1.489   3.082  13.733  0.1720  0.5569  0.1004
  542TIP3    H123117   1.583   3.101  13.734  0.8916 -2.7105  1.0397
  542TIP3    H223118   1.456   3.120  13.814  0.5323  2.2301 -0.5112
  543TIP3   OH223119   5.179   2.487   3.241 -0.3267  0.4465  0.1331
  543TIP3    H123120   5.119   2.425   3.199 -0.8357  0.1209  1.3300
  543TIP3    H223121   5.156   2.484   3.334  1.0982  0.8190  0.5041
  544TIP3   OH223122   6.309   0.979   0.948  0.1794  0.6245  0.1962
  544TIP3    H123123   6.351   1.023   1.021  1.3524 -0.2009  0.0351
  544TIP3    H223124   6.253   0.913   0.989  0.4573  0.4908  0.3601
  545TIP3   OH223125   6.179   1.925   0.167  0.1847 -0.7055  0.1050
  545TIP3    H123126   6.188   1.861   0.097  0.2353 -0.1663 -0.3879
  545TIP3    H223127   6.108   1.891   0.221 -1.8829  0.3311 -1.8489
  546TIP3   OH223128   6.092   0.063  13.909  0.4883  0.6944  0.0232
  546TIP3    H123129   6.186   0.057  13.890  0.3751 -0.1685 -0.2794
  546TIP3    H223130   6.051   0.068  13.822  0.1852 -0.0184  0.1236
  547TIP3   OH223131   4.055   1.167  13.074  0.0957  0.4785  0.0383
  547TIP3    H123132   4.000   1.162  12.996  0.2532 -0.1398 -0.0337
  547TIP3    H223133   4.040   1.255  13.108 -1.3384  0.1428  0.2973
  548TIP3   OH223134   5.883   1.683  13.730  0.0118  0.1467 -0.0991
  548TIP3    H123135   5.824   1.711  13.800  0.3824  1.1930 -0.1983
  548TIP3    H223136   5.951   1.632  13.775 -1.4090 -1.7990 -0.0953
  549TIP3   OH223137   4.624   3.076   3.327 -0.6992  0.1345  0.4490
  549TIP3    H123138   4.560   3.041   3.389 -1.0585  0.4054  0.2301
  549TIP3    H223139   4.617   3.171   3.337 -0.0996  0.1599  0.6594
  550TIP3   OH223140   5.237   2.063  15.102 -0.4068  0.4251  0.3804
  550TIP3    H123141   5.291   1.990  15.073 -0.8776 -0.1040  0.8290
  550TIP3    H223142   5.147   2.038  15.079 -0.5054  1.1654 -0.0911
  551TIP3   OH223143   5.655   6.353  16.171  0.8327 -0.4938 -0.3588
  551TIP3    H123144   5.715   6.372  16.244 -0.1121  0.5482  0.1640
  551TIP3    H223145   5.696   6.394  16.095  0.0699  1.5612  0.2823
  552TIP3   OH223146   6.263   6.700   0.284  0.6045  0.8575  0.1814
  552TIP3    H123147   6.298   6.701   0.373 -0.7172 -0.1404  0.7445
  552TIP3    H223148   6.297   6.780   0.243  1.2140  1.3295  1.5800
  553TIP3   OH223149   5.314   0.367  11.297 -0.0639 -0.5238  0.9555
  553TIP3    H123150   5.271   0.293  11.341  0.9229 -1.2106  0.7690
  553TIP3    H223151   5.363   0.410  11.366 -1.6342  0.7169  1.3303
  554TIP3   OH223152   2.939   2.745  15.618 -0.1600  0.1191 -0.0995
  554TIP3    H123153   2.980   2.808  15.558  1.0344 -1.8721 -1.4130
  554TIP3    H223154   2.901   2.800  15.687  0.5227  2.3099 -1.4013
  555TIP3   OH223155   1.744   4.269  12.122  0.1479 -0.3368  0.4132
  555TIP3    H123156   1.835   4.263  12.093  0.3661  2.1081  0.4637
  555TIP3    H223157   1.747   4.248  12.215  0.6014 -0.6798  0.3234
  556TIP3   OH223158   6.263   2.582   2.201 -0.2358 -0.3755 -0.1128
  556TIP3    H123159   6.196   2.637   2.160 -0.2238  0.7331  1.2846
  556TIP3    H223160   6.334   2.580   2.137  0.3949  2.5595  0.3770
  557TIP3   OH223161   2.816   4.572  14.360  0.6550  0.3755 -0.2530
  557TIP3    H123162   2.794   4.546  14.271 -1.9237  0.2063  0.3993
  557TIP3    H223163   2.805   4.667  14.362 -0.7433  0.2144  0.2509
  558TIP3   OH223164   4.320   3.950   1.089  0.2154  0.2371 -0.5065
  558TIP3    H123165   4.342   3.859   1.108  0.8154  0.7448  1.3880
  558TIP3    H223166   4.230   3.947   1.057 -0.5459 -0.8282  1.5786
  559TIP3   OH223167   2.514   1.914   3.035  0.0035 -0.3761 -0.1427
  559TIP3    H123168   2.423   1.936   3.016 -0.2364 -1.2206 -0.0164
  559TIP3    H223169   2.549   1.879   2.953  0.4930  0.8377 -0.4496
  560TIP3   OH223170   0.662   4.275  13.031 -1.0659  0.0769  0.3220
  560TIP3    H123171   0.608   4.279  13.110 -0.2306 -0.2937  0.9107
  560TIP3    H223172   0.647   4.358  12.987 -2.0603  0.0099  0.5244
  561TIP3   OH223173   0.224   4.510  16.097  0.0427 -0.1636  0.0571
  561TIP3    H123174   0.291   4.460  16.049  2.1720  2.5667  0.0881
  561TIP3    H223175   0.178   4.444  16.148  2.7068 -2.1419  0.0289
  562TIP3   OH223176   0.473   3.572   1.752 -0.2879 -0.3560  0.1959
  562TIP3    H123177   0.483   3.564   1.657 -0.3096 -0.7359  0.2263
  562TIP3    H223178   0.483   3.666   1.769  1.0611 -0.4499 -0.0211
  563TIP3   OH223179   1.618   0.071   0.810  0.6035  0.0539  0.4299
  563TIP3    H123180   1.639  -0.005   0.756  0.0728  1.1117 -1.3026
  563TIP3    H223181   1.656   0.145   0.764  0.3424  0.9572  1.6319
  564TIP3   OH223182   2.689   5.457   5.086  0.0981 -0.6180 -0.2565
  564TIP3    H123183   2.756   5.389   5.079  1.2190  0.4437 -0.0559
  564TIP3    H223184   2.675   5.467   5.180  2.2563  1.6045 -0.1021
  565TIP3   OH223185   3.337   0.708   2.738 -0.6201  0.3257 -0.0363
  565TIP3    H123186   3.404   0.652   2.699  0.1312  0.9760  0.3131
  565TIP3    H223187   3.273   0.722   2.667  0.0363  0.3882 -0.6205
  566TIP3   OH223188   2.802   4.301  16.313 -0.6180 -0.4802 -0.2764
  566TIP3    H123189   2.736   4.268  16.252 -1.5826  0.2804  0.3279
  566TIP3    H223190   2.754   4.313  16.396  0.5491 -1.0204  0.4832
  567TIP3   OH223191   5.169   4.236  15.460 -0.0944  0.1532  0.7549
  567TIP3    H123192   5.228   4.306  15.436  1.2941 -1.2311  0.0282
  567TIP3    H223193   5.130   4.208  15.377 -0.9702  0.3461  1.0932
  568TIP3   OH223194   2.199   5.126  10.899  0.6734  0.5349  0.3416
  568TIP3    H123195   2.225   5.180  10.824  0.3393  1.7783  1.1176
  568TIP3    H223196   2.245   5.043  10.885 -0.3003  0.3213 -1.8535
  569TIP3   OH223197   2.091   0.112  13.685  0.3023  0.1493 -0.2751
  569TIP3    H123198   2.125   0.122  13.596  0.6320 -0.7649 -0.2541
  569TIP3    H223199   2.080   0.017  13.697  0.1133  0.2723  0.6036
  570TIP3   OH223200   6.486   2.541   6.276  0.7610 -0.0510 -0.3174
  570TIP3    H123201   6.579   2.534   6.299  0.7704 -1.1047 -0.6413
  570TIP3    H223202   6.442   2.560   6.358  1.2714  0.4785 -0.1644
  571TIP3   OH223203   3.033   6.743   3.358 -0.2405 -0.0331  0.3039
  571TIP3    H123204   3.082   6.790   3.290 -0.7918  1.8549  1.1974
  571TIP3    H223205   3.078   6.658   3.364  1.3904  0.7211 -0.6208
  572TIP3   OH223206   3.013   3.360  14.562 -0.2182  0.1050  0.0106
  572TIP3    H123207   2.981   3.436  14.513 -1.3250 -0.5499 -0.2827
  572TIP3    H223208   2.946   3.343  14.628  0.0243 -0.6150  0.0813
  573TIP3   OH223209   5.721   4.540   0.292 -0.4480 -0.4273  0.1978
  573TIP3    H123210   5.702   4.566   0.382 -1.4367 -0.7245  0.0803
  573TIP3    H223211   5.804   4.582   0.272  0.3952 -1.3825  1.6702
  574TIP3   OH223212   5.904   1.127   5.284  0.0594 -0.2001 -0.3364
  574TIP3    H123213   5.933   1.117   5.375  0.5828 -3.2294 -0.7544
  574TIP3    H223214   5.811   1.106   5.286 -0.0752  0.3842 -0.4064
  575TIP3   OH223215   3.151   3.582  13.588 -0.0710  0.0765  0.1333
  575TIP3    H123216   3.225   3.554  13.533 -0.5397  0.0339 -0.4848
  575TIP3    H223217   3.153   3.677  13.585  0.3852  0.0866  0.6981
  576TIP3   OH223218   6.406   1.453  13.439  0.3168  0.1675  0.2266
  576TIP3    H123219   6.458   1.480  13.514 -0.3345 -1.5881  1.3298
  576TIP3    H223220   6.470   1.443  13.368  1.2794 -0.5206  1.1813
  577TIP3   OH223221   5.719   0.545   4.240  0.1565  0.4168  0.1212
  577TIP3    H123222   5.723   0.615   4.305  0.4866 -0.5087  1.1021
  577TIP3    H223223   5.771   0.579   4.167  0.6875  1.0161  0.7658
  578TIP3   OH223224   5.631   4.666   4.292  0.0270 -0.2000  0.1185
  578TIP3    H123225   5.577   4.712   4.227 -1.0777 -0.2753  0.9715
  578TIP3    H223226   5.624   4.720   4.371  2.5854  0.7031 -0.2227
  579TIP3   OH223227   2.627   3.958   1.010 -0.5279 -0.7481  0.3817
  579TIP3    H123228   2.586   4.036   0.973 -1.4101 -1.4132 -0.0762
  579TIP3    H223229   2.712   3.952   0.966 -0.4817 -0.0772  0.3830
  580TIP3   OH223230   5.956   5.425   5.451  0.0373 -0.3603 -0.5670
  580TIP3    H123231   5.887   5.391   5.394 -0.5152 -1.1892  0.5642
  580TIP3    H223232   5.973   5.513   5.419 -1.3917 -0.2313 -1.0043
  581TIP3   OH223233   5.140   1.617   6.494  0.1338  0.6026  0.7993
  581TIP3    H123234   5.228   1.592   6.520 -0.4474  1.0272  3.2851
  581TIP3    H223235   5.105   1.539   6.449  1.9083  0.6107 -0.6366
  582TIP3   OH223236   3.724   5.037  11.024 -0.2658 -0.8191  0.0048
  582TIP3    H123237   3.745   4.973  10.956  0.1920 -0.1395 -0.5083
  582TIP3    H223238   3.665   5.099  10.981 -1.6666 -1.5592  0.8462
  583TIP3   OH223239   6.498   6.670  16.811 -0.2199  0.0918 -0.2677
  583TIP3    H123240   6.563   6.602  16.830  0.1541  0.8954  1.4275
  583TIP3    H223241   6.417   6.622  16.798  0.2911 -0.7753 -0.3326
  584TIP3   OH223242   2.901   1.473   1.885 -0.7177 -0.1209 -0.1328
  584TIP3    H123243   2.892   1.484   1.980  1.7263 -0.2625  0.1334
  584TIP3    H223244   2.873   1.382   1.870 -0.3666 -0.3473  0.5514
  585TIP3   OH223245   2.382   6.356  15.894 -0.1965 -0.1053  0.2500
  585TIP3    H123246   2.348   6.446  15.889 -0.8525 -0.4069 -0.9890
  585TIP3    H223247   2.311   6.306  15.933  0.8510  0.2232  2.6706
  586TIP3   OH223248   4.227   1.831  10.962  0.2626 -0.7028 -0.0521
  586TIP3    H123249   4.312   1.874  10.967 -0.1095 -0.1362  1.8919
  586TIP3    H223250   4.236   1.767  10.891  1.2689  1.5629 -1.9986
  587TIP3   OH223251   5.876   0.841  14.006 -0.2488 -0.5333  0.1298
  587TIP3    H123252   5.962   0.860  14.043  0.3813 -0.3513 -1.4173
  587TIP3    H223253   5.865   0.746  14.016  0.5822 -0.7128 -0.6268
  588TIP3   OH223254   1.665   4.553  12.238  0.0838  0.4483 -0.1520
  588TIP3    H123255   1.593   4.547  12.301 -0.9543  0.1708 -1.3259
  588TIP3    H223256   1.690   4.463  12.221 -0.0322  0.4879 -0.5555
  589TIP3   OH223257   4.121   4.619  13.259  0.0613  0.5221 -0.4005
  589TIP3    H123258   4.141   4.689  13.321 -0.2770  1.4227 -1.2979
  589TIP3    H223259   4.029   4.598  13.275 -0.2991  1.4113 -1.2193
  590TIP3   OH223260   1.527   5.983  11.847  0.2383  0.1200  0.3658
  590TIP3    H123261   1.504   5.981  11.754 -0.4834 -1.6135  0.5530
  590TIP3    H223262   1.619   6.011  11.849 -0.2024  1.7065 -0.7562
  591TIP3   OH223263   3.117   3.603  10.345 -0.1143 -0.5018 -0.1122
  591TIP3    H123264   3.059   3.528  10.335 -0.8782  0.2477 -1.4013
  591TIP3    H223265   3.201   3.565  10.371 -0.5223 -1.7898 -0.6373
  592TIP3   OH223266   4.057   4.680   2.539 -0.1679  0.2823 -0.7083
  592TIP3    H123267   4.003   4.606   2.513 -1.6646  1.9051 -2.4072
  592TIP3    H223268   4.079   4.723   2.457 -0.0411  2.1945  0.3011
  593TIP3   OH223269   3.003   4.395  11.779 -0.6992 -0.1359  0.1042
  593TIP3    H123270   3.093   4.373  11.803 -0.9166  0.3833  1.4824
  593TIP3    H223271   3.006   4.409  11.685  0.5862 -0.4894  0.0760
  594TIP3   OH223272   3.347   5.795   1.525 -0.1385  0.0379  0.0446
  594TIP3    H123273   3.397   5.819   1.447 -0.6167  0.9000 -0.0042
  594TIP3    H223274   3.366   5.702   1.538  2.7670  0.6998  0.9570
  595TIP3   OH223275   2.812   4.639  12.731 -0.0468  0.0678 -0.0486
  595TIP3    H123276   2.841   4.719  12.777  2.5329  0.1320 -1.6335
  595TIP3    H223277   2.784   4.670  12.645  0.3379 -0.6485 -0.4376
  596TIP3   OH223278   5.530   4.335  12.280 -0.0830 -0.0872  0.1064
  596TIP3    H123279   5.568   4.288  12.354  1.2000  1.4616  0.4560
  596TIP3    H223280   5.556   4.284  12.204 -3.2765 -2.9389  0.8069
  597TIP3   OH223281   1.518   1.454  17.212 -0.0608 -0.3410  0.2261
  597TIP3    H123282   1.579   1.382  17.227 -0.8076 -0.8177  1.0824
  597TIP3    H223283   1.558   1.507  17.143  1.7403 -0.1646  1.3750
  598TIP3   OH223284   6.094   5.775  14.735  0.5545 -0.4846 -0.2322
  598TIP3    H123285   6.145   5.763  14.814  0.3419  0.1953  0.0090
  598TIP3    H223286   6.099   5.690  14.690  0.3103 -1.0112  0.7227
  599TIP3   OH223287   3.959   5.814   2.336 -0.3900  0.3003  0.4199
  599TIP3    H123288   3.895   5.861   2.389  2.7938  2.5225  2.4545
  599TIP3    H223289   3.961   5.861   2.253 -0.4205  1.0304  0.8322
  600TIP3   OH223290   0.146   5.991   1.953 -0.1915  0.4430  0.1871
  600TIP3    H123291   0.236   6.000   1.985 -0.1235 -0.8964  0.3849
  600TIP3    H223292   0.100   5.943   2.022 -0.1202 -2.1774 -1.5318
  601TIP3   OH223293   1.467   5.445   4.707 -0.5871 -0.1045 -0.3439
  601TIP3    H123294   1.422   5.468   4.788  0.4028  0.6591  0.0031
  601TIP3    H223295   1.560   5.461   4.726 -0.2813 -0.5579 -1.4106
  602TIP3   OH223296   4.511   3.588   5.609  0.3345  0.5552  0.3098
  602TIP3    H123297   4.477   3.569   5.522 -1.7772 -0.1412  1.2642
  602TIP3    H223298   4.508   3.684   5.615 -1.2250  0.5289  0.2540
  603TIP3   OH223299   6.232   6.223  16.417 -0.5459  0.4146  0.4593
  603TIP3    H123300   6.172   6.242  16.345  1.0140  0.7273 -0.7880
  603TIP3    H223301   6.217   6.131  16.438 -3.1626  1.1058  1.8005
  604TIP3   OH223302   6.337   6.019  14.837 -0.7090  0.1166 -0.4663
  604TIP3    H123303   6.276   6.045  14.767 -1.4460  0.3819  0.2682
  604TIP3    H223304   6.307   5.932  14.863 -1.2854  0.5795  0.4515
  605TIP3   OH223305   0.660   3.854  14.153  0.2514 -0.4505 -0.2443
  605TIP3    H123306   0.710   3.883  14.229  0.5919 -0.3858 -0.4909
  605TIP3    H223307   0.722   3.860  14.080 -0.0660 -0.5315 -0.5219
  606TIP3   OH223308   2.802   6.696   5.777  0.3554 -0.0458 -0.1046
  606TIP3    H123309   2.781   6.726   5.689  1.6467  1.1963  0.0005
  606TIP3    H223310   2.782   6.603   5.776  0.1057  0.0187 -1.6341
  607TIP3   OH223311   1.333   2.657   3.386  0.5700 -0.2204 -0.2028
  607TIP3    H123312   1.261   2.714   3.412  1.0727 -0.3551  1.5779
  607TIP3    H223313   1.412   2.710   3.399  0.8170 -0.2271 -1.6855
  608TIP3   OH223314   1.760   4.193   1.011 -0.1368  0.2421 -0.6865
  608TIP3    H123315   1.702   4.208   0.936 -0.1744 -2.0922 -1.1726
  608TIP3    H223316   1.831   4.256   0.999 -0.7644  0.7254 -2.0148
  609TIP3   OH223317   3.224   0.450  11.922  0.2677  0.4671  0.4219
  609TIP3    H123318   3.207   0.358  11.939 -0.5679  0.2762 -1.2728
  609TIP3    H223319   3.318   0.460  11.932  0.4698 -0.7544 -0.1496
  610TIP3   OH223320   6.422   4.275   4.415 -0.4906  0.3822 -0.2764
  610TIP3    H123321   6.468   4.296   4.496  0.1513  1.9198 -1.0171
  610TIP3    H223322   6.330   4.282   4.437 -0.3016  2.3262 -0.0498
  611TIP3   OH223323   3.691   2.882  14.798  0.6371 -0.0087 -0.0959
  611TIP3    H123324   3.638   2.921  14.728 -0.1317 -1.7998 -0.5487
  611TIP3    H223325   3.663   2.927  14.878 -0.1752  0.4253 -0.6272
  612TIP3   OH223326   6.254   2.452  11.595  0.4101  0.0723  0.4746
  612TIP3    H123327   6.264   2.482  11.505  0.4997  0.5010  0.6252
  612TIP3    H223328   6.287   2.362  11.594 -1.3539 -0.6005 -0.3335
  613TIP3   OH223329   2.547   2.215  12.266  0.3825 -0.1522  0.6149
  613TIP3    H123330   2.622   2.163  12.295  1.5140  1.9058  1.4665
  613TIP3    H223331   2.585   2.292  12.224 -1.2285  1.2429  1.6225
  614TIP3   OH223332   5.165   3.074  10.900 -0.3021  0.1247  0.1981
  614TIP3    H123333   5.107   2.999  10.885  0.6918 -0.8754  1.2570
  614TIP3    H223334   5.171   3.117  10.815 -0.4893 -1.2963 -0.5457
  615TIP3   OH223335   2.257   2.756   5.642  0.1556 -0.1203  0.0234
  615TIP3    H123336   2.279   2.703   5.719  2.5699 -0.8617 -1.1007
  615TIP3    H223337   2.218   2.694   5.581  0.7372 -0.1133 -0.3628
  616TIP3   OH223338   0.837   3.286   1.420  0.4062 -0.1151  0.2812
  616TIP3    H123339   0.750   3.293   1.460 -0.2362  1.0984 -1.2762
  616TIP3    H223340   0.825   3.223   1.349  0.5371  0.8093 -0.5729
  617TIP3   OH223341   1.802   1.701  16.091  0.0924 -0.6038  0.2085
  617TIP3    H123342   1.756   1.738  16.015 -0.3855 -0.2810  0.6481
  617TIP3    H223343   1.847   1.624  16.057  0.4218 -0.0841 -0.5498
  618TIP3   OH223344   3.971   2.805   5.134  0.4937  0.2511  0.0871
  618TIP3    H123345   4.034   2.792   5.063 -1.1345 -0.7999 -1.2174
  618TIP3    H223346   3.907   2.867   5.098  0.0055  0.1996  0.8635
  619TIP3   OH223347   0.760   5.191  12.154 -0.1774 -0.4004 -0.2567
  619TIP3    H123348   0.676   5.145  12.159 -1.2359  1.5380  0.7110
  619TIP3    H223349   0.792   5.174  12.066 -2.1881 -0.1970 -1.0579
  620TIP3   OH223350   4.156   0.834  12.486  0.2081  0.3506 -0.1825
  620TIP3    H123351   4.210   0.868  12.557 -0.5739 -1.8414  1.5475
  620TIP3    H223352   4.069   0.873  12.500 -0.0981 -0.5303  0.4498
  621TIP3   OH223353   5.741   2.408   2.386 -0.3183 -0.4681  0.6125
  621TIP3    H123354   5.716   2.499   2.378 -1.5386 -0.7759  0.8481
  621TIP3    H223355   5.781   2.386   2.302 -0.5372  0.1188  0.3571
  622TIP3   OH223356   3.084   3.004  16.919  0.1121 -1.0096  0.1062
  622TIP3    H123357   3.166   3.047  16.943 -0.3749 -0.4990  0.8618
  622TIP3    H223358   3.088   2.919  16.964  1.9077 -2.5749 -2.8602
  623TIP3   OH223359   4.909   1.403  12.929 -0.3189  0.1626 -0.1324
  623TIP3    H123360   4.883   1.449  12.849  0.9314 -0.7600 -1.1038
  623TIP3    H223361   4.827   1.368  12.964 -0.7050 -0.9071 -1.9869
  624TIP3   OH223362   2.024   3.653   2.880  0.1611 -0.2510  0.0347
  624TIP3    H123363   1.971   3.581   2.916  0.1700 -0.4440 -0.3391
  624TIP3    H223364   2.086   3.673   2.950  0.4188 -0.8753 -0.0079
  625TIP3   OH223365   4.518   0.626  12.416  0.2802  0.5014 -0.1166
  625TIP3    H123366   4.445   0.602  12.359 -0.5517  0.7723  0.8180
  625TIP3    H223367   4.589   0.569  12.388 -1.4177 -2.5359  1.4751
  626TIP3   OH223368   1.289   1.015  16.149 -0.6938  0.1469  0.4828
  626TIP3    H123369   1.373   1.056  16.173 -0.3978  0.1313 -0.5342
  626TIP3    H223370   1.261   0.971  16.230  0.5468 -0.3153  0.6773
  627TIP3   OH223371   4.744   6.797  15.609 -0.0653  0.3700 -0.1913
  627TIP3    H123372   4.783   6.854  15.675  0.0787 -0.6113  0.5793
  627TIP3    H223373   4.811   6.790  15.541 -0.8202  2.6660 -1.2246
  628TIP3   OH223374   5.832   5.112  10.496  0.0304  0.5786  0.6033
  628TIP3    H123375   5.833   5.196  10.451  0.6196 -0.1261 -0.7479
  628TIP3    H223376   5.866   5.050  10.431  0.0916 -0.6105  1.7474
  629TIP3   OH223377   5.975   5.021  13.038 -0.1476 -0.4604 -0.6011
  629TIP3    H123378   5.938   4.938  13.009 -3.5689  0.6974  0.2821
  629TIP3    H223379   5.933   5.087  12.983  0.5454  0.9299  0.4968
  630TIP3   OH223380   6.541   4.489   4.277  0.7621 -0.7026  0.3629
  630TIP3    H123381   6.538   4.547   4.354 -0.0840  1.0600 -0.9450
  630TIP3    H223382   6.523   4.402   4.311 -0.5929  0.2045  2.0488
  631TIP3   OH223383   6.555   5.117  14.981 -0.6333  0.0573  0.1403
  631TIP3    H123384   6.493   5.178  15.020 -0.6160  0.8504 -1.0362
  631TIP3    H223385   6.641   5.151  15.005 -0.6356 -0.3344  0.7136
  632TIP3   OH223386   6.020   2.477  14.281  0.2025 -0.0564  0.0743
  632TIP3    H123387   6.007   2.553  14.225  0.8847 -0.3240 -0.4568
  632TIP3    H223388   6.081   2.507  14.348  1.0014 -0.3180 -0.5247
  633TIP3   OH223389   0.508   4.126  12.024  0.0660 -0.0176  0.4815
  633TIP3    H123390   0.434   4.172  12.064 -0.1146 -0.4710  0.6751
  633TIP3    H223391   0.468   4.074  11.953  0.3026  0.3273  0.0933
  634TIP3   OH223392   0.637   2.187  15.203 -0.2484 -0.0826 -0.2425
  634TIP3    H123393   0.543   2.173  15.215 -0.3586 -0.4321 -1.4224
  634TIP3    H223394   0.665   2.234  15.281 -1.5733  0.7614 -0.2673
  635TIP3   OH223395   5.747   6.525   5.677  0.4971 -0.3756 -0.1709
  635TIP3    H123396   5.652   6.515   5.687  0.6156 -1.8595 -0.3926
  635TIP3    H223397   5.758   6.603   5.623 -0.5087  1.3414  2.0686
  636TIP3   OH223398   5.615   3.079  14.513 -0.1931  0.3311  0.4396
  636TIP3    H123399   5.589   3.016  14.579 -0.0156  0.1394  0.3272
  636TIP3    H223400   5.535   3.125  14.490 -0.5801 -0.7765 -0.4671
  637TIP3   OH223401   3.746   0.316  14.746  0.1162 -0.2470  0.1189
  637TIP3    H123402   3.693   0.251  14.699  0.0396  0.1391 -0.3327
  637TIP3    H223403   3.821   0.266  14.778 -0.6155 -0.8423  0.9342
  638TIP3   OH223404   2.879   4.292  13.930  0.1549  0.5948 -0.1065
  638TIP3    H123405   2.922   4.217  13.972 -0.8058  0.1677  0.1069
  638TIP3    H223406   2.852   4.348  14.002  1.4356  1.4723 -0.2852
  639TIP3   OH223407   4.295   2.561  17.244  0.2512 -0.3782 -0.8661
  639TIP3    H123408   4.382   2.559  17.285  0.5247  1.6388 -1.2627
  639TIP3    H223409   4.313   2.550  17.151  0.1603  0.7901 -1.0273
  640TIP3   OH223410   0.082   5.536  12.928  0.3586  0.2121  0.1891
  640TIP3    H123411   0.166   5.492  12.914  0.0027  0.1727 -2.0238
  640TIP3    H223412   0.039   5.533  12.842 -2.2551 -0.4719  1.4828
  641TIP3   OH223413   1.043   2.946  11.313  0.1038  0.4082  0.1589
  641TIP3    H123414   1.035   2.920  11.405  1.9462  2.7781  1.0393
  641TIP3    H223415   0.952   2.953  11.282 -0.5604  0.5855  2.0947
  642TIP3   OH223416   0.866   1.949   1.536  0.2142  0.4273  0.4705
  642TIP3    H123417   0.897   2.010   1.603 -0.6331  0.4552  0.8442
  642TIP3    H223418   0.932   1.879   1.537 -0.0984  0.1257  1.7713
  643TIP3   OH223419   6.751   2.683  15.091 -1.0187  0.3877  0.5337
  643TIP3    H123420   6.714   2.596  15.109 -1.6996  0.6129  0.2461
  643TIP3    H223421   6.763   2.723  15.178 -0.3146 -0.1485  0.6893
  644TIP3   OH223422   5.222   0.742   3.489  0.2075 -0.0047  0.1751
  644TIP3    H123423   5.135   0.723   3.454  0.6501 -2.3693  0.2815
  644TIP3    H223424   5.233   0.681   3.562  1.8505  0.4384  0.3252
  645TIP3   OH223425   4.461   1.572   5.769 -0.3401 -0.4334 -0.2583
  645TIP3    H123426   4.372   1.560   5.801 -0.7976  1.0112 -0.9701
  645TIP3    H223427   4.506   1.617   5.841 -1.0445  1.7066 -1.1209
  646TIP3   OH223428   2.114   0.353  14.658 -0.2744 -0.2496  0.1567
  646TIP3    H123429   2.053   0.280  14.645 -0.4187  0.2355 -2.2401
  646TIP3    H223430   2.195   0.324  14.615 -0.5173  1.2017 -1.3512
  647TIP3   OH223431   5.558   6.570  14.248 -0.1588 -0.1956  0.2018
  647TIP3    H123432   5.618   6.552  14.175 -0.6468  0.9717 -0.5170
  647TIP3    H223433   5.505   6.644  14.217  1.5468  2.2338  2.8101
  648TIP3   OH223434   5.036   2.169  14.590  0.0095  0.3365 -0.2394
  648TIP3    H123435   4.998   2.114  14.659  1.2272 -0.9684 -0.5979
  648TIP3    H223436   5.054   2.252  14.634 -1.6216  0.4062  0.3592
  649TIP3   OH223437   2.256   5.047   4.630  0.4223  0.0734  0.2888
  649TIP3    H123438   2.163   5.028   4.637  0.5952 -0.5065  1.1195
  649TIP3    H223439   2.294   4.969   4.590  0.8283 -0.5336  1.7918
  650TIP3   OH223440   2.389   0.422  10.900 -0.3899  0.1589  0.0921
  650TIP3    H123441   2.319   0.486  10.909  0.0210  0.4940  0.9538
  650TIP3    H223442   2.467   0.466  10.934 -0.2328 -1.0143  1.2987
  651TIP3   OH223443   2.225   6.061   5.193  0.2772 -0.0768  0.4581
  651TIP3    H123444   2.309   6.104   5.205  0.2988  0.1653 -0.5397
  651TIP3    H223445   2.221   6.042   5.099 -1.7907  2.0385  0.0776
  652TIP3   OH223446   5.029   4.862  15.293  0.1816 -0.0850  0.0669
  652TIP3    H123447   5.072   4.939  15.328 -1.5615  0.1483  1.7981
  652TIP3    H223448   4.971   4.896  15.224  0.8889 -0.0992 -0.5385
  653TIP3   OH223449   3.183   0.955   1.304  0.3160 -0.3479 -0.0806
  653TIP3    H123450   3.231   1.036   1.319 -1.6600  0.9338 -0.4487
  653TIP3    H223451   3.135   0.939   1.385 -0.5760 -0.2461 -0.5768
  654TIP3   OH223452   2.833   6.280   4.091  0.0539  0.4396  0.2098
  654TIP3    H123453   2.785   6.198   4.102 -0.1806  0.7007  1.1809
  654TIP3    H223454   2.913   6.268   4.143 -0.3439  1.1165  0.9912
  655TIP3   OH223455   3.142   5.856  11.308 -0.4432 -0.3083  0.0573
  655TIP3    H123456   3.222   5.887  11.349 -0.6429 -0.7282  0.7782
  655TIP3    H223457   3.072   5.896  11.359 -0.7033 -1.9134  0.9923
  656TIP3   OH223458   5.761   2.795   3.698 -0.1998  0.0242 -0.2705
  656TIP3    H123459   5.684   2.826   3.745  0.7836  1.5662  0.3414
  656TIP3    H223460   5.800   2.873   3.659  2.0750 -0.4229  0.9546
  657TIP3   OH223461   4.759   3.583   1.825 -0.1775  0.2813  0.2067
  657TIP3    H123462   4.733   3.660   1.875  0.2172  0.0469  0.7774
  657TIP3    H223463   4.712   3.511   1.867  0.6190 -0.0036  0.6267
  658TIP3   OH223464   6.392   4.450  14.778 -0.1004  0.0600 -0.4324
  658TIP3    H123465   6.402   4.526  14.835 -1.5737  0.0701 -0.1796
  658TIP3    H223466   6.468   4.454  14.719 -0.6865  2.2969 -1.0678
  659TIP3   OH223467   5.131   2.990   1.199  0.0151  0.1277  0.5416
  659TIP3    H123468   5.131   2.896   1.218 -2.5911  0.5323  2.9022
  659TIP3    H223469   5.133   3.031   1.285 -1.7621  2.1928 -0.3665
  660TIP3   OH223470   4.206   2.837   1.983  0.0602 -0.1559  0.2929
  660TIP3    H123471   4.123   2.819   2.027  1.2589 -0.0748  2.7117
  660TIP3    H223472   4.195   2.922   1.942 -1.3104 -0.5106 -0.0736
  661TIP3   OH223473   4.074   5.527  17.161  0.2265 -0.0109 -0.1057
  661TIP3    H123474   4.031   5.522  17.076 -1.6837  0.6681  0.7984
  661TIP3    H223475   4.065   5.618  17.188 -0.2777 -0.4686  1.3525
  662TIP3   OH223476   5.020   5.304  15.247 -0.3723  0.6239 -0.4813
  662TIP3    H123477   5.070   5.380  15.218 -0.2535  0.8062  0.2117
  662TIP3    H223478   5.069   5.269  15.321 -0.2668 -0.3060 -0.9761
  663TIP3   OH223479   3.713   0.215  16.508 -0.1863 -0.1265  0.0831
  663TIP3    H123480   3.666   0.299  16.505  1.2071  0.6459 -0.2762
  663TIP3    H223481   3.683   0.169  16.429 -1.6590 -0.3735  0.7596
  664TIP3   OH223482   3.783   2.075  16.505 -0.0644 -0.3569  0.3416
  664TIP3    H123483   3.756   2.052  16.594 -1.1466  2.1347  0.7001
  664TIP3    H223484   3.862   2.129  16.517  1.0101 -1.7461 -0.3384
  665TIP3   OH223485   2.146   5.340  13.004 -0.4151 -0.5778  0.0396
  665TIP3    H123486   2.236   5.339  13.037 -1.0298  1.5581  1.8576
  665TIP3    H223487   2.154   5.375  12.915  0.3194  1.9853  1.0603
  666TIP3   OH223488   0.554   2.899   1.551 -0.3838  0.4248 -0.0366
  666TIP3    H123489   0.478   2.929   1.601 -0.5463 -1.3810  0.8210
  666TIP3    H223490   0.533   2.809   1.526  0.4734  0.7102 -1.8263
  667TIP3   OH223491   4.469   6.813  12.001 -0.3381 -0.0738  0.4325
  667TIP3    H123492   4.426   6.803  11.916 -0.0398 -0.7410  0.3618
  667TIP3    H223493   4.554   6.771  11.991  0.8592  2.3268  0.1984
  668TIP3   OH223494   1.467   4.509   0.128  0.7920  0.0799  0.1341
  668TIP3    H123495   1.428   4.595   0.110 -0.5692 -0.5739 -0.0924
  668TIP3    H223496   1.393   4.449   0.130  1.7062 -1.0476  0.6102
  669TIP3   OH223497   0.368   6.617  15.988 -0.0639 -0.4143  0.5697
  669TIP3    H123498   0.438   6.628  16.053 -0.0813 -0.9257  0.6776
  669TIP3    H223499   0.297   6.671  16.020 -0.1944 -0.9273  1.1614
  670TIP3   OH223500   4.355   3.330   0.590 -0.0982  0.2529  0.4326
  670TIP3    H123501   4.397   3.404   0.635  2.0441  0.4969 -1.8474
  670TIP3    H223502   4.407   3.254   0.615  0.4060  0.2184 -0.6670
  671TIP3   OH223503   5.861   4.723  10.469  0.8100  0.6830 -0.2050
  671TIP3    H123504   5.900   4.803  10.436  2.5158  0.7096  1.7617
  671TIP3    H223505   5.934   4.676  10.511 -0.6423 -0.7563  0.7849
  672TIP3   OH223506   6.546   0.470  16.021 -0.2823 -0.3529 -0.3051
  672TIP3    H123507   6.563   0.564  16.020 -0.2135 -0.3557  0.3343
  672TIP3    H223508   6.545   0.444  15.929  3.5498 -0.4019 -0.4271
  673TIP3   OH223509   6.783   1.052  15.170  0.1385  0.3923 -0.3146
  673TIP3    H123510   6.758   1.031  15.080 -1.4272 -1.2332  0.4463
  673TIP3    H223511   6.710   1.018  15.223  0.8109  1.7442  1.5221
  674TIP3   OH223512   2.517   5.674  17.071 -0.4011 -0.4977 -0.2643
  674TIP3    H123513   2.456   5.711  17.008 -0.1302  0.4465  0.0132
  674TIP3    H223514   2.462   5.641  17.142 -0.7815 -2.7675 -1.6007
  675TIP3   OH223515   3.533   6.234  13.750 -0.4947 -0.0958  0.0233
  675TIP3    H123516   3.489   6.186  13.679 -1.7856 -1.4212  1.6787
  675TIP3    H223517   3.583   6.301  13.705 -0.1488 -1.8004 -2.2723
  676TIP3   OH223518   0.101   4.905  13.174  1.3121 -0.2789 -0.1311
  676TIP3    H123519   0.156   4.967  13.222 -1.1156  1.2773  0.7084
  676TIP3    H223520   0.102   4.826  13.227  0.0378  0.8657  1.6615
  677TIP3   OH223521   1.670   6.652   2.026 -0.1882 -0.4611 -0.5714
  677TIP3    H123522   1.728   6.581   1.997  1.3280  0.5491 -0.0475
  677TIP3    H223523   1.726   6.710   2.077 -1.4286  1.0959 -0.9365
  678TIP3   OH223524   3.332   3.138   0.755  0.2573  0.7367  0.7030
  678TIP3    H123525   3.322   3.216   0.701 -0.9031  0.0552 -0.0780
  678TIP3    H223526   3.365   3.071   0.695 -0.5253  0.1252  0.9433
  679TIP3   OH223527   5.491   2.446  14.683 -0.2169  0.1924  0.3266
  679TIP3    H123528   5.455   2.395  14.610  0.5883 -0.4991  0.4014
  679TIP3    H223529   5.483   2.537  14.654  0.9782 -0.1130 -1.0672
  680TIP3   OH223530   2.577   4.223   1.426 -0.3884 -0.4123  0.3882
  680TIP3    H123531   2.562   4.178   1.509  0.9892  0.9641  1.4254
  680TIP3    H223532   2.498   4.276   1.413 -1.0708 -1.4537  0.2619
  681TIP3   OH223533   0.350   6.391  14.959 -0.2457  0.2194 -0.3865
  681TIP3    H123534   0.295   6.328  15.005 -0.4723  0.5976 -0.1302
  681TIP3    H223535   0.432   6.345  14.942  0.4284  0.5831  1.8000
  682TIP3   OH223536   1.804   0.538   0.390  0.0010 -0.2408 -0.8034
  682TIP3    H123537   1.885   0.565   0.347 -0.3348  1.3778 -0.4535
  682TIP3    H223538   1.751   0.618   0.394 -0.8045 -0.8370  0.7679
  683TIP3   OH223539   6.014   3.774  14.117 -0.9112 -0.4522 -0.5177
  683TIP3    H123540   5.921   3.759  14.099 -1.0696  0.8246 -0.8647
  683TIP3    H223541   6.015   3.814  14.204 -0.5588 -1.8718  0.1341
  684TIP3   OH223542   4.947   0.493  13.380 -0.0908 -0.3005 -0.3958
  684TIP3    H123543   5.040   0.516  13.370  0.1315 -0.4484  1.3075
  684TIP3    H223544   4.938   0.412  13.329  1.0321 -1.0321  0.5472
  685TIP3   OH223545   4.737   0.036   3.177 -0.1811 -0.4304  0.6942
  685TIP3    H123546   4.772   0.057   3.264 -0.4397  1.4096  0.3807
  685TIP3    H223547   4.776   0.101   3.119 -0.6626 -1.1304 -0.4314
  686TIP3   OH223548   0.904   1.281   1.493 -0.4980 -0.1361  0.1702
  686TIP3    H123549   0.822   1.266   1.540 -1.2098  2.6841 -0.0688
  686TIP3    H223550   0.937   1.364   1.528  2.5240 -1.4627  0.5983
  687TIP3   OH223551   1.475   4.263   2.213 -0.0634  0.0848 -0.6682
  687TIP3    H123552   1.505   4.269   2.303 -0.8908 -2.1230 -0.2111
  687TIP3    H223553   1.515   4.182   2.180 -1.1196 -0.0116 -1.7408
  688TIP3   OH223554   3.753   5.929   1.802  0.4213  0.6661  0.4263
  688TIP3    H123555   3.760   5.931   1.898  0.9511  0.5182  0.3894
  688TIP3    H223556   3.665   5.963   1.784  0.3187  0.6897  0.9660
  689TIP3   OH223557   4.796   6.193  14.323  0.4907 -0.2066  0.4501
  689TIP3    H123558   4.710   6.214  14.286  0.3318 -0.6573  0.5581
  689TIP3    H223559   4.806   6.254  14.396  0.9743  0.9503 -0.5700
  690TIP3   OH223560   2.048   4.848  17.270  0.0922 -0.3574  0.2051
  690TIP3    H123561   1.996   4.822  17.347  0.1877  0.2012  0.4593
  690TIP3    H223562   2.082   4.765  17.236  0.1873 -0.5955  0.8635
  691TIP3   OH223563   2.726   2.892   3.705  0.3680  0.1644  0.0098
  691TIP3    H123564   2.805   2.840   3.721  0.1061 -0.6856 -1.3912
  691TIP3    H223565   2.758   2.982   3.698  1.1563 -0.1122 -0.0076
  692TIP3   OH223566   0.631   4.242   0.273  0.5409 -0.3124 -0.0334
  692TIP3    H123567   0.652   4.333   0.252 -0.8211  0.0661  0.2216
  692TIP3    H223568   0.660   4.232   0.364 -1.2836  0.5234  0.6740
  693TIP3   OH223569   5.231   2.462  17.015 -0.7951  0.5530 -0.1464
  693TIP3    H123570   5.172   2.427  17.081  0.2589  0.6603  0.8598
  693TIP3    H223571   5.190   2.545  16.988 -1.5259  0.2220 -0.0740
  694TIP3   OH223572   4.157   3.773   3.031 -0.0684 -0.6124 -0.1292
  694TIP3    H123573   4.168   3.760   3.125  3.0767 -1.0127 -0.5025
  694TIP3    H223574   4.160   3.684   2.995 -0.1398 -0.3864 -0.6918
  695TIP3   OH223575   5.686   4.188   0.587 -0.2036 -0.2002  0.5256
  695TIP3    H123576   5.670   4.094   0.582  0.8043 -0.2915 -1.0958
  695TIP3    H223577   5.765   4.196   0.640 -0.3302 -0.2567  0.7230
  696TIP3   OH223578   4.165   6.462  14.893 -0.1377 -0.2366 -0.0490
  696TIP3    H123579   4.185   6.553  14.916  1.7826 -0.8978  1.0067
  696TIP3    H223580   4.250   6.420  14.888 -0.7964 -1.3521 -3.4192
  697TIP3   OH223581   4.139   5.416   3.572  0.0070  0.2922  0.3325
  697TIP3    H123582   4.215   5.454   3.616  0.4617  1.6911 -1.5824
  697TIP3    H223583   4.135   5.462   3.488 -0.7433 -2.3962 -1.1370
  698TIP3   OH223584   2.443   5.551   5.986  0.5091 -0.1740 -0.0170
  698TIP3    H123585   2.412   5.524   5.900  0.7515  1.1098 -0.5177
  698TIP3    H223586   2.491   5.475   6.019  1.7870 -0.1435 -1.7076
  699TIP3   OH223587   2.469   1.931  13.978 -0.2275 -0.7015 -0.1929
  699TIP3    H123588   2.518   1.857  14.012  2.0323 -0.3449 -2.5612
  699TIP3    H223589   2.535   1.997  13.958 -2.0522  1.3769  0.3657
  700TIP3   OH223590   2.653   0.324   5.215 -0.8643 -0.2410 -0.6784
  700TIP3    H123591   2.731   0.372   5.243 -1.5071  0.2868  0.2302
  700TIP3    H223592   2.680   0.279   5.135  0.5163 -0.4374 -0.1180
  701TIP3   OH223593   6.060   3.442  16.798 -0.3598 -0.5530  0.3312
  701TIP3    H123594   6.115   3.433  16.876  0.8581 -0.3315 -0.4921
  701TIP3    H223595   5.978   3.478  16.831 -0.2952 -1.6182  1.6819
  702TIP3   OH223596   4.950   3.968   2.917  0.0571 -0.0174 -0.1550
  702TIP3    H123597   4.905   3.884   2.924  1.0409 -0.5437 -0.1182
  702TIP3    H223598   5.018   3.965   2.984  0.2185  0.7401 -0.2723
  703TIP3   OH223599   3.879   4.070   6.714  0.2389  0.6305 -0.5831
  703TIP3    H123600   3.810   4.130   6.743 -1.6050 -1.2471 -0.9933
  703TIP3    H223601   3.872   4.070   6.619  0.0256 -0.4910 -0.5659
  704TIP3   OH223602   5.960   2.998  14.350 -0.0192  0.2778  0.7646
  704TIP3    H123603   5.978   3.036  14.264 -0.2093 -0.2956  0.4689
  704TIP3    H223604   5.957   2.903  14.334  1.8680  0.0288  1.7380
  705TIP3   OH223605   6.799   4.615  12.110  0.0788  0.1442 -0.3908
  705TIP3    H123606   6.804   4.678  12.038 -1.4905 -0.8961 -1.4411
  705TIP3    H223607   6.889   4.585  12.122  0.3515  0.2806 -1.9673
  706TIP3   OH223608   0.214   4.807  13.822 -0.6004  0.2898  0.0628
  706TIP3    H123609   0.127   4.767  13.822 -0.8633  0.8554 -0.0438
  706TIP3    H223610   0.233   4.826  13.914  0.0510 -1.1924  0.2569
  707TIP3   OH223611   4.715   5.783   5.697  0.1650 -0.2403  0.2385
  707TIP3    H123612   4.788   5.778   5.757  0.9842  0.6634 -0.6602
  707TIP3    H223613   4.657   5.850   5.734 -0.5255 -1.4039  1.2790
  708TIP3   OH223614   0.990   6.760  11.240 -0.3218 -0.3324 -0.1457
  708TIP3    H123615   0.992   6.672  11.203 -1.4684 -0.0841 -0.8213
  708TIP3    H223616   1.004   6.818  11.165  1.1536  0.0378  0.4080
  709TIP3   OH223617   1.924   3.141   1.113  0.2288  0.4583  0.3673
  709TIP3    H123618   1.829   3.140   1.112  0.2156  1.3386  0.3884
  709TIP3    H223619   1.950   3.056   1.077 -0.5685 -0.5600  2.1348
  710TIP3   OH223620   6.275   5.270   2.259 -0.1645 -0.1053 -0.1676
  710TIP3    H123621   6.189   5.288   2.298  0.2705 -0.8943  1.1923
  710TIP3    H223622   6.334   5.334   2.298  0.4466 -1.4471  1.1363
  711TIP3   OH223623   0.016   5.815   0.084 -0.2893  0.8465 -0.5637
  711TIP3    H123624   0.084   5.760   0.124  0.1976  1.5517 -0.4120
  711TIP3    H223625  -0.008   5.769   0.004 -1.2495 -0.5700  0.4938
  712TIP3   OH223626   6.532   4.816  17.114 -0.7007 -0.2152  0.4395
  712TIP3    H123627   6.563   4.835  17.203 -1.3496 -0.8170  0.8069
  712TIP3    H223628   6.462   4.881  17.100  1.0681  1.5005 -0.5958
  713TIP3   OH223629   0.247   4.731   0.986 -0.3494 -0.2693 -0.1391
  713TIP3    H123630   0.296   4.674   0.927 -2.0860 -1.8348 -0.0961
  713TIP3    H223631   0.311   4.756   1.053  0.3391 -2.4925  0.0701
  714TIP3   OH223632   2.407   0.686  12.193 -0.0034  0.1142 -0.6304
  714TIP3    H123633   2.400   0.670  12.099 -0.4543  0.3922 -0.6410
  714TIP3    H223634   2.317   0.699  12.222  0.2929  1.8470 -0.4680
  715TIP3   OH223635   4.829   0.770   4.405 -0.0451 -0.2855 -0.4361
  715TIP3    H123636   4.793   0.745   4.320 -0.4992 -1.6732  0.1557
  715TIP3    H223637   4.759   0.751   4.468  1.6408 -3.0000  0.7204
  716TIP3   OH223638   3.616   3.345   4.527 -0.2259  0.4355  0.0532
  716TIP3    H123639   3.596   3.374   4.438  1.1156  0.5155 -0.2366
  716TIP3    H223640   3.530   3.329   4.567 -0.8867  1.7541 -0.7948
  717TIP3   OH223641   4.210   2.851  13.061  0.5480  0.3174  0.3781
  717TIP3    H123642   4.162   2.895  12.991  1.4502  2.6517  1.1469
  717TIP3    H223643   4.298   2.837  13.026  1.1673  1.9967  1.1815
  718TIP3   OH223644   5.747   0.556   0.045 -0.1069  0.5097 -0.0583
  718TIP3    H123645   5.788   0.494  -0.014  1.6525 -1.6092  3.2656
  718TIP3    H223646   5.653   0.535   0.041  0.4268 -2.1402  0.7446
  719TIP3   OH223647   3.080   6.702  14.443 -0.1679 -0.1063 -0.3202
  719TIP3    H123648   2.993   6.682  14.478 -0.5276  0.7182 -0.7210
  719TIP3    H223649   3.069   6.699  14.348 -0.2513  2.0172 -0.3919
  720TIP3   OH223650   5.963   1.462   2.995  0.4088 -0.3379 -0.2724
  720TIP3    H123651   5.992   1.517   3.068  0.3300  0.3694 -0.7689
  720TIP3    H223652   5.947   1.376   3.034  2.1196 -0.4558  0.2150
  721TIP3   OH223653   5.489   6.503  13.870 -0.4579  0.1467 -0.4361
  721TIP3    H123654   5.564   6.475  13.924 -0.7292 -1.2156 -0.7615
  721TIP3    H223655   5.526   6.569  13.811 -0.0780  1.4282  1.1777
  722TIP3   OH223656   5.110   2.543   2.797 -0.0796 -0.1373  0.0329
  722TIP3    H123657   5.088   2.548   2.704  0.8171 -1.0244 -0.2345
  722TIP3    H223658   5.165   2.465   2.804  2.3953  1.6138  0.7697
  723TIP3   OH223659   5.315   2.355   1.261 -0.3440 -0.2693  0.0441
  723TIP3    H123660   5.392   2.377   1.313 -0.3723 -0.3696  0.1312
  723TIP3    H223661   5.245   2.408   1.299 -0.0461  0.7929 -0.8782
  724TIP3   OH223662   6.591   3.204  11.891 -0.4820  0.7647  0.4081
  724TIP3    H123663   6.646   3.132  11.923 -1.5167  0.2669  1.1105
  724TIP3    H223664   6.600   3.200  11.796 -1.1997 -0.8477  0.3945
  725TIP3   OH223665   0.185   0.952  14.888 -0.0478  0.0669 -0.3648
  725TIP3    H123666   0.257   0.928  14.830  1.4396 -0.4190  1.6128
  725TIP3    H223667   0.165   1.043  14.866  1.0397  0.1465 -1.0650
  726TIP3   OH223668   0.106   1.900  15.146 -0.0919  0.0066 -0.6277
  726TIP3    H123669   0.197   1.911  15.173 -0.2137 -1.3891  0.4027
  726TIP3    H223670   0.056   1.908  15.228 -0.7127 -1.2937 -0.8712
  727TIP3   OH223671   5.310   3.570   1.332  0.7869  0.4741 -0.3260
  727TIP3    H123672   5.238   3.510   1.351  2.4352 -0.8348  2.0379
  727TIP3    H223673   5.348   3.537   1.250 -0.7478  0.6567 -1.1226
  728TIP3   OH223674   0.511   0.620  11.458 -1.1379  0.2225  0.2318
  728TIP3    H123675   0.445   0.612  11.527 -2.8758 -2.0161 -1.5847
  728TIP3    H223676   0.467   0.671  11.389 -1.1962 -1.7087 -1.2028
  729TIP3   OH223677   1.952   5.741  14.299 -0.0917  0.4692 -0.1669
  729TIP3    H123678   1.867   5.727  14.257 -0.4876 -1.1151  1.1017
  729TIP3    H223679   2.011   5.764  14.228 -1.5538  1.4507 -1.0786
  730TIP3   OH223680   3.322   6.539   1.712  0.1540  0.1957  0.1286
  730TIP3    H123681   3.395   6.598   1.729  0.7436 -0.0584 -1.5056
  730TIP3    H223682   3.296   6.508   1.799  2.3977 -0.2273  0.6739
  731TIP3   OH223683   4.081   2.118   1.851 -0.2743  0.6356  0.2962
  731TIP3    H123684   4.164   2.080   1.880  1.0952  3.0570 -0.2796
  731TIP3    H223685   4.015   2.073   1.902  1.3590 -1.6634  0.4534
  732TIP3   OH223686   5.384   1.519   6.574  0.7591  0.5776 -0.5313
  732TIP3    H123687   5.430   1.436   6.562 -0.7974 -0.4648  0.5385
  732TIP3    H223688   5.428   1.561   6.648  0.1526 -0.3098  0.3451
  733TIP3   OH223689   2.656   3.486   4.778 -0.0643  0.0713  0.8837
  733TIP3    H123690   2.749   3.462   4.775  0.6490  2.7560 -0.6304
  733TIP3    H223691   2.610   3.408   4.749  2.0098 -0.1788 -1.9609
  734TIP3   OH223692   1.915   6.034   0.055 -0.2603  0.0151  0.4813
  734TIP3    H123693   1.874   5.960   0.099  1.1681 -1.2572 -0.2917
  734TIP3    H223694   1.953   5.997  -0.025  3.9912  0.7292  2.0408
  735TIP3   OH223695   1.901   6.722  16.760 -0.1636 -0.0670 -0.2454
  735TIP3    H123696   1.934   6.755  16.676 -0.6065 -1.5471 -1.0030
  735TIP3    H223697   1.931   6.631  16.764  1.1667  0.4169  1.9024
  736TIP3   OH223698   0.957   5.934   5.781 -0.2156  0.1627  0.4564
  736TIP3    H123699   0.913   5.866   5.730  0.0634  0.3165  0.0086
  736TIP3    H223700   0.977   5.892   5.864 -0.5269 -0.1393  0.3798
  737TIP3   OH223701   4.676   5.296  14.051  0.2285  0.0135  0.2331
  737TIP3    H123702   4.608   5.363  14.045  0.6343  0.4476  0.4447
  737TIP3    H223703   4.660   5.253  14.135 -0.2412 -0.3886 -0.0572
  738TIP3   OH223704   4.655   4.714  17.238 -0.1363 -0.2419 -0.9138
  738TIP3    H123705   4.595   4.667  17.296 -1.2982  0.8691 -1.1951
  738TIP3    H223706   4.644   4.673  17.153 -0.3276 -0.1918 -0.9122
  739TIP3   OH223707   5.695   4.156   5.454  0.2323 -0.1378 -0.2515
  739TIP3    H123708   5.755   4.109   5.396  0.9263  0.6475 -0.1680
  739TIP3    H223709   5.630   4.194   5.395  0.7397  0.3724 -0.4841
  740TIP3   OH223710   2.092   0.429  16.415 -0.0447  0.0283 -0.1325
  740TIP3    H123711   2.135   0.515  16.414 -0.1586  0.0855 -0.3259
  740TIP3    H223712   2.003   0.448  16.444  0.4033 -0.2609  1.4373
  741TIP3   OH223713   2.965   6.173  11.830  0.1768 -0.0061 -0.1609
  741TIP3    H123714   3.005   6.121  11.760  0.1452  0.4247 -0.5006
  741TIP3    H223715   2.969   6.263  11.798  0.3188  0.2130  0.4712
  742TIP3   OH223716   1.613   2.725  14.887  0.1676 -0.0486  0.2607
  742TIP3    H123717   1.646   2.677  14.963 -1.9764 -1.1405  0.5721
  742TIP3    H223718   1.591   2.656  14.823  0.6018  0.7673 -0.7809
  743TIP3   OH223719   4.315   4.746   3.003 -0.3820  0.4491  0.4395
  743TIP3    H123720   4.278   4.762   2.916  1.1502 -0.5699 -0.4157
  743TIP3    H223721   4.303   4.652   3.017  0.6289  0.3559  0.7286
  744TIP3   OH223722   2.752   1.116  14.581  0.4524  0.0910  0.1061
  744TIP3    H123723   2.721   1.203  14.604  0.4736  0.2254 -0.3773
  744TIP3    H223724   2.788   1.081  14.662 -0.4517  0.1488  0.5388
  745TIP3   OH223725   5.872   5.623  16.150 -0.5041  0.0884  0.3445
  745TIP3    H123726   5.906   5.592  16.065  0.1622  1.0937  0.2343
  745TIP3    H223727   5.798   5.565  16.168 -1.0940  0.2966 -1.2720
  746TIP3   OH223728   1.341   3.464   6.867 -0.3905  0.1222 -0.3034
  746TIP3    H123729   1.429   3.435   6.844 -0.6823  0.3759 -1.7755
  746TIP3    H223730   1.337   3.555   6.838 -1.0490  0.2014  0.0234
  747TIP3   OH223731   5.874   2.375   5.239 -0.5269  0.1165  0.5770
  747TIP3    H123732   5.968   2.360   5.243 -0.3873  0.4264 -0.9458
  747TIP3    H223733   5.849   2.402   5.327  0.9461  0.7449  0.8074
  748TIP3   OH223734   2.791   5.663   1.455 -0.5415 -0.0252  0.1106
  748TIP3    H123735   2.789   5.572   1.486 -0.0404 -0.2922 -0.5951
  748TIP3    H223736   2.807   5.715   1.533  0.2796 -0.6448  0.3681
  749TIP3   OH223737   6.153   3.292   2.356  0.5065  0.0419 -0.2380
  749TIP3    H123738   6.223   3.274   2.294  0.6805  0.8895 -0.2885
  749TIP3    H223739   6.183   3.368   2.405 -0.2476  0.2234 -0.0516
  750TIP3   OH223740   3.233   0.062   0.106  0.1578 -0.2356  0.4603
  750TIP3    H123741   3.254   0.153   0.125 -0.9573  1.0588 -3.8038
  750TIP3    H223742   3.137   0.059   0.106  0.1835 -1.4566  0.6927
  751TIP3   OH223743   6.080   3.819  11.433  0.2090 -0.1391  0.2513
  751TIP3    H123744   6.079   3.886  11.365 -0.3264 -1.1060 -0.7176
  751TIP3    H223745   6.100   3.737  11.386  1.7339 -0.5360  1.5273
  752TIP3   OH223746   1.047   1.473   3.993  0.4865  0.6233 -0.0642
  752TIP3    H123747   1.136   1.456   3.963  0.0168 -1.2412 -0.4649
  752TIP3    H223748   0.997   1.397   3.965 -1.1288  1.3875  0.6496
  753TIP3   OH223749   4.588   4.606  11.119 -0.3774 -0.1852 -0.6032
  753TIP3    H123750   4.530   4.545  11.163  0.6968 -1.2056 -0.5706
  753TIP3    H223751   4.637   4.553  11.056 -0.1307  0.8152 -1.2827
  754TIP3   OH223752   4.513   0.427  13.829 -0.6220  0.5771 -0.1183
  754TIP3    H123753   4.455   0.474  13.889  0.9634  2.5432 -0.0908
  754TIP3    H223754   4.457   0.406  13.754 -1.4828  2.0590  0.0960
  755TIP3   OH223755   2.915   6.089  15.170  0.4527  0.2792 -0.0019
  755TIP3    H123756   2.959   6.073  15.253  1.3991  2.9358  0.0432
  755TIP3    H223757   2.868   6.171  15.182 -0.3843  0.0859 -1.7107
  756TIP3   OH223758   0.012   3.563   3.486  0.4431  0.2425 -0.6428
  756TIP3    H123759   0.040   3.652   3.464  1.1979  1.0659  3.3258
  756TIP3    H223760   0.093   3.516   3.501 -0.0168 -0.6656 -0.9908
  757TIP3   OH223761   3.055   6.515   1.962 -0.1841  0.3524 -0.5882
  757TIP3    H123762   3.028   6.459   1.890 -0.5702 -1.3610  0.8427
  757TIP3    H223763   3.010   6.479   2.039  1.1568  1.3792  0.7190
  758TIP3   OH223764   3.043   4.076  14.084 -0.3276  0.0641 -0.0175
  758TIP3    H123765   2.984   4.005  14.109 -0.2020  0.0328  0.1872
  758TIP3    H223766   3.034   4.141  14.154 -0.1010  0.0487  0.0249
  759TIP3   OH223767   5.113   3.276  16.688  0.4506  0.1819 -0.4810
  759TIP3    H123768   5.108   3.345  16.754  0.2282  0.3537 -0.6772
  759TIP3    H223769   5.024   3.269  16.654  0.6898  0.5380 -1.2063
  760TIP3   OH223770   5.265   6.424   3.534 -0.0431  0.3161 -0.6336
  760TIP3    H123771   5.210   6.501   3.525  1.5504  1.5340 -0.0419
  760TIP3    H223772   5.207   6.357   3.569 -1.0258  1.7288  0.4817
  761TIP3   OH223773   5.384   1.610   0.802 -0.7184  0.1270 -0.1620
  761TIP3    H123774   5.395   1.558   0.881  0.5142 -0.7559 -0.8985
  761TIP3    H223775   5.309   1.570   0.757 -1.6951  0.9007  0.7552
  762TIP3   OH223776   1.753   3.148   5.350 -0.4463 -0.4618 -0.0868
  762TIP3    H123777   1.695   3.106   5.286  0.2528 -0.3561 -0.8130
  762TIP3    H223778   1.835   3.160   5.302 -0.7552  2.1014 -0.0154
  763TIP3   OH223779   2.869   6.795  12.559  0.0051 -0.3890 -0.3218
  763TIP3    H123780   2.818   6.866  12.597 -0.8571 -0.4616 -1.3355
  763TIP3    H223781   2.945   6.838  12.519  0.1914 -0.1812  0.2559
  764TIP3   OH223782   2.511   5.529   6.524  0.2402 -0.1127  0.1451
  764TIP3    H123783   2.550   5.601   6.475  0.5016 -0.7558 -0.6094
  764TIP3    H223784   2.583   5.466   6.537 -0.1808 -0.6211  0.0512
  765TIP3   OH223785   3.098   3.638  14.414 -0.1130  0.2562  0.0509
  765TIP3    H123786   3.107   3.685  14.331  0.0112  0.0523 -0.0517
  765TIP3    H223787   3.007   3.606  14.413 -0.2177  0.5560  0.1532
  766TIP3   OH223788   5.037   3.263  13.394 -0.3810 -0.6555 -0.5973
  766TIP3    H123789   5.038   3.188  13.453 -1.1245 -0.3915 -0.2433
  766TIP3    H223790   4.968   3.320  13.428 -1.6534 -1.0624 -2.4349
  767TIP3   OH223791   2.304   6.205   4.670  0.4584 -0.2073  0.1620
  767TIP3    H123792   2.219   6.177   4.703  0.5561  0.0238  0.6189
  767TIP3    H223793   2.284   6.267   4.600  0.2482 -0.7729 -0.2808
  768TIP3   OH223794   1.611   6.167   0.219  1.1625 -0.2126  0.1451
  768TIP3    H123795   1.619   6.141   0.127 -2.1703  0.0854 -0.3049
  768TIP3    H223796   1.550   6.241   0.217  0.9928 -0.2536  2.5916
  769TIP3   OH223797   4.447   6.402  13.624 -0.0263 -0.1876 -0.1808
  769TIP3    H123798   4.453   6.464  13.697  2.3580  1.6898 -1.8827
  769TIP3    H223799   4.538   6.375  13.608 -0.7925 -2.4955 -0.8843
  770TIP3   OH223800   3.529   4.252  11.857  0.0252  0.5191  0.0720
  770TIP3    H123801   3.510   4.265  11.764  0.5043  0.3647 -0.0460
  770TIP3    H223802   3.455   4.199  11.889  0.3895 -0.3193 -0.4542
  771TIP3   OH223803   3.211   6.083  14.862  0.5876  0.6588  0.0390
  771TIP3    H123804   3.201   6.169  14.902 -0.2824  1.7065 -2.3283
  771TIP3    H223805   3.142   6.030  14.901  0.2273  1.4412  0.4699
  772TIP3   OH223806   1.109   2.805  13.504  0.2447  0.2616  0.0675
  772TIP3    H123807   1.165   2.855  13.564 -0.8810  1.2584  0.3111
  772TIP3    H223808   1.022   2.809  13.544  0.0418 -1.5015 -0.1679
  773TIP3   OH223809   3.137   1.931   4.108  0.0035  0.0584 -0.3146
  773TIP3    H123810   3.048   1.951   4.079  0.9443  1.4417 -2.3578
  773TIP3    H223811   3.169   2.013   4.146  1.0656  0.1154 -1.3174
  774TIP3   OH223812   6.751   0.325  13.752 -0.0006  0.2751  0.3086
  774TIP3    H123813   6.701   0.367  13.822 -0.0240  0.9891 -0.1335
  774TIP3    H223814   6.710   0.357  13.671  0.2286 -0.2955 -0.0341
  775TIP3   OH223815   4.447   1.493   2.726 -0.5856 -0.1003 -0.3489
  775TIP3    H123816   4.378   1.432   2.698 -2.3099  0.6220  2.0919
  775TIP3    H223817   4.526   1.463   2.681 -1.6039 -3.5331  0.0209
  776TIP3   OH223818   1.631   0.508   2.128 -0.6547  0.1287  0.4055
  776TIP3    H123819   1.627   0.451   2.052  1.5593  0.1416  0.2484
  776TIP3    H223820   1.696   0.468   2.185 -1.0172  1.0632  1.5088
  777TIP3   OH223821   0.599   4.744   0.999 -0.8365 -0.0521  0.1554
  777TIP3    H123822   0.580   4.724   1.090 -0.1846 -2.2404 -0.1478
  777TIP3    H223823   0.666   4.680   0.974 -1.3350  0.2059 -1.9817
  778TIP3   OH223824   4.850   3.895  14.000 -0.4183 -0.0678  0.1973
  778TIP3    H123825   4.886   3.880  13.913  0.3677  0.0139  0.5139
  778TIP3    H223826   4.816   3.809  14.026 -0.8086 -0.0566 -0.2476
  779TIP3   OH223827   3.771   3.793  15.146  0.3617 -0.1838  0.5826
  779TIP3    H123828   3.780   3.724  15.080  1.1737  0.8399 -0.4135
  779TIP3    H223829   3.852   3.843  15.137 -1.9120  3.3282 -1.5451
  780TIP3   OH223830   0.571   3.662  10.303  0.5406 -0.7440 -0.0624
  780TIP3    H123831   0.507   3.733  10.296  1.1686  0.1340  2.3814
  780TIP3    H223832   0.528   3.587  10.264 -1.3795  0.2242  0.1210
  781TIP3   OH223833   6.330   3.513  14.501  0.2167  0.2231  0.3046
  781TIP3    H123834   6.397   3.475  14.558  0.0075  0.6141  0.8132
  781TIP3    H223835   6.361   3.495  14.412  0.8045  0.0627  0.5408
  782TIP3   OH223836   5.992   2.221  12.895 -0.5372  0.1104  0.3669
  782TIP3    H123837   5.982   2.271  12.814 -1.4077 -1.1598 -0.3363
  782TIP3    H223838   6.081   2.188  12.892 -0.4529  0.3649  0.0871
  783TIP3   OH223839   3.999   3.183  16.231  0.7604  0.0775 -0.0748
  783TIP3    H123840   4.090   3.166  16.207  0.6636  0.1121 -0.4843
  783TIP3    H223841   3.961   3.222  16.152  0.4640  0.3227  0.1887
  784TIP3   OH223842   2.277   5.605  16.546  0.3162  0.1060  0.5149
  784TIP3    H123843   2.322   5.522  16.530 -0.1898 -0.2843  1.1118
  784TIP3    H223844   2.200   5.602  16.489 -1.0745 -0.9555  2.3615
  785TIP3   OH223845   6.793   3.156  10.957  0.2706  0.1083  0.3273
  785TIP3    H123846   6.719   3.216  10.960  1.6558  1.9855 -1.3862
  785TIP3    H223847   6.777   3.102  10.879 -0.5980 -1.2580  1.4437
  786TIP3   OH223848   2.793   3.005   1.646 -0.6631  0.2686  0.0808
  786TIP3    H123849   2.821   3.052   1.568 -1.0678  0.7279  0.2034
  786TIP3    H223850   2.719   2.952   1.617 -0.3028 -0.1701 -0.0247
  787TIP3   OH223851   2.387   6.777  14.699  0.1192  0.2983 -0.0853
  787TIP3    H123852   2.418   6.714  14.765 -0.5324 -0.3455 -0.3946
  787TIP3    H223853   2.323   6.830  14.746 -1.3949 -1.0759 -0.5744
  788TIP3   OH223854   3.966   6.333  16.575 -0.5394 -0.1247  0.0357
  788TIP3    H123855   4.031   6.347  16.645  0.6593 -0.1741 -1.0395
  788TIP3    H223856   3.919   6.416  16.569  0.5027  0.4517 -0.2485
  789TIP3   OH223857   3.268   5.242   4.310 -0.4391  0.0219 -0.2769
  789TIP3    H123858   3.319   5.163   4.327 -0.7565  0.1111  1.0822
  789TIP3    H223859   3.330   5.314   4.323 -0.5144  0.0630 -0.1489
  790TIP3   OH223860   3.892   0.401   2.731  0.3190 -0.0968  0.4574
  790TIP3    H123861   3.797   0.392   2.722  0.3594 -0.8220  0.7457
  790TIP3    H223862   3.908   0.494   2.719 -0.3135 -0.1212 -0.6641
  791TIP3   OH223863   0.547   4.028  15.349  1.2215 -0.5038  0.2494
  791TIP3    H123864   0.477   3.984  15.301  0.7511 -1.1804  1.5333
  791TIP3    H223865   0.525   4.016  15.442  1.7104  1.4235  0.6459
  792TIP3   OH223866   3.306   5.526   5.100  0.7492 -0.4906 -0.1033
  792TIP3    H123867   3.396   5.496   5.106  0.9317  0.2650  1.0833
  792TIP3    H223868   3.287   5.563   5.186 -0.3728  0.2564 -0.6562
  793TIP3   OH223869   0.037   0.006  15.016 -0.0241  0.0833  0.0522
  793TIP3    H123870   0.115  -0.043  15.042 -0.1101 -0.1045 -0.0429
  793TIP3    H223871  -0.026  -0.010  15.086 -0.3091 -0.5505 -0.3510
  794TIP3   OH223872   5.335   1.324   4.677  0.1197 -0.1314  0.1925
  794TIP3    H123873   5.348   1.233   4.650  0.9743 -0.2879  1.0773
  794TIP3    H223874   5.278   1.319   4.753  2.2480 -0.1615  1.8407
  795TIP3   OH223875   1.744   1.422   2.953  0.3767 -0.0700  0.1833
  795TIP3    H123876   1.733   1.469   3.036 -1.2082  1.2663 -0.7419
  795TIP3    H223877   1.820   1.464   2.912  1.0686 -0.6298  0.8671
  796TIP3   OH223878   5.523   5.184   3.872 -0.7944  0.2510  0.4396
  796TIP3    H123879   5.571   5.109   3.838 -1.1454 -0.2142  0.9689
  796TIP3    H223880   5.511   5.241   3.796  0.3589  0.2458  0.2537
  797TIP3   OH223881   1.198   3.262   3.187  0.1721  0.0239 -0.3068
  797TIP3    H123882   1.152   3.225   3.262  0.7415 -0.6800 -0.3001
  797TIP3    H223883   1.169   3.209   3.112  2.5731 -1.8326  0.0149
  798TIP3   OH223884   1.999   2.551  15.764 -0.4290 -0.5935 -0.1428
  798TIP3    H123885   2.001   2.611  15.690 -0.8053  0.4196  0.6699
  798TIP3    H223886   2.089   2.550  15.797 -0.3579 -0.7109 -0.3390
  799TIP3   OH223887   4.942   0.758   0.542 -0.2282  0.5110  0.0800
  799TIP3    H123888   4.981   0.842   0.518  0.3533  1.0063  2.6329
  799TIP3    H223889   4.895   0.775   0.624  0.0630 -1.6891  0.7581
  800TIP3   OH223890   1.965   6.384  12.043  0.3881 -0.2787  0.1785
  800TIP3    H123891   2.058   6.407  12.039  0.4891 -0.8772 -1.2750
  800TIP3    H223892   1.961   6.310  12.103  0.9309 -0.6540 -0.2417
  801TIP3   OH223893   5.074   4.392   4.010 -0.0023  0.0258 -0.5023
  801TIP3    H123894   5.051   4.485   4.013  0.5120  0.1692 -0.7880
  801TIP3    H223895   5.024   4.357   3.937 -0.9441 -0.1375  0.2209
  802TIP3   OH223896   5.192   2.229  15.871  0.0211  0.0420  0.4926
  802TIP3    H123897   5.190   2.267  15.958 -0.9912 -0.6429  0.7761
  802TIP3    H223898   5.281   2.245  15.839 -0.0057  1.4805  1.1137
  803TIP3   OH223899   2.520   0.688   4.764 -0.1579 -0.6845  0.3601
  803TIP3    H123900   2.450   0.711   4.826 -0.4647 -3.2016  1.0407
  803TIP3    H223901   2.473   0.669   4.682 -0.1206 -0.9325  0.3964
  804TIP3   OH223902   3.919   4.057   0.792 -0.0550 -0.2217  0.3484
  804TIP3    H123903   3.999   4.084   0.837 -0.5527  0.8005  0.6361
  804TIP3    H223904   3.929   4.092   0.703 -0.3286  0.1703  0.4753
  805TIP3   OH223905   1.990   0.162  13.075 -0.2529 -0.0512 -0.3281
  805TIP3    H123906   1.955   0.169  12.986 -0.2441  0.9762 -0.2533
  805TIP3    H223907   1.963   0.075  13.104  0.0618 -0.5439 -1.4687
  806TIP3   OH223908   2.868   5.741   4.342 -0.0214 -0.1988  0.4897
  806TIP3    H123909   2.910   5.826   4.352 -1.0162  0.1574  1.6321
  806TIP3    H223910   2.844   5.714   4.430  1.0265 -2.0542  0.2487
  807TIP3   OH223911   3.477   4.356   0.783 -0.3051 -0.3860 -0.2758
  807TIP3    H123912   3.519   4.296   0.722  1.3736 -0.2197  0.6845
  807TIP3    H223913   3.440   4.300   0.851  0.0135 -0.4167 -0.1290
  808TIP3   OH223914   4.272   6.022   0.115 -0.4441  0.1495  0.9949
  808TIP3    H123915   4.196   6.077   0.135 -0.9436 -0.4606  0.8121
  808TIP3    H223916   4.320   6.070   0.048 -1.3120  0.0014  0.2450
  809TIP3   OH223917   5.729   0.512  15.882  0.5688  0.1311 -0.3267
  809TIP3    H123918   5.701   0.602  15.898  1.8480  0.9306 -2.2735
  809TIP3    H223919   5.708   0.496  15.790  2.1194 -0.8536 -0.5417
  810TIP3   OH223920   3.279   1.288   2.605 -0.3966 -0.0634 -0.0282
  810TIP3    H123921   3.213   1.243   2.657  0.3085 -0.5289  0.4797
  810TIP3    H223922   3.260   1.381   2.616 -1.6655 -0.2201 -0.8184
  811TIP3   OH223923   2.910   0.778  11.180  0.3892 -0.4305 -0.0715
  811TIP3    H123924   2.998   0.802  11.152  0.0343  0.0962 -0.7374
  811TIP3    H223925   2.920   0.688  11.212  1.0836 -0.5277 -0.5380
  812TIP3   OH223926   0.131   3.352   4.959  0.3724  0.0952 -0.1767
  812TIP3    H123927   0.150   3.271   5.006  0.2007  0.8339  1.1741
  812TIP3    H223928   0.187   3.418   5.000 -2.0624  1.4215  1.1279
  813TIP3   OH223929   6.564   6.679  11.993 -0.1045  1.5109  0.9528
  813TIP3    H123930   6.495   6.612  11.996 -0.1106  1.5273  1.1841
  813TIP3    H223931   6.617   6.654  11.917 -0.9343  2.0680  0.1826
  814TIP3   OH223932   4.658   2.190   1.092 -0.8330 -0.1053  0.2655
  814TIP3    H123933   4.666   2.098   1.119  0.0008 -0.4619 -1.1154
  814TIP3    H223934   4.633   2.236   1.171 -0.5723 -1.4329  1.1465
  815TIP3   OH223935   3.181   2.694  11.168  0.4551  0.5335  0.8046
  815TIP3    H123936   3.098   2.729  11.203 -0.2952  1.8786 -2.1212
  815TIP3    H223937   3.246   2.761  11.190  0.1310  0.9983  0.3873
  816TIP3   OH223938   4.785   5.003  14.446  0.0014 -0.7141  0.1848
  816TIP3    H123939   4.700   5.005  14.402  0.4030 -0.5837 -0.6039
  816TIP3    H223940   4.782   5.076  14.508 -0.6134 -0.9618  0.4514
  817TIP3   OH223941   4.622   3.386   0.296 -0.3081 -0.5424 -0.0050
  817TIP3    H123942   4.630   3.402   0.202 -1.0844  0.0576  0.0321
  817TIP3    H223943   4.649   3.295   0.306 -0.4084 -0.6719 -0.8348
  818TIP3   OH223944   4.629   0.004   5.014  0.4729  0.6720  0.2669
  818TIP3    H123945   4.555  -0.022   5.068  1.5837 -0.1977  1.3993
  818TIP3    H223946   4.595   0.074   4.958 -1.5136 -0.5362 -0.0843
  819TIP3   OH223947   1.577   5.762  15.781  0.1200 -0.3570 -0.4801
  819TIP3    H123948   1.576   5.742  15.687  0.6714 -0.4475 -0.4678
  819TIP3    H223949   1.667   5.789  15.798  0.3101 -1.4344  0.2554
  820TIP3   OH223950   3.595   5.014  14.979  0.0294 -0.0358 -0.0974
  820TIP3    H123951   3.521   5.003  14.920  0.9210 -1.6407 -0.9543
  820TIP3    H223952   3.655   4.942  14.957  1.4648  0.7376  1.1342
  821TIP3   OH223953   4.598   0.254  11.442 -0.0772 -0.2085  0.5648
  821TIP3    H123954   4.641   0.200  11.508  0.3059 -2.0951 -1.1531
  821TIP3    H223955   4.670   0.291  11.391 -0.4200 -1.6091 -0.9639
  822TIP3   OH223956   2.643   0.756  16.074  0.0321 -0.1838 -0.3311
  822TIP3    H123957   2.616   0.698  16.003 -1.3624 -1.3495  1.0988
  822TIP3    H223958   2.731   0.784  16.050 -0.7938  0.2429 -2.9986
  823TIP3   OH223959   1.299   2.245   3.172  0.6340  0.3172 -0.1881
  823TIP3    H123960   1.382   2.243   3.126  1.1989 -2.2690  0.8870
  823TIP3    H223961   1.313   2.308   3.243  2.1797 -1.1642  0.8579
  824TIP3   OH223962   1.701   6.401  12.369  0.2987 -0.3535  0.0403
  824TIP3    H123963   1.785   6.446  12.360  0.0064  0.1406 -0.2372
  824TIP3    H223964   1.718   6.330  12.431  0.8906 -0.1798  0.0752
  825TIP3   OH223965   1.928   6.700   4.908 -0.2982  0.0545 -0.1222
  825TIP3    H123966   1.949   6.745   4.826  0.1677  0.7928  0.3945
  825TIP3    H223967   1.836   6.673   4.898  0.1328 -0.9698 -1.3840
  826TIP3   OH223968   1.773   1.809   1.080  0.2438 -0.5243  0.5957
  826TIP3    H123969   1.765   1.901   1.105 -0.4797 -0.5931  0.6082
  826TIP3    H223970   1.805   1.811   0.990  1.7856 -0.2705  1.1290
  827TIP3   OH223971   1.930   6.263   4.710  0.1457 -0.1338 -0.0656
  827TIP3    H123972   1.923   6.275   4.805  0.1831  0.5045 -0.1410
  827TIP3    H223973   1.921   6.351   4.674 -3.5820 -0.7845 -0.9145
  828TIP3   OH223974   3.510   6.621  10.652  0.5314 -0.3124 -0.5201
  828TIP3    H123975   3.604   6.617  10.667  0.0122 -0.7804  3.1183
  828TIP3    H223976   3.497   6.584  10.565  3.6284 -1.0348 -0.7043
  829TIP3   OH223977   3.095   6.433  12.387 -0.0153 -0.0687 -0.4665
  829TIP3    H123978   3.081   6.462  12.477 -1.5041 -1.5382 -0.1951
  829TIP3    H223979   3.189   6.445  12.372  0.3138 -0.1517  1.4049
  830TIP3   OH223980   5.725   4.391  10.723 -0.4107  0.5082  0.1442
  830TIP3    H123981   5.739   4.475  10.766  0.9052  0.3256  0.1008
  830TIP3    H223982   5.810   4.368  10.686 -0.6409 -1.0411  0.5198
  831TIP3   OH223983   6.641   3.255  14.225  0.0932  0.5374 -0.3424
  831TIP3    H123984   6.586   3.191  14.269 -0.3257  1.0642 -0.1002
  831TIP3    H223985   6.580   3.308  14.173  0.4829  0.4804 -0.8672
  832TIP3   OH223986   6.058   5.316  14.336  0.6560 -0.0361 -0.6527
  832TIP3    H123987   6.037   5.301  14.244 -0.5366  0.9705 -0.5495
  832TIP3    H223988   6.140   5.268  14.349  2.2689  2.0026 -2.9182
  833TIP3   OH223989   2.640   0.342  10.676  0.0650 -0.3792  0.0853
  833TIP3    H123990   2.722   0.333  10.723  0.7054  1.2302 -0.6954
  833TIP3    H223991   2.636   0.265  10.619  1.3907 -0.0714 -0.4315
  834TIP3   OH223992   4.545   1.189   2.031  0.2180  0.5535  0.2097
  834TIP3    H123993   4.471   1.131   2.049 -0.0889  0.7038 -0.5389
  834TIP3    H223994   4.513   1.276   2.056  0.9999  0.3000  2.2319
  835TIP3   OH223995   0.025   3.638   5.328 -0.3401 -0.6504 -0.0814
  835TIP3    H123996  -0.055   3.621   5.277 -2.0407 -0.7862  2.5248
  835TIP3    H223997   0.063   3.552   5.343 -0.0329 -0.6415 -0.7729
  836TIP3   OH223998   3.685   6.081   4.204  0.0124  0.3664 -0.4272
  836TIP3    H123999   3.608   6.030   4.227 -0.0606  0.6006 -0.1516
  836TIP3    H224000   3.720   6.038   4.126 -0.0555 -0.0970 -0.2049
  837TIP3   OH224001   1.623   1.100   2.297 -0.1486  0.3556  0.9220
  837TIP3    H124002   1.623   1.026   2.358 -0.8091 -0.0571  0.4364
  837TIP3    H224003   1.539   1.144   2.313 -0.3680  0.1886  0.2446
  838TIP3   OH224004   1.100   6.762  15.994  0.2523 -0.4955  0.0105
  838TIP3    H124005   1.170   6.711  15.953  0.9156 -1.6819  2.5695
  838TIP3    H224006   1.144   6.818  16.057 -0.9446 -0.0667  0.4846
  839TIP3   OH224007   0.646   5.975  16.358 -0.4980 -0.3310  0.5355
  839TIP3    H124008   0.672   5.926  16.280 -2.6294  0.4632 -0.7358
  839TIP3    H224009   0.715   6.040  16.370 -0.0938 -0.5302 -0.6312
  840TIP3   OH224010   6.508   0.250  12.208 -0.8342  0.3448 -0.2548
  840TIP3    H124011   6.558   0.289  12.136 -1.6952  1.4195 -0.2835
  840TIP3    H224012   6.563   0.264  12.285 -0.1752 -0.2968 -0.5925
  841TIP3   OH224013   3.134   3.363   1.575  0.2461 -0.2060  0.0726
  841TIP3    H124014   3.101   3.448   1.546  2.1284  0.0695 -1.3422
  841TIP3    H224015   3.149   3.373   1.669 -0.2051  0.7955  0.0388
  842TIP3   OH224016   2.316   4.942  16.374  0.3211 -0.1290 -0.2743
  842TIP3    H124017   2.374   4.944  16.298 -1.2708  0.0767 -1.5009
  842TIP3    H224018   2.272   5.027  16.373  0.2095 -0.1651  0.8213
  843TIP3   OH224019   4.244   4.377  15.355 -0.0339 -0.3239  0.2238
  843TIP3    H124020   4.326   4.328  15.360  0.1980 -0.0521 -0.8107
  843TIP3    H224021   4.224   4.400  15.445  0.9446 -0.5278  0.4932
  844TIP3   OH224022   3.211   3.792  16.733 -0.3946 -0.3418 -0.2201
  844TIP3    H124023   3.209   3.738  16.812 -0.5430 -0.1581 -0.0960
  844TIP3    H224024   3.208   3.882  16.766  1.3939 -0.2187 -0.3624
  845TIP3   OH224025   6.143   1.203  16.857 -0.7778 -0.2989  0.2048
  845TIP3    H124026   6.180   1.115  16.865 -0.5001 -0.1801  0.2320
  845TIP3    H224027   6.121   1.211  16.764  0.6533  0.1780 -0.1038
  846TIP3   OH224028   6.567   1.246   4.333  0.2247  0.0826  0.1097
  846TIP3    H124029   6.562   1.176   4.268  0.5759  0.2410 -0.0916
  846TIP3    H224030   6.544   1.204   4.416 -3.4661  0.5952 -0.6021
  847TIP3   OH224031   2.802   3.099   1.370 -0.0676 -0.0910 -0.1583
  847TIP3    H124032   2.860   3.175   1.373 -1.3620  0.8980  0.5739
  847TIP3    H224033   2.816   3.060   1.284  0.2292  1.2997 -0.7463
  848TIP3   OH224034   4.153   0.479   4.944  0.0855  0.1239  0.0307
  848TIP3    H124035   4.078   0.533   4.972  0.1291 -0.2981  0.9749
  848TIP3    H224036   4.114   0.400   4.907  0.0252  0.7139 -1.1958
  849TIP3   OH224037   2.083   5.047   2.821 -0.6862  0.1311  1.0121
  849TIP3    H124038   2.038   4.976   2.775 -1.1134  1.6313 -0.9708
  849TIP3    H224039   2.175   5.020   2.822 -1.2584 -1.8512  2.9881
  850TIP3   OH224040   1.844   3.552  11.657  0.1137  0.5209  0.5221
  850TIP3    H124041   1.834   3.470  11.705  0.1915  0.7407  0.9213
  850TIP3    H224042   1.883   3.527  11.573 -3.1778 -0.2754 -0.8290
  851TIP3   OH224043   0.934   4.926   4.644 -0.5444  0.3998  0.2296
  851TIP3    H124044   0.981   4.928   4.560 -0.6331  2.0609  0.2055
  851TIP3    H224045   0.938   4.835   4.671  0.2414  0.0003 -1.1674
  852TIP3   OH224046   6.178   4.857  16.704 -0.7727 -0.0986 -0.2327
  852TIP3    H124047   6.092   4.816  16.713  0.0301 -1.6663  0.3191
  852TIP3    H224048   6.171   4.938  16.756 -1.5974 -0.7136  0.6363
  853TIP3   OH224049   5.809   5.687   5.362 -0.0671  0.1947 -0.1296
  853TIP3    H124050   5.744   5.678   5.292 -0.9426 -0.6612  0.7701
  853TIP3    H224051   5.892   5.702   5.316 -0.7307  0.2700 -1.3226
  854TIP3   OH224052   6.514   4.355   5.512 -0.6242 -0.2253  0.3061
  854TIP3    H124053   6.442   4.397   5.560  0.1632  1.3766  0.1385
  854TIP3    H224054   6.472   4.312   5.438 -1.4189  0.7444  0.1821
  855TIP3   OH224055   3.188   1.634  14.388  0.1427 -0.4606  0.0612
  855TIP3    H124056   3.231   1.715  14.416 -0.7995 -0.2247  0.8497
  855TIP3    H224057   3.095   1.652  14.399 -0.2614 -0.4211 -3.1135
  856TIP3   OH224058   1.441   3.030  12.612  0.3066 -0.1111 -0.1799
  856TIP3    H124059   1.410   3.100  12.556 -1.5840 -0.5578  0.2835
  856TIP3    H224060   1.366   3.006  12.666  1.5255 -1.0290  1.1690
  857TIP3   OH224061   6.116   0.479   2.251  0.3006 -0.3005  0.6251
  857TIP3    H124062   6.141   0.449   2.164 -0.0341 -2.3985  1.2057
  857TIP3    H224063   6.073   0.563   2.237  0.5153 -0.4805 -1.1930
  858TIP3   OH224064   5.142   0.905   4.114 -0.0274 -0.1840  0.1881
  858TIP3    H124065   5.130   0.820   4.158 -0.9158  0.4082  1.0983
  858TIP3    H224066   5.237   0.917   4.112  0.0626 -0.6680  1.1072
  859TIP3   OH224067   3.129   0.219  11.252 -0.1223  0.3694  0.8858
  859TIP3    H124068   3.224   0.212  11.242 -0.3274 -1.4813 -0.1586
  859TIP3    H224069   3.094   0.185  11.169 -1.7056 -0.5989  1.9207
  860TIP3   OH224070   0.397   2.946  13.890  0.8031 -0.1864 -0.1858
  860TIP3    H124071   0.355   2.860  13.889 -1.0959  0.6861  0.7544
  860TIP3    H224072   0.379   2.980  13.978  1.0039  1.4113 -0.7482
  861TIP3   OH224073   1.958   4.532   3.916  0.1188  0.6975  0.6307
  861TIP3    H124074   1.927   4.620   3.940  0.0672  1.1103 -0.8938
  861TIP3    H224075   2.050   4.546   3.891 -0.1414  0.4634 -0.4455
  862TIP3   OH224076   6.452   3.883   2.943 -0.0645  0.0467  0.2857
  862TIP3    H124077   6.518   3.946   2.917 -0.2988 -0.3942 -1.4122
  862TIP3    H224078   6.491   3.837   3.018  1.2630  0.2358 -0.2789
  863TIP3   OH224079   2.238   3.909   3.353  0.4397  0.0347  0.3183
  863TIP3    H124080   2.293   3.927   3.429 -0.0116  0.9864  0.4274
  863TIP3    H224081   2.188   3.990   3.340 -0.3879 -0.5556 -0.2303
  864TIP3   OH224082   3.975   4.735  12.027 -0.4406 -0.1949 -0.2597
  864TIP3    H124083   4.001   4.644  12.011 -0.6758 -0.2408 -0.3778
  864TIP3    H224084   3.950   4.769  11.941  1.5438  0.5897 -0.5521
  865TIP3   OH224085   3.230   5.656   5.333  0.6141  0.0577 -0.5577
  865TIP3    H124086   3.176   5.613   5.399 -0.0624  0.3305 -0.9325
  865TIP3    H224087   3.243   5.745   5.368 -0.6472  0.5429 -1.3014
  866TIP3   OH224088   1.578   3.683  16.324 -0.4198 -0.0853  0.9698
  866TIP3    H124089   1.665   3.697  16.359 -0.6183 -1.4047  2.0216
  866TIP3    H224090   1.578   3.729  16.240  1.3643 -0.2843  0.8454
  867TIP3   OH224091   2.231   0.828  12.590 -0.3352 -0.5008 -0.1008
  867TIP3    H124092   2.179   0.771  12.646 -0.9043 -0.8396 -0.9700
  867TIP3    H224093   2.220   0.793  12.502 -2.5150  2.2313 -1.0003
  868TIP3   OH224094   6.708   4.175   5.599  0.0311  0.4966  0.4266
  868TIP3    H124095   6.635   4.233   5.620  0.4492  1.4149 -0.5626
  868TIP3    H224096   6.696   4.156   5.506 -0.6506 -1.8128  0.9606
  869TIP3   OH224097   5.615   5.696   0.111  0.1977  0.1061 -0.2784
  869TIP3    H124098   5.707   5.721   0.121 -0.2764  2.8092 -2.0520
  869TIP3    H224099   5.568   5.755   0.170 -0.4290 -1.3208  0.6804
  870TIP3   OH224100   3.984   0.291   1.442 -0.1995 -0.4160  0.3539
  870TIP3    H124101   4.075   0.277   1.465  0.1238  0.1790 -0.5423
  870TIP3    H224102   3.970   0.385   1.453 -0.3316 -0.2915 -0.8210
  871TIP3   OH224103   2.092   3.495   3.599  0.2418 -0.3733 -0.5115
  871TIP3    H124104   2.174   3.543   3.600 -0.2772  0.5451 -1.2416
  871TIP3    H224105   2.056   3.511   3.512 -0.9389 -0.3779 -0.0335
  872TIP3   OH224106   2.575   5.861   0.219 -0.2311 -0.7261  0.4035
  872TIP3    H124107   2.518   5.901   0.153 -0.2381 -2.8982 -0.9647
  872TIP3    H224108   2.586   5.929   0.286 -2.2712  0.6394 -0.6029
  873TIP3   OH224109   1.230   6.445  12.763  0.2014  0.2851 -0.1316
  873TIP3    H124110   1.157   6.390  12.792 -1.0012  1.0216 -1.6629
  873TIP3    H224111   1.308   6.402  12.798 -1.0373  0.2706  2.7307
  874TIP3   OH224112   2.357   4.386  16.185 -0.3408 -0.4230  0.4467
  874TIP3    H124113   2.408   4.461  16.216  0.4262 -0.9460  0.4603
  874TIP3    H224114   2.369   4.320  16.253 -0.5628 -0.7504  0.1666
  875TIP3   OH224115   1.888   4.549  11.330  0.2620  0.3847  0.3040
  875TIP3    H124116   1.833   4.472  11.342  0.1533  0.7377  2.2129
  875TIP3    H224117   1.910   4.548  11.237 -0.5998 -1.3540  0.0938
  876TIP3   OH224118   2.371   2.371  14.190  0.9564 -0.3450  0.0672
  876TIP3    H124119   2.388   2.416  14.273  0.6753 -0.4252  0.1694
  876TIP3    H224120   2.420   2.290  14.196 -0.8908 -1.4140  1.1179
  877TIP3   OH224121   1.977   6.431  15.877 -0.5631  0.4929  0.8765
  877TIP3    H124122   2.007   6.501  15.819 -1.2984 -0.6778 -0.9811
  877TIP3    H224123   1.977   6.470  15.965  0.6524  2.2793  0.1030
  878TIP3   OH224124   4.593   6.193   1.799  0.5216  0.2637 -0.1405
  878TIP3    H124125   4.593   6.102   1.827 -1.5006  0.5470  0.8373
  878TIP3    H224126   4.533   6.196   1.725  0.9888  0.7047 -0.5057
  879TIP3   OH224127   4.472   0.864  16.105  0.2487 -0.3947  0.2728
  879TIP3    H124128   4.544   0.814  16.142  0.9534  1.9799  2.2333
  879TIP3    H224129   4.514   0.930  16.051 -0.4999  0.3437  0.5901
  880TIP3   OH224130   0.376   3.030  16.941  0.2273  0.2836  0.0512
  880TIP3    H124131   0.322   3.034  17.020 -0.4705 -1.9502 -0.2942
  880TIP3    H224132   0.313   3.032  16.869  0.7442  0.0849 -0.4062
  881TIP3   OH224133   3.872   0.273   3.916 -0.1074  0.3213 -0.1500
  881TIP3    H124134   3.945   0.329   3.886 -0.0383 -0.0738 -0.7221
  881TIP3    H224135   3.901   0.184   3.897 -0.2917  0.0953  0.6100
  882TIP3   OH224136   5.862   2.480   5.501 -0.1064 -0.2165 -0.1425
  882TIP3    H124137   5.902   2.559   5.538 -0.6126 -1.4816  3.3080
  882TIP3    H224138   5.782   2.513   5.458 -1.4299  1.0108  3.0501
  883TIP3   OH224139   0.885   5.085   4.864 -0.2018 -0.1062  0.0449
  883TIP3    H124140   0.905   5.028   4.790  0.8635 -2.3631  1.9761
  883TIP3    H224141   0.957   5.149   4.864 -0.1780 -0.1267 -0.8405
  884TIP3   OH224142   1.985   3.727   2.631 -0.1110 -0.4465 -0.4711
  884TIP3    H124143   1.964   3.699   2.720 -3.4611 -1.2782 -1.4414
  884TIP3    H224144   2.019   3.648   2.588 -1.1528 -0.7849 -0.6941
  885TIP3   OH224145   6.484   2.769  11.060 -0.9339 -0.3917 -0.2248
  885TIP3    H124146   6.448   2.850  11.097 -0.4972  0.5841 -1.8986
  885TIP3    H224147   6.534   2.798  10.984  1.5070 -1.9598  0.7348
  886TIP3   OH224148   2.791   3.849   5.892 -0.5560 -0.2944 -0.4411
  886TIP3    H124149   2.799   3.924   5.950 -0.0799 -0.7194  0.0488
  886TIP3    H224150   2.724   3.874   5.828  0.2958  0.9242 -0.8710
  887TIP3   OH224151   6.133   1.662   2.716 -0.3743  0.0030  0.3904
  887TIP3    H124152   6.063   1.683   2.655  0.0877  1.0098  0.1843
  887TIP3    H224153   6.112   1.575   2.748 -2.5346  0.8801  1.4708
  888TIP3   OH224154   2.396   4.778   2.297  0.9701 -0.2066 -0.2980
  888TIP3    H124155   2.359   4.707   2.349  1.5343 -0.5101 -0.3094
  888TIP3    H224156   2.485   4.789   2.331  1.2214 -0.1746 -0.9670
  889TIP3   OH224157   0.055   4.727   0.188  0.0745 -0.0401 -0.1178
  889TIP3    H124158   0.085   4.801   0.242 -0.9139  1.4969 -1.6046
  889TIP3    H224159   0.123   4.717   0.122 -1.0612  1.3003 -1.5141
  890TIP3   OH224160   5.570   3.933  13.653  0.1854  0.0431  0.4035
  890TIP3    H124161   5.551   3.903  13.742  1.4243  1.3534  1.1331
  890TIP3    H224162   5.600   4.023  13.664  0.3222  0.2278 -1.3527
  891TIP3   OH224163   4.845   3.581  14.395 -0.2837  0.4179 -0.4024
  891TIP3    H124164   4.914   3.548  14.337  0.7935  0.0993  1.0319
  891TIP3    H224165   4.828   3.508  14.455 -1.0108  0.9239  0.0076
  892TIP3   OH224166   0.259   1.521   6.821  0.0960 -0.8208  0.2725
  892TIP3    H124167   0.218   1.484   6.742  1.1047 -0.8988 -0.2292
  892TIP3    H224168   0.352   1.502   6.810  0.5755  1.4580  0.2388
  893TIP3   OH224169   0.821   5.143  11.903  0.4536 -0.3832  0.2659
  893TIP3    H124170   0.842   5.185  11.819 -0.9309 -0.0755  0.0700
  893TIP3    H224171   0.851   5.053  11.893 -1.4382 -0.8852 -1.2785
  894TIP3   OH224172   3.489   6.532   4.206  0.1479  0.5074  0.0479
  894TIP3    H124173   3.555   6.543   4.275 -0.3589  0.4950  0.5444
  894TIP3    H224174   3.443   6.451   4.230  0.4557  0.1086 -0.7161
  895TIP3   OH224175   3.267   4.981  11.245 -0.2699  0.2949  0.1323
  895TIP3    H124176   3.313   5.034  11.311  0.3329  0.2700 -0.2673
  895TIP3    H224177   3.303   4.893  11.255 -0.3886  0.2278 -0.0330
  896TIP3   OH224178   2.047   5.721   5.497 -0.4699 -0.4081 -0.3253
  896TIP3    H124179   2.059   5.629   5.475 -1.4230 -0.6758  0.2754
  896TIP3    H224180   1.977   5.722   5.562 -1.6252  0.8655 -1.5409
  897TIP3   OH224181   4.931   0.229   2.489  0.0530  0.0566  0.2292
  897TIP3    H124182   4.901   0.295   2.426 -0.1169 -0.1056  0.1408
  897TIP3    H224183   4.937   0.277   2.572 -0.2803  0.1340  0.2107
  898TIP3   OH224184   6.181   6.436   3.337  0.0023 -0.6693  0.4940
  898TIP3    H124185   6.259   6.384   3.354  0.2862 -0.1193  0.9189
  898TIP3    H224186   6.215   6.525   3.323 -0.4087 -0.7333 -0.9279
  899TIP3   OH224187   5.593   2.659  16.918 -0.5806 -0.0976  0.8703
  899TIP3    H124188   5.505   2.681  16.947 -0.8768  0.8512 -0.6961
  899TIP3    H224189   5.589   2.564  16.903 -1.2209 -0.1243  1.1735
  900TIP3   OH224190   2.806   3.061   3.063  0.0273 -0.4102 -0.2392
  900TIP3    H124191   2.875   2.996   3.046  0.9577  0.0525  1.6004
  900TIP3    H224192   2.844   3.119   3.128 -1.6307  0.6636 -0.2077
  901TIP3   OH224193   2.746   2.775   6.560  0.0957  0.2175  0.2362
  901TIP3    H124194   2.676   2.788   6.624 -1.5580  1.1971 -1.6982
  901TIP3    H224195   2.732   2.687   6.525 -0.6804  0.7090 -0.7179
  902TIP3   OH224196   5.621   2.290  16.571  0.4128  0.1776 -0.0100
  902TIP3    H124197   5.541   2.316  16.526  0.0440  0.1334  0.6124
  902TIP3    H224198   5.616   2.195  16.577  0.0473  0.2501  0.8831
  903TIP3   OH224199   4.894   5.924  11.721  0.0647 -0.0989  0.2503
  903TIP3    H124200   4.832   5.852  11.731  0.4532 -0.3618  0.8212
  903TIP3    H224201   4.884   5.976  11.800 -0.2187  0.4868 -0.1641
  904TIP3   OH224202   3.636   0.501   0.655  0.0411 -0.3133  0.0392
  904TIP3    H124203   3.606   0.415   0.683  1.5157 -0.4245  1.4067
  904TIP3    H224204   3.574   0.562   0.695 -0.3116 -0.6864  0.0621
  905TIP3   OH224205   1.966   2.633  13.513 -0.1412  0.2152  0.1675
  905TIP3    H124206   2.022   2.604  13.585  0.7938 -0.2990 -0.7500
  905TIP3    H224207   1.884   2.585  13.525  0.3664 -0.6172  0.3251
  906TIP3   OH224208   1.223   3.726   3.105  0.5505 -0.1351  0.0910
  906TIP3    H124209   1.250   3.635   3.111 -2.0582 -0.9493  0.2056
  906TIP3    H224210   1.170   3.740   3.184 -0.5961  0.9279 -0.8524
  907TIP3   OH224211   1.794   2.127  13.179  0.0156 -0.1874  0.3115
  907TIP3    H124212   1.748   2.181  13.115  1.3253 -1.1627 -1.5260
  907TIP3    H224213   1.865   2.087  13.129  0.0356 -2.3420  1.9826
  908TIP3   OH224214   6.652   5.419   3.638  0.1343  0.3392  0.2851
  908TIP3    H124215   6.640   5.514   3.635  1.9492  0.6749  2.2194
  908TIP3    H224216   6.729   5.403   3.584 -0.2546 -0.0515 -0.1569
  909TIP3   OH224217   0.493   6.288   2.490  0.8845 -0.2174 -0.6535
  909TIP3    H124218   0.485   6.192   2.483 -1.3306  0.0259 -1.7766
  909TIP3    H224219   0.531   6.315   2.407 -0.1900  0.0467 -1.0640
  910TIP3   OH224220   6.275   5.754  14.949 -0.5555 -0.1010  0.0402
  910TIP3    H124221   6.256   5.774  15.041 -3.5527  0.9197 -0.7439
  910TIP3    H224222   6.340   5.684  14.953  1.1231  1.5032  2.9094
  911TIP3   OH224223   0.500   2.139   2.267  0.2822 -0.0386 -0.5320
  911TIP3    H124224   0.513   2.233   2.278  1.3210  0.2434 -3.6013
  911TIP3    H224225   0.406   2.126   2.277 -0.2280  1.7608 -2.5343
  912TIP3   OH224226   6.728   4.560   3.527  0.5373 -0.1665 -0.8536
  912TIP3    H124227   6.790   4.538   3.457  2.4008 -0.7357  0.9081
  912TIP3    H224228   6.736   4.487   3.589 -1.6307 -0.0368 -0.4098
  913TIP3   OH224229   4.762   5.308  16.073  0.6309  0.2543 -0.2452
  913TIP3    H124230   4.781   5.255  15.995 -1.0995  0.6037 -0.9338
  913TIP3    H224231   4.752   5.397  16.040 -0.1919  0.3938  0.3535
  914TIP3   OH224232   1.381   1.130  11.971 -0.3626  0.3771 -0.2049
  914TIP3    H124233   1.404   1.039  11.957  1.1770  0.8040 -0.5282
  914TIP3    H224234   1.382   1.169  11.884 -0.0523  0.9110  0.0306
  915TIP3   OH224235   4.347   0.397  17.040  0.1945 -0.2484  0.2086
  915TIP3    H124236   4.344   0.487  17.071 -2.1144 -0.2509  0.0595
  915TIP3    H224237   4.277   0.391  16.974 -0.2350 -2.3363  0.8033
  916TIP3   OH224238   1.027   6.355  16.879 -0.2523 -0.2775 -0.0598
  916TIP3    H124239   1.031   6.286  16.945  2.1873 -0.4697 -0.3798
  916TIP3    H224240   1.040   6.309  16.795 -1.3421  0.2192 -0.5092
  917TIP3   OH224241   0.909   0.203  16.339  0.1203  0.1657  0.0700
  917TIP3    H124242   0.951   0.213  16.254  0.9324  0.2482  0.4763
  917TIP3    H224243   0.887   0.292  16.365 -1.9701 -0.0205 -0.9637
  918TIP3   OH224244   5.429   6.205  13.815  0.2442  0.1370  0.0612
  918TIP3    H124245   5.492   6.150  13.767 -0.1843  0.0695 -0.4308
  918TIP3    H224246   5.474   6.289  13.825 -0.2473  0.6380 -1.8104
  919TIP3   OH224247   4.336   3.603   5.024  0.2894 -0.1169 -0.1049
  919TIP3    H124248   4.318   3.585   4.931 -2.1435 -1.0704  0.5157
  919TIP3    H224249   4.378   3.523   5.056  1.5562  0.3862 -0.4659
  920TIP3   OH224250   5.904   3.918  11.215 -0.6259  0.6785 -0.1674
  920TIP3    H124251   5.823   3.875  11.189 -0.7969  0.5178  0.6275
  920TIP3    H224252   5.889   3.947  11.305  0.3753  0.2008  0.1661
  921TIP3   OH224253   3.737   2.632  14.849 -0.2916  0.0383  0.3542
  921TIP3    H124254   3.695   2.712  14.819  1.1729  2.3045  3.9398
  921TIP3    H224255   3.831   2.650  14.842  0.0617 -1.5453  0.7486
  922TIP3   OH224256   3.963   0.476  14.688 -0.7577  0.4233 -0.0226
  922TIP3    H124257   3.881   0.441  14.723 -0.2323 -1.1225 -0.2947
  922TIP3    H224258   3.954   0.465  14.593 -0.2636  0.3381 -0.0562
  923TIP3   OH224259   0.275   0.097   0.818 -0.9082  0.6765  0.5252
  923TIP3    H124260   0.335   0.074   0.746 -0.6211  2.6487  0.1073
  923TIP3    H224261   0.228   0.016   0.837  0.5215 -0.4041 -0.4663
  924TIP3   OH224262   1.279   4.996   5.925  0.2764  0.0968 -0.0142
  924TIP3    H124263   1.255   4.946   6.003 -2.0800  0.2213 -0.6090
  924TIP3    H224264   1.253   4.940   5.852  2.7890 -0.1704 -0.7570
  925TIP3   OH224265   0.670   0.439  15.590  0.1291  0.1961  0.1676
  925TIP3    H124266   0.669   0.343  15.593 -0.6218  0.2086  0.5638
  925TIP3    H224267   0.594   0.465  15.642  1.0933  1.0410  1.1988
  926TIP3   OH224268   4.969   6.246   5.374 -0.3658  0.0756  0.1622
  926TIP3    H124269   4.883   6.262   5.412 -1.7146  0.3745 -2.8763
  926TIP3    H224270   4.998   6.164   5.415 -2.2192 -0.2001  0.9821
  927TIP3   OH224271   4.204   5.815   2.442 -0.6721  0.0654  0.4144
  927TIP3    H124272   4.115   5.832   2.411 -0.2149  0.7471 -0.5550
  927TIP3    H224273   4.193   5.751   2.512 -2.0883  1.4725  1.5047
  928TIP3   OH224274   4.662   6.156  17.001 -1.0825 -0.1952  0.2976
  928TIP3    H124275   4.681   6.204  16.921  0.2446 -1.8798 -0.4526
  928TIP3    H224276   4.668   6.221  17.071  2.2670  0.4758 -0.5056
  929TIP3   OH224277   5.764   0.972  11.652  0.0379  0.1383 -0.3574
  929TIP3    H124278   5.771   1.038  11.582  1.4361 -0.7843 -1.1148
  929TIP3    H224279   5.794   0.891  11.611  0.7554 -0.4372  1.2751
  930TIP3   OH224280   0.719   6.225  16.039 -0.1362  0.3356  0.4324
  930TIP3    H124281   0.726   6.255  15.948  0.9651  0.4933  0.5660
  930TIP3    H224282   0.724   6.130  16.034  1.2037  0.3992  0.4366
  931TIP3   OH224283   2.040   1.769  17.262  0.2547  0.0925 -0.0363
  931TIP3    H124284   2.116   1.827  17.260 -0.1883  0.6862 -2.8388
  931TIP3    H224285   2.072   1.687  17.226 -0.2742  0.1543 -0.6533
  932TIP3   OH224286   6.671   2.329  11.313  0.1016 -0.0098  0.2896
  932TIP3    H124287   6.756   2.316  11.272 -0.2714 -0.6043 -0.2969
  932TIP3    H224288   6.626   2.392  11.256  0.7225  1.5007  1.4346
  933TIP3   OH224289   3.838   5.366   5.174 -0.0358 -0.0214 -0.3699
  933TIP3    H124290   3.748   5.398   5.180 -0.5869 -1.6247  0.0908
  933TIP3    H224291   3.833   5.274   5.198  1.8766  0.0805  0.5365
  934TIP3   OH224292   2.018   2.813   0.431  1.1594 -0.4404  0.7303
  934TIP3    H124293   2.011   2.853   0.344  0.6445  0.0359  0.9940
  934TIP3    H224294   2.069   2.875   0.482 -0.5239  0.3772  1.4384
  935TIP3   OH224295   6.451   5.812   1.954  0.3882 -0.1181 -0.4846
  935TIP3    H124296   6.480   5.901   1.978 -0.3028  0.1663 -0.6966
  935TIP3    H224297   6.357   5.820   1.941  0.4312 -0.7340 -1.2156
  936TIP3   OH224298   1.529   1.577  14.083 -0.6752 -0.1044  0.2751
  936TIP3    H124299   1.563   1.639  14.147 -1.0526 -1.3329  1.6749
  936TIP3    H224300   1.436   1.597  14.077 -0.8911 -0.8408  1.0877
  937TIP3   OH224301   1.321   4.045   4.114 -0.3131 -0.6977  0.5900
  937TIP3    H124302   1.361   4.110   4.172 -0.5077  0.4244 -0.5046
  937TIP3    H224303   1.326   4.084   4.026  1.5199 -3.0860 -0.4233
  938TIP3   OH224304   1.522   1.102   6.230  0.1360  0.2128  0.2861
  938TIP3    H124305   1.456   1.034   6.217 -1.8145  2.0165  0.5728
  938TIP3    H224306   1.575   1.069   6.303 -2.1840  0.0138  1.9390
  939TIP3   OH224307   1.999   3.125   6.377 -0.3941  0.3086 -0.2766
  939TIP3    H124308   2.010   3.202   6.433 -1.5124  1.4838 -1.5988
  939TIP3    H224309   2.086   3.086   6.371  0.0258  1.0246  1.0651
  940TIP3   OH224310   2.410   3.913   6.491 -1.0393  0.1815 -0.8371
  940TIP3    H124311   2.475   3.966   6.537 -0.6204 -1.8491  1.0279
  940TIP3    H224312   2.330   3.965   6.494 -0.0904  1.6811 -1.0703
  941TIP3   OH224313   6.500   2.552   2.442 -0.7810 -0.2128  0.0277
  941TIP3    H124314   6.534   2.534   2.354 -0.6088  1.4693 -0.2571
  941TIP3    H224315   6.567   2.518   2.501 -0.2947 -0.1661 -0.4933
  942TIP3   OH224316   6.247   2.329   2.275 -0.0622 -0.4083  0.1892
  942TIP3    H124317   6.251   2.424   2.271  0.5352 -0.3556  1.7494
  942TIP3    H224318   6.165   2.310   2.320  0.3436 -0.6017  0.8533
  943TIP3   OH224319   4.282   2.356   2.837 -0.0211  0.3793  0.4761
  943TIP3    H124320   4.190   2.335   2.822  0.5104 -1.5567 -0.2124
  943TIP3    H224321   4.288   2.373   2.931 -0.9205 -0.3381  0.6699
  944TIP3   OH224322   6.604   5.843  14.925 -0.1757  0.4181  0.1274
  944TIP3    H124323   6.540   5.866  14.856  0.0486 -0.3916 -0.3557
  944TIP3    H224324   6.689   5.850  14.882  0.0408  1.0570  0.6513
  945TIP3   OH224325   4.056   1.347  16.683  0.2088 -0.0823 -0.0335
  945TIP3    H124326   4.059   1.443  16.685 -1.4211  0.0357 -2.0801
  945TIP3    H224327   4.128   1.322  16.624  1.9777 -0.2565  2.1204
  946TIP3   OH224328   5.002   5.791  14.953  0.2048  0.2894  0.5493
  946TIP3    H124329   5.049   5.711  14.978 -0.1538 -0.0264  0.2286
  946TIP3    H224330   5.027   5.804  14.861  2.3302  2.0125  1.3247
  947TIP3   OH224331   1.920   3.438  14.857  0.4614 -0.0639  0.6075
  947TIP3    H124332   1.904   3.346  14.875  1.5343 -0.7788 -2.0031
  947TIP3    H224333   1.940   3.442  14.764  0.1208  2.8535  0.6053
  948TIP3   OH224334   2.625   3.556   3.589  0.9192  0.3901 -0.3097
  948TIP3    H124335   2.649   3.466   3.610  0.7201  0.4200  0.0518
  948TIP3    H224336   2.610   3.556   3.495  0.9540  0.0535 -0.3146
  949TIP3   OH224337   4.221   0.154  13.453 -0.6024  0.0456 -0.0887
  949TIP3    H124338   4.140   0.179  13.497 -0.7381 -0.5435 -0.0106
  949TIP3    H224339   4.194   0.093  13.385 -0.0735 -1.2478  0.8353
  950TIP3   OH224340   0.698   1.446   3.753  0.1044  0.0938  0.1528
  950TIP3    H124341   0.707   1.430   3.847 -0.7982 -1.1351  0.0432
  950TIP3    H224342   0.616   1.403   3.729  0.0772  0.8226 -1.1061
  951TIP3   OH224343   3.508   0.424  11.911 -0.3341 -0.2237 -0.4230
  951TIP3    H124344   3.495   0.349  11.853 -0.9996  1.5609 -2.7047
  951TIP3    H224345   3.580   0.472  11.872  0.0439  0.3644  0.9686
  952TIP3   OH224346   0.204   4.198  16.965  0.1636 -0.0524 -0.2656
  952TIP3    H124347   0.118   4.192  16.925 -0.3863 -0.6954  0.9883
  952TIP3    H224348   0.221   4.109  16.998  1.3442  0.0415 -0.6017
  953TIP3   OH224349   4.409   4.316  16.037  0.4629 -0.1000  0.2392
  953TIP3    H124350   4.393   4.226  16.065 -1.2485 -0.1484 -0.8368
  953TIP3    H224351   4.419   4.365  16.119 -0.3227 -0.9677  0.8659
  954TIP3   OH224352   2.062   5.331  14.750  0.1502 -0.3430  0.1328
  954TIP3    H124353   2.025   5.281  14.823 -1.7775 -0.3837 -0.8615
  954TIP3    H224354   2.051   5.274  14.674 -0.1092  0.7115 -0.6279
  955TIP3   OH224355   1.262   0.624   0.663 -0.3339 -0.2523 -0.5847
  955TIP3    H124356   1.328   0.643   0.730 -0.5804  0.8474 -0.6550
  955TIP3    H224357   1.302   0.556   0.608  0.1633 -0.6212  0.2286
  956TIP3   OH224358   3.767   4.550  13.666 -0.5197 -0.3694 -0.1121
  956TIP3    H124359   3.789   4.620  13.728 -1.4220 -0.9730  0.9068
  956TIP3    H224360   3.753   4.595  13.583 -1.5147  0.7147  0.6379
  957TIP3   OH224361   6.197   3.107   4.732  0.9173  0.3010  0.0607
  957TIP3    H124362   6.112   3.061   4.730  1.5436 -0.8835 -0.0383
  957TIP3    H224363   6.216   3.126   4.640  0.2638  1.5385  0.1644
  958TIP3   OH224364   6.289   1.237   4.696  0.0777 -0.8629 -0.1966
  958TIP3    H124365   6.301   1.332   4.692 -0.1063 -0.7739  1.1944
  958TIP3    H224366   6.215   1.224   4.754 -1.4129 -1.7869 -2.2405
  959TIP3   OH224367   2.569   4.411  14.454  0.1819  0.3257  0.2093
  959TIP3    H124368   2.646   4.467  14.458  0.5482 -0.0024 -1.7195
  959TIP3    H224369   2.511   4.454  14.392 -1.3094  0.6874  1.8296
  960TIP3   OH224370   4.333   3.394   1.465  0.2861 -0.0659  0.1570
  960TIP3    H124371   4.382   3.337   1.406 -0.0399  1.2976 -1.4729
  960TIP3    H224372   4.248   3.352   1.475  0.0612  0.0913 -1.0076
  961TIP3   OH224373   1.178   1.048   5.304  0.3853  0.1526 -0.3727
  961TIP3    H124374   1.100   1.011   5.263  1.0371 -1.0924 -0.5116
  961TIP3    H224375   1.250   1.020   5.247  1.3939 -2.2944  2.0271
  962TIP3   OH224376   3.391   1.000  16.584  0.0256  0.4514  0.1980
  962TIP3    H124377   3.428   0.922  16.626 -1.8944  0.0852  1.2732
  962TIP3    H224378   3.391   0.980  16.490 -1.4243 -1.2922  0.5534
  963TIP3   OH224379   3.661   4.070   0.123 -0.1052  0.5638  0.1211
  963TIP3    H124380   3.619   4.002   0.176  0.0231 -0.4194 -1.0188
  963TIP3    H224381   3.750   4.076   0.158  0.3698 -0.9830 -0.8101
  964TIP3   OH224382   3.869   2.867  11.627 -0.1680 -0.0923 -0.0807
  964TIP3    H124383   3.829   2.791  11.585  0.1216  0.4922 -1.4262
  964TIP3    H224384   3.881   2.930  11.557  0.7969  0.7067  0.7787
  965TIP3   OH224385   6.462   6.240  16.213 -0.3596  0.1428  0.2886
  965TIP3    H124386   6.387   6.240  16.272  0.7545  0.9306  1.7366
  965TIP3    H224387   6.514   6.164  16.239 -0.3299 -0.0486 -0.3033
  966TIP3   OH224388   5.631   6.313  11.251 -0.1410 -0.0711 -1.0452
  966TIP3    H124389   5.670   6.349  11.171  0.9108 -0.3544 -0.6631
  966TIP3    H224390   5.597   6.390  11.297 -0.8188  0.0872 -1.7946
  967TIP3   OH224391   2.390   5.850  12.440  0.0435  0.0156 -0.8005
  967TIP3    H124392   2.425   5.934  12.471 -0.8287 -0.0735  0.4609
  967TIP3    H224393   2.442   5.785  12.487 -0.3176 -0.1312 -0.6024
  968TIP3   OH224394   0.174   1.644   3.464 -0.5851 -1.0622 -0.5722
  968TIP3    H124395   0.146   1.698   3.390 -1.0984  1.3169  1.2769
  968TIP3    H224396   0.255   1.603   3.435  1.0662  2.5299 -1.2964
  969TIP3   OH224397   1.251   1.426  17.161  0.2078  0.3091 -0.4105
  969TIP3    H124398   1.343   1.437  17.186  0.2501  1.6658 -1.1210
  969TIP3    H224399   1.226   1.510  17.122 -0.8514 -0.5963 -1.7418
  970TIP3   OH224400   5.041   3.621   4.802  0.2107 -0.1719  0.0778
  970TIP3    H124401   5.028   3.556   4.871  0.3723  1.7338  1.9630
  970TIP3    H224402   4.999   3.583   4.725 -3.0845 -0.8145  2.1195
  971TIP3   OH224403   3.735   1.733  16.018  0.3658  0.3503 -0.1087
  971TIP3    H124404   3.719   1.806  16.078 -0.0329  0.7635 -0.7213
  971TIP3    H224405   3.658   1.677  16.027  0.8435 -0.2082  0.6497
  972TIP3   OH224406   3.331   1.997   3.184  0.2496 -0.4070  0.3352
  972TIP3    H124407   3.263   2.016   3.249  0.1895 -0.2147  0.2187
  972TIP3    H224408   3.305   2.049   3.108  0.7910  0.0462  0.4593
  973TIP3   OH224409   1.223   0.958   5.559  0.6401  0.8920  0.2332
  973TIP3    H124410   1.200   0.999   5.475  1.9552  1.0888 -0.0505
  973TIP3    H224411   1.241   0.867   5.537 -1.1765  0.4092  0.6788
  974TIP3   OH224412   0.796   2.225  13.232 -0.0492 -0.5431  0.5988
  974TIP3    H124413   0.825   2.259  13.147 -0.8012 -2.2275 -0.3436
  974TIP3    H224414   0.877   2.204  13.279  0.3599  0.0716  0.1724
  975TIP3   OH224415   3.298   4.327  11.588 -0.5777 -0.1865  0.2306
  975TIP3    H124416   3.318   4.420  11.600 -0.1684 -0.0746 -1.2620
  975TIP3    H224417   3.382   4.286  11.571 -0.7309 -0.8760  1.0998
  976TIP3   OH224418   1.016   4.991  15.770  0.3702  0.3311  0.2865
  976TIP3    H124419   1.076   4.916  15.768  0.3500  0.2693  1.4454
  976TIP3    H224420   1.016   5.018  15.862  1.2038  2.4322 -0.3117
  977TIP3   OH224421   5.568   4.982  17.116 -0.8121  0.1669 -0.3281
  977TIP3    H124422   5.508   4.953  17.047 -3.3534 -1.2060  2.3244
  977TIP3    H224423   5.514   5.036  17.174  0.9749  0.4093  1.1637
  978TIP3   OH224424   1.030   5.161   5.648  0.3439  0.4391 -0.5040
  978TIP3    H124425   1.059   5.221   5.717  0.3159 -1.7085  1.4709
  978TIP3    H224426   0.943   5.134   5.676  0.0990  0.0025 -1.6980
  979TIP3   OH224427   0.601   3.296  10.886  0.4163 -0.1296  0.6715
  979TIP3    H124428   0.694   3.297  10.906  0.9528  0.8151 -1.7810
  979TIP3    H224429   0.586   3.214  10.840  0.2218  0.1218  0.2778
  980TIP3   OH224430   0.969   2.304   1.187 -0.1233 -0.2248  0.0328
  980TIP3    H124431   0.986   2.327   1.278 -0.2307 -0.7937  0.1933
  980TIP3    H224432   1.017   2.223   1.172  2.1643  1.3157 -1.2020
  981TIP3   OH224433   3.798   3.812   0.171 -0.3530 -0.4492 -0.2966
  981TIP3    H124434   3.793   3.830   0.265  1.1985 -2.2284  0.1611
  981TIP3    H224435   3.723   3.757   0.153 -0.9456  0.3202 -0.2209
  982TIP3   OH224436   3.546   0.840  14.151  0.3051  0.4892  0.2721
  982TIP3    H124437   3.640   0.851  14.134  0.1250  1.0707 -0.3861
  982TIP3    H224438   3.540   0.826  14.246  1.1713 -0.9062  0.1295
  983TIP3   OH224439   6.106   1.569   1.451 -0.0740  0.2285  0.2986
  983TIP3    H124440   6.114   1.583   1.357 -0.1272  1.2178  0.4313
  983TIP3    H224441   6.195   1.552   1.481 -0.0755 -0.2059  0.0447
  984TIP3   OH224442   2.626   1.955  16.897  0.3238 -0.3980  0.0890
  984TIP3    H124443   2.587   2.043  16.901 -0.1637 -0.5250 -1.6313
  984TIP3    H224444   2.715   1.967  16.931  0.0479  0.6456  0.4553
  985TIP3   OH224445   2.916   6.681  16.405 -0.3593  0.5495  0.0494
  985TIP3    H124446   2.942   6.770  16.430 -0.1785  0.4282  0.2872
  985TIP3    H224447   2.829   6.692  16.365 -1.5304  0.5203  2.4666
  986TIP3   OH224448   0.068   4.348  12.576  0.0775 -0.9395 -0.2271
  986TIP3    H124449   0.058   4.432  12.621 -2.1151 -1.8446  1.0715
  986TIP3    H224450   0.122   4.296  12.636  0.7573 -0.7500 -0.6611
  987TIP3   OH224451   5.054   1.257  15.066 -0.4128  0.6468  0.4199
  987TIP3    H124452   4.998   1.272  14.990  0.9384  0.5950 -0.6141
  987TIP3    H224453   5.032   1.327  15.127 -0.1675  1.8328 -0.8265
  988TIP3   OH224454   3.544   6.188   3.746 -0.3967 -0.4675 -0.0092
  988TIP3    H124455   3.532   6.243   3.669  0.0600 -0.4096 -0.0401
  988TIP3    H224456   3.607   6.236   3.800 -1.3806 -0.0809  0.8147
  989TIP3   OH224457   6.348   1.444   4.327  0.2646 -0.1937 -0.1572
  989TIP3    H124458   6.376   1.512   4.266  0.7952  1.4006  1.8106
  989TIP3    H224459   6.402   1.368   4.305  0.4376  0.3620 -1.6714
  990TIP3   OH224460   2.919   0.980  13.095  0.4089  0.0225  0.2277
  990TIP3    H124461   2.854   0.910  13.089 -1.0862  1.4676 -0.8947
  990TIP3    H224462   3.002   0.935  13.105 -0.6115 -1.8939  0.3259
  991TIP3   OH224463   1.735   1.655  14.529 -0.2173 -0.1032 -0.3799
  991TIP3    H124464   1.724   1.581  14.589 -1.3849 -0.7298 -1.3559
  991TIP3    H224465   1.647   1.693  14.522 -0.4020 -0.9247 -2.8438
  992TIP3   OH224466   5.503   3.174  14.826  0.4446  0.1335  0.2050
  992TIP3    H124467   5.460   3.224  14.756  1.5541 -1.6215 -1.8014
  992TIP3    H224468   5.580   3.226  14.849  0.0236  0.7635  0.2273
  993TIP3   OH224469   5.101   3.604  14.830  0.5019 -0.1277  0.9073
  993TIP3    H124470   5.130   3.580  14.918  0.6301  1.2673  1.2564
  993TIP3    H224471   5.036   3.538  14.807  2.2759 -1.9613  1.0425
  994TIP3   OH224472   5.131   1.826   6.692 -0.3154 -0.7747 -0.3768
  994TIP3    H124473   5.103   1.917   6.686 -1.7363 -1.1322  0.4028
  994TIP3    H224474   5.103   1.786   6.610  0.6395 -0.4209 -0.8725
  995TIP3   OH224475   0.685   5.016   3.200 -0.3990  0.1226  0.2578
  995TIP3    H124476   0.612   5.074   3.179  0.6447  1.3036 -0.2084
  995TIP3    H224477   0.738   5.066   3.262  0.1712 -0.5992  0.3612
  996TIP3   OH224478   3.721   0.910  15.821  0.4233 -0.2266  0.0094
  996TIP3    H124479   3.677   0.988  15.788 -0.8713 -0.8902  0.1278
  996TIP3    H224480   3.814   0.931  15.818  0.0397  1.6883  0.9805
  997TIP3   OH224481   0.646   6.537   4.243 -0.0507  0.2056  0.2458
  997TIP3    H124482   0.727   6.568   4.283 -0.7897  0.4946  1.5662
  997TIP3    H224483   0.595   6.503   4.317 -0.2556 -1.9431 -0.8554
  998TIP3   OH224484   1.913   1.839  17.027  0.2724  0.3428  0.8422
  998TIP3    H124485   1.836   1.891  17.048  1.7376  2.1403  1.9470
  998TIP3    H224486   1.942   1.805  17.112 -0.6369 -2.2815  0.1388
  999TIP3   OH224487   4.764   5.137  15.873 -0.1555 -0.5715 -0.4741
  999TIP3    H124488   4.741   5.044  15.877 -3.0531  0.0836 -0.2302
  999TIP3    H224489   4.709   5.172  15.803  1.0509  0.9335 -0.6914
 1000TIP3   OH224490   4.697   1.917   2.946  0.4452  0.2338  0.5188
 1000TIP3    H124491   4.675   1.995   2.895  0.3530 -1.5826 -2.3348
 1000TIP3    H224492   4.786   1.933   2.976  1.0304  0.8107 -1.4025
 1001TIP3   OH224493   3.221   1.698   5.717 -0.2641 -0.1302  0.1106
 1001TIP3    H124494   3.177   1.746   5.647  2.4495 -0.9326 -2.2302
 1001TIP3    H224495   3.166   1.712   5.794 -1.5290  3.5821 -1.3707
 1002TIP3   OH224496   3.813   2.305  13.407  0.7843 -0.1378  0.0179
 1002TIP3    H124497   3.846   2.319  13.319 -0.8398  1.4840 -0.3468
 1002TIP3    H224498   3.825   2.389  13.452  0.5950 -0.6288  1.0131
 1003TIP3   OH224499   1.920   3.377  14.585 -0.1028  0.2781 -0.0554
 1003TIP3    H124500   1.936   3.309  14.520  1.5511  1.4507 -0.9207
 1003TIP3    H224501   1.846   3.426  14.551 -0.4829 -0.2961 -0.0668
 1004TIP3   OH224502   6.326   4.289   0.882 -0.3513 -0.4778  0.5986
 1004TIP3    H124503   6.327   4.383   0.896  0.0554 -0.0835 -1.8114
 1004TIP3    H224504   6.409   4.257   0.916  0.1212  0.2541  0.1288
 1005TIP3   OH224505   4.925   0.976   1.078  0.1448  0.2349 -0.0409
 1005TIP3    H124506   4.841   0.936   1.099  0.0713  1.8354  3.1117
 1005TIP3    H224507   4.972   0.975   1.162  2.0483  2.1703 -1.0522
 1006TIP3   OH224508   0.369   3.605  12.776  0.0006 -0.8464 -0.2023
 1006TIP3    H124509   0.422   3.673  12.819 -0.9891 -1.1388  1.5124
 1006TIP3    H224510   0.428   3.530  12.769  0.0554 -0.9306  1.0440
 1007TIP3   OH224511   4.568   3.432   2.354 -0.2897 -0.0437  0.4504
 1007TIP3    H124512   4.654   3.469   2.337 -0.9339  1.4571  0.4050
 1007TIP3    H224513   4.549   3.379   2.276  0.5254 -0.2725  0.4075
 1008TIP3   OH224514   0.748   3.085   3.302 -0.6701 -0.0659 -0.0028
 1008TIP3    H124515   0.778   3.073   3.212  1.6248 -0.5005  0.7641
 1008TIP3    H224516   0.654   3.067   3.299 -1.2516  2.9614 -2.8467
 1009TIP3   OH224517   1.966   5.822  12.044 -0.5254 -0.1350  0.2861
 1009TIP3    H124518   2.041   5.773  12.008 -0.2229  1.2357 -1.0016
 1009TIP3    H224519   1.892   5.762  12.035  0.0449 -0.7612 -0.2891
 1010TIP3   OH224520   4.607   1.229  15.171  0.3413  0.6697  0.1684
 1010TIP3    H124521   4.663   1.152  15.180  1.2979  1.0111 -2.4537
 1010TIP3    H224522   4.518   1.193  15.170  0.6713 -0.2020  0.9339
 1011TIP3   OH224523   3.711   0.820  10.914  0.2924 -0.0238  0.2534
 1011TIP3    H124524   3.659   0.899  10.907  2.7853  1.6098 -0.6711
 1011TIP3    H224525   3.685   0.767  10.838 -0.6588  0.3398  0.3246
 1012TIP3   OH224526   1.123   4.287   2.879 -0.3519  0.4550  0.4891
 1012TIP3    H124527   1.176   4.219   2.837 -1.8999 -0.1177 -0.5939
 1012TIP3    H224528   1.125   4.266   2.972 -1.2877 -1.4571  0.1113
 1013TIP3   OH224529   3.813   6.341   1.738 -0.3686 -0.3595  0.2465
 1013TIP3    H124530   3.752   6.322   1.666 -0.6422 -0.1501  0.4226
 1013TIP3    H224531   3.756   6.367   1.811  0.0123  1.3078 -0.0316
 1014TIP3   OH224532   2.619   5.111   5.035  0.5584 -0.9301  0.8453
 1014TIP3    H124533   2.670   5.188   5.058 -0.2713 -0.1028 -0.0188
 1014TIP3    H224534   2.615   5.113   4.940  2.2618 -3.1955  0.6975
 1015TIP3   OH224535   1.500   2.604   3.044  0.3329  0.1900 -0.3510
 1015TIP3    H124536   1.436   2.600   2.973  0.6055 -0.4273 -0.5660
 1015TIP3    H224537   1.447   2.614   3.123  0.0624  1.6111 -0.6971
 1016TIP3   OH224538   3.177   1.035   5.109  0.9315 -0.2804  0.3803
 1016TIP3    H124539   3.260   0.997   5.079  0.0861 -1.6713 -0.2178
 1016TIP3    H224540   3.114   0.963   5.104 -0.3144  0.7623  0.8456
 1017TIP3   OH224541   4.120   3.418  13.135  0.1574 -0.2969  0.7720
 1017TIP3    H124542   4.116   3.347  13.072  1.3408  0.8026 -0.5755
 1017TIP3    H224543   4.129   3.375  13.220  0.4440 -1.7530  0.0109
 1018TIP3   OH224544   5.265   1.690   1.943  0.5055  0.2465 -0.2645
 1018TIP3    H124545   5.182   1.716   1.904  0.8050  1.6760  0.0513
 1018TIP3    H224546   5.291   1.764   1.996  1.2164 -0.8120  0.8891
 1019TIP3   OH224547   6.676   5.274  13.322  0.0933 -0.7365  0.3404
 1019TIP3    H124548   6.593   5.227  13.331 -0.3589  0.2831  1.6638
 1019TIP3    H224549   6.724   5.253  13.402  0.5967 -0.3308  0.1461
 1020TIP3   OH224550   2.323   0.334  17.024 -0.1974  0.2772  0.2168
 1020TIP3    H124551   2.279   0.331  16.939 -0.7085  0.8723  0.4566
 1020TIP3    H224552   2.408   0.374  17.006 -0.7201  1.3926  0.1533
 1021TIP3   OH224553   2.423   2.218   3.187  0.1388  0.0672  0.1640
 1021TIP3    H124554   2.428   2.122   3.190  0.8968  0.0892 -0.2508
 1021TIP3    H224555   2.459   2.241   3.101  1.6337  0.8224  0.9710
 1022TIP3   OH224556   1.282   4.628  14.296 -0.4442  0.0339  0.5574
 1022TIP3    H124557   1.273   4.633  14.391  0.2666  0.9035  0.5782
 1022TIP3    H224558   1.328   4.708  14.272 -1.3134  0.1895 -0.6061
 1023TIP3   OH224559   0.117   5.012  13.517 -0.1538 -0.5517 -0.1408
 1023TIP3    H124560   0.180   4.944  13.542 -1.8200 -2.4825 -1.0310
 1023TIP3    H224561   0.144   5.037  13.429  1.8946  1.7093  1.0689
 1024TIP3   OH224562   0.483   2.233  11.745 -0.5502  0.0970 -0.2853
 1024TIP3    H124563   0.532   2.268  11.819 -1.3606 -0.3552  0.4820
 1024TIP3    H224564   0.542   2.169  11.706 -0.4939 -0.3968  0.5872
 1025TIP3   OH224565   1.359   1.729   5.489 -0.6279  0.9216 -0.6045
 1025TIP3    H124566   1.304   1.680   5.551 -0.9787  2.0464 -0.0040
 1025TIP3    H224567   1.439   1.678   5.482 -1.2365 -0.0677 -0.4810
 1026TIP3   OH224568   5.502   5.517  16.296 -0.4103  0.2911  0.0738
 1026TIP3    H124569   5.512   5.546  16.205  1.5109 -1.9784 -0.4790
 1026TIP3    H224570   5.591   5.520  16.331 -1.0303  0.3691  1.6512
 1027TIP3   OH224571   6.732   0.764  11.887 -0.4480  0.3510  0.1690
 1027TIP3    H124572   6.690   0.850  11.899 -1.2598 -0.2736  2.0200
 1027TIP3    H224573   6.706   0.738  11.799 -0.4818  1.8543 -0.2881
 1028TIP3   OH224574   6.779   2.671   4.634 -0.4633 -0.3964  0.5049
 1028TIP3    H124575   6.787   2.766   4.621 -3.0362 -0.5147 -2.5897
 1028TIP3    H224576   6.708   2.661   4.697  0.9820 -0.2523  2.1833
 1029TIP3   OH224577   5.147   1.803  14.558 -0.1941  0.4908  0.5983
 1029TIP3    H124578   5.083   1.736  14.580  2.4510 -1.4030  2.8936
 1029TIP3    H224579   5.152   1.858  14.636 -0.8513  2.1926 -0.5228
 1030TIP3   OH224580   5.258   3.943   3.350  0.1412 -0.6362  0.2281
 1030TIP3    H124581   5.173   3.910   3.379  0.1894 -1.4314 -0.5284
 1030TIP3    H224582   5.319   3.871   3.364  0.4711 -0.4701 -0.3408
 1031TIP3   OH224583   3.816   5.872  15.308  0.0566 -0.5771 -0.5717
 1031TIP3    H124584   3.765   5.841  15.383 -1.0227 -0.3339 -1.2028
 1031TIP3    H224585   3.775   5.955  15.284  0.7372 -0.3892 -1.0900
 1032TIP3   OH224586   5.091   2.407  11.717 -0.0469  0.0775 -0.1133
 1032TIP3    H124587   5.008   2.370  11.747 -0.0546  1.1413  1.2195
 1032TIP3    H224588   5.158   2.356  11.763 -0.0243  0.7791  0.6354
 1033TIP3   OH224589   4.748   4.434  16.412  0.0639 -0.2663 -0.4639
 1033TIP3    H124590   4.724   4.350  16.373 -2.4696 -0.2527  0.9516
 1033TIP3    H224591   4.748   4.417  16.506 -1.2255  1.4833 -0.1249
 1034TIP3   OH224592   5.797   1.789  13.977 -0.2443  0.1120  0.8560
 1034TIP3    H124593   5.797   1.882  13.957  0.3491 -0.0729 -0.0414
 1034TIP3    H224594   5.869   1.777  14.039 -0.1764  0.2196  0.7980
 1035TIP3   OH224595   4.718   1.765   0.810  0.0594 -1.0330 -0.0857
 1035TIP3    H124596   4.778   1.832   0.843  1.0428 -1.8671 -0.1206
 1035TIP3    H224597   4.672   1.733   0.887 -0.3708 -0.3612 -0.0627
 1036TIP3   OH224598   1.687   4.253   1.358  0.3436 -0.3150  0.0059
 1036TIP3    H124599   1.593   4.269   1.348  0.3153 -0.1452  0.5306
 1036TIP3    H224600   1.698   4.160   1.339  0.0829 -0.3087 -0.1721
 1037TIP3   OH224601   0.593   1.087  13.980  0.1087 -0.4038 -0.5227
 1037TIP3    H124602   0.583   1.054  13.891  0.2899 -0.3142 -0.5769
 1037TIP3    H224603   0.539   1.166  13.983  0.7462  0.0471 -0.7942
 1038TIP3   OH224604   4.277   4.478  11.514  0.4394 -0.3137 -0.1136
 1038TIP3    H124605   4.222   4.554  11.535  0.1916 -0.8229  1.1112
 1038TIP3    H224606   4.258   4.415  11.584  3.8279  0.1592  1.3163
 1039TIP3   OH224607   4.437   2.438   3.216  0.1519  0.4964  0.2592
 1039TIP3    H124608   4.496   2.375   3.175 -1.3288 -0.2524 -0.7666
 1039TIP3    H224609   4.495   2.502   3.257  1.6847  0.2262 -1.4188
 1040TIP3   OH224610   1.261   3.252   4.040 -0.7732 -0.0354 -0.0387
 1040TIP3    H124611   1.344   3.289   4.008 -0.0210 -0.6436  1.2130
 1040TIP3    H224612   1.211   3.328   4.070 -0.5480  0.2998 -0.5056
 1041TIP3   OH224613   6.782   2.185   3.514 -0.0933 -0.3078  0.1186
 1041TIP3    H124614   6.847   2.124   3.549  1.2724  1.3581  0.5726
 1041TIP3    H224615   6.827   2.230   3.443 -0.8041  0.7152  0.2987
 1042TIP3   OH224616   3.104   4.776  16.130 -0.6666 -0.2357 -0.7256
 1042TIP3    H124617   3.171   4.814  16.073 -1.5603 -0.8735 -2.2302
 1042TIP3    H224618   3.032   4.838  16.126  0.0443  0.7792  1.4109
 1043TIP3   OH224619   1.601   5.322  15.899  0.6743 -0.6679 -0.0397
 1043TIP3    H124620   1.516   5.284  15.917  1.3030 -1.1182  2.1687
 1043TIP3    H224621   1.582   5.403  15.851 -0.9032 -1.3843 -0.6388
 1044TIP3   OH224622   0.640   5.698   6.593 -0.3029 -0.0111  0.6845
 1044TIP3    H124623   0.664   5.788   6.614  0.2726 -0.3323  1.4205
 1044TIP3    H224624   0.713   5.645   6.626 -0.5994 -0.7419  0.1919
 1045TIP3   OH224625   3.039   0.565   0.941  0.6810  0.2105  0.7863
 1045TIP3    H124626   3.080   0.619   0.873 -1.0098  1.3533  0.6572
 1045TIP3    H224627   2.980   0.624   0.986 -0.1564 -1.2003  1.5662
 1046TIP3   OH224628   5.691   1.990   0.520 -0.6864 -0.4869  0.2496
 1046TIP3    H124629   5.656   1.951   0.440  0.9991  1.0881 -1.3131
 1046TIP3    H224630   5.728   2.073   0.492  1.1546 -0.5111  2.4350
 1047TIP3   OH224631   5.526   6.096  16.973  0.0306 -0.8962 -0.4782
 1047TIP3    H124632   5.587   6.079  17.045 -0.4505  2.7550  0.9436
 1047TIP3    H224633   5.582   6.107  16.896  1.1581  1.2108  0.5754
 1048TIP3   OH224634   3.633   5.860   0.120 -0.0513  0.2550  0.2472
 1048TIP3    H124635   3.625   5.810   0.039 -0.1595  1.7509 -0.6741
 1048TIP3    H224636   3.723   5.844   0.148 -0.3364 -1.1426  0.4324
 1049TIP3   OH224637   3.081   3.959   0.352  0.6506  0.3432  0.0757
 1049TIP3    H124638   3.095   3.933   0.443  0.4089 -1.2392 -0.3286
 1049TIP3    H224639   3.124   4.044   0.345  1.6555 -0.0344  1.3894
 1050TIP3   OH224640   0.052   3.333  16.603 -0.2017  0.5360 -0.3065
 1050TIP3    H124641   0.021   3.417  16.569 -0.2908  0.0009 -1.5851
 1050TIP3    H224642  -0.024   3.275  16.598  0.1052  0.1284 -0.3113
 1051TIP3   OH224643   6.380   2.967   2.265 -0.5617 -0.1922 -0.1857
 1051TIP3    H124644   6.317   2.977   2.194 -0.0335  1.7395 -0.4097
 1051TIP3    H224645   6.464   2.992   2.226 -0.1209 -0.0106  0.8686
 1052TIP3   OH224646   2.884   2.014  13.510  0.1020 -0.4941 -0.0915
 1052TIP3    H124647   2.803   1.976  13.543 -0.3157 -0.0486 -0.5916
 1052TIP3    H224648   2.952   1.950  13.532 -0.6021 -1.5569 -0.9932
 1053TIP3   OH224649   5.139   5.018   5.622 -0.3501 -0.0261 -0.6878
 1053TIP3    H124650   5.180   5.074   5.555  1.6297 -0.6122 -0.0034
 1053TIP3    H224651   5.205   4.951   5.640 -1.2230 -0.4035  1.2041
 1054TIP3   OH224652   3.927   3.118   1.771 -0.0943  0.0833  0.2322
 1054TIP3    H124653   3.881   3.035   1.784  0.6676 -0.4365 -0.3447
 1054TIP3    H224654   3.867   3.184   1.805 -1.7229 -0.4786 -1.4383
 1055TIP3   OH224655   1.955   6.188   5.180 -0.4494  0.1034  0.0454
 1055TIP3    H124656   2.040   6.149   5.200  0.7511  1.6407 -1.9287
 1055TIP3    H224657   1.908   6.187   5.263  2.1334  0.7890  1.5546
 1056TIP3   OH224658   3.114   6.711  15.713  0.3941  0.8607 -0.3556
 1056TIP3    H124659   3.082   6.705  15.803 -1.2094  0.0753 -0.9662
 1056TIP3    H224660   3.040   6.684  15.659  1.0289  2.2179 -1.9692
 1057TIP3   OH224661   4.746   1.063  11.712 -0.2871 -0.2031 -0.3959
 1057TIP3    H124662   4.792   1.125  11.768  1.1865  0.2789 -2.0992
 1057TIP3    H224663   4.811   0.996  11.691 -0.9978 -0.7144 -1.0214
 1058TIP3   OH224664   5.910   1.855  11.239  0.2052  0.1879  0.1659
 1058TIP3    H124665   5.964   1.890  11.169 -0.5906  1.3870  0.1507
 1058TIP3    H224666   5.823   1.893  11.225 -0.5320 -1.3073  0.4959
 1059TIP3   OH224667   2.785   2.834   3.277  0.6163  0.1122 -0.2776
 1059TIP3    H124668   2.755   2.816   3.188 -0.1579  2.3546 -0.5039
 1059TIP3    H224669   2.826   2.920   3.271  3.2113 -0.9804  0.9433
 1060TIP3   OH224670   3.775   3.137   3.067 -0.0578  0.2716  1.0105
 1060TIP3    H124671   3.847   3.173   3.014  1.0143 -2.7422  0.2817
 1060TIP3    H224672   3.817   3.111   3.149 -0.2731 -1.4215  0.6125
 1061TIP3   OH224673   5.105   3.770  10.627  0.0758 -0.6210 -0.4387
 1061TIP3    H124674   5.071   3.688  10.662  0.3135 -0.4322  0.2494
 1061TIP3    H224675   5.198   3.770  10.651  0.2908 -0.5797 -1.2547
 1062TIP3   OH224676   4.729   5.091  10.622  0.3322 -0.2084  0.0587
 1062TIP3    H124677   4.716   5.027  10.692  1.2319 -1.0180 -0.5054
 1062TIP3    H224678   4.643   5.101  10.581 -0.8428  2.2831  2.9585
 1063TIP3   OH224679   5.428   5.405   1.267 -0.0822 -0.2197 -0.4130
 1063TIP3    H124680   5.333   5.401   1.253  0.0422  1.1572 -1.7315
 1063TIP3    H224681   5.454   5.487   1.227  1.0314  1.5256  3.6464
 1064TIP3   OH224682   4.572   2.953  12.737  0.4916 -0.1128  0.0094
 1064TIP3    H124683   4.665   2.972  12.754 -0.1284  1.8030  1.4618
 1064TIP3    H224684   4.566   2.947  12.642  2.2270 -0.9420 -0.0725
 1065TIP3   OH224685   5.625   0.491   5.288  0.6438  0.0877  0.1284
 1065TIP3    H124686   5.543   0.497   5.240 -0.1219 -0.4179  1.3448
 1065TIP3    H224687   5.613   0.546   5.366  1.0464 -0.8330  0.8624
 1066TIP3   OH224688   2.487   0.138   4.656 -0.0673 -0.1766  0.1814
 1066TIP3    H124689   2.405   0.103   4.623  0.3792  1.1462 -2.4989
 1066TIP3    H224690   2.552   0.114   4.590  1.4179  0.1444  1.4803
 1067TIP3   OH224691   5.553   0.274  16.993 -0.0491  0.8846  0.1507
 1067TIP3    H124692   5.609   0.246  16.921 -1.0451  0.2207 -0.3857
 1067TIP3    H224693   5.464   0.255  16.963 -0.4684  0.4556  1.6173
 1068TIP3   OH224694   5.374   2.623   2.240  0.2532 -0.5819  0.5127
 1068TIP3    H124695   5.422   2.542   2.224  0.2186 -0.9162  2.0830
 1068TIP3    H224696   5.291   2.595   2.277  0.5016  0.2019  1.6722
 1069TIP3   OH224697   6.112   4.603  10.561 -0.3210  0.2076 -0.2720
 1069TIP3    H124698   6.200   4.594  10.524 -1.5488 -0.4414 -3.1335
 1069TIP3    H224699   6.127   4.611  10.655  2.6666 -2.5764 -0.4178
 1070TIP3   OH224700   5.723   5.945  12.842  0.0053 -0.7595  0.0095
 1070TIP3    H124701   5.681   5.930  12.927 -0.0143  0.0984  0.1480
 1070TIP3    H224702   5.701   5.866  12.792 -0.7783 -0.8539  0.4827
 1071TIP3   OH224703   3.364   0.604   0.768 -0.4282 -0.6744  0.0097
 1071TIP3    H124704   3.321   0.532   0.722 -0.3304  0.3274 -1.7040
 1071TIP3    H224705   3.366   0.577   0.860 -2.0314 -2.0300 -0.3427
 1072TIP3   OH224706   4.804   5.815  12.943  0.0411  0.9757  0.3426
 1072TIP3    H124707   4.720   5.775  12.920 -0.2592  0.9187  1.4970
 1072TIP3    H224708   4.823   5.874  12.869 -0.7914  0.6605 -0.1386
 1073TIP3   OH224709   1.700   5.304  15.567 -1.0025  0.5546  0.3365
 1073TIP3    H124710   1.711   5.275  15.657 -0.3334  1.3536  0.5114
 1073TIP3    H224711   1.699   5.400  15.572  0.1066  0.6311 -0.6201
 1074TIP3   OH224712   5.907   2.020   3.464 -0.2824  0.2759  0.5304
 1074TIP3    H124713   5.924   2.112   3.443 -0.6477 -0.0673 -1.3368
 1074TIP3    H224714   5.812   2.013   3.464 -0.2497 -0.1789  0.3074
 1075TIP3   OH224715   1.493   1.981   3.842 -0.0819  0.0325  0.7793
 1075TIP3    H124716   1.583   1.981   3.810 -0.4760  0.5557 -0.3692
 1075TIP3    H224717   1.485   1.899   3.892  0.5740 -0.7598 -0.3933
 1076TIP3   OH224718   3.924   4.579  11.299 -0.2096 -0.1178  0.0967
 1076TIP3    H124719   3.934   4.639  11.372  0.8521  0.6160 -0.6274
 1076TIP3    H224720   4.011   4.542  11.286 -0.4848 -0.5655 -0.5305
 1077TIP3   OH224721   5.421   2.064  15.902  0.2472  0.4764 -0.7219
 1077TIP3    H124722   5.433   2.053  15.996 -0.9736 -0.4931 -0.6549
 1077TIP3    H224723   5.370   1.987  15.876 -0.2963  1.2533 -1.9887
 1078TIP3   OH224724   0.756   6.207  14.108  0.9826 -0.1974  0.5807
 1078TIP3    H124725   0.715   6.288  14.137  0.4582  0.0159 -0.6911
 1078TIP3    H224726   0.849   6.230  14.099  0.7055  0.5300 -0.6131
 1079TIP3   OH224727   4.794   5.398  15.459 -0.3214 -0.3224 -0.4212
 1079TIP3    H124728   4.852   5.350  15.517  0.5618 -1.3376 -2.0861
 1079TIP3    H224729   4.730   5.333  15.430  0.7594 -0.4778 -2.5418
 1080TIP3   OH224730   3.068   5.667   4.570 -0.2388  0.2839  0.3989
 1080TIP3    H124731   3.047   5.578   4.598  1.3144 -0.0203  0.6317
 1080TIP3    H224732   3.091   5.659   4.478 -0.0261  0.4288  0.4387
 1081TIP3   OH224733   2.674   1.759   3.578  0.3669  0.1987 -0.4997
 1081TIP3    H124734   2.690   1.695   3.509  0.7347 -0.8723  0.5603
 1081TIP3    H224735   2.579   1.759   3.590  0.4698 -1.2335  0.4820
 1082TIP3   OH224736   3.934   1.455  14.848 -0.0180 -0.4643  0.3510
 1082TIP3    H124737   3.992   1.413  14.784  2.1499  0.1814  1.8530
 1082TIP3    H224738   3.949   1.549  14.837 -0.8292 -0.2844  0.7326
 1083TIP3   OH224739   6.598   0.730  14.996  0.1538 -0.2462  0.1608
 1083TIP3    H124740   6.520   0.753  15.047  2.1107  0.5214  2.9220
 1083TIP3    H224741   6.597   0.634  14.994 -0.5358 -0.2535  0.6987
 1084TIP3   OH224742   6.810   2.799   3.157  0.0553  0.0565 -0.1813
 1084TIP3    H124743   6.748   2.728   3.170  0.4142 -0.2212  0.0220
 1084TIP3    H224744   6.755   2.877   3.143 -0.3356 -0.0947  0.4924
 1085TIP3   OH224745   5.002   3.802  12.276 -0.1892 -0.6017  0.4731
 1085TIP3    H124746   5.004   3.708  12.290  0.1914 -0.5085  1.0702
 1085TIP3    H224747   5.007   3.813  12.181  2.7885 -1.0863  0.5445
 1086TIP3   OH224748   1.177   4.166  13.716  0.0071  0.7395 -0.4034
 1086TIP3    H124749   1.240   4.231  13.685 -0.8428  1.0998 -1.4440
 1086TIP3    H224750   1.095   4.190  13.673 -0.6485 -0.2041  0.2856
 1087TIP3   OH224751   5.257   3.406   5.167  0.0446 -0.2214 -0.0185
 1087TIP3    H124752   5.179   3.403   5.223 -0.2906 -1.3818 -0.5147
 1087TIP3    H224753   5.269   3.499   5.148 -2.5697 -0.1510 -1.7340
 1088TIP3   OH224754   2.950   1.942   0.809 -0.0533  0.3393  0.3107
 1088TIP3    H124755   2.895   1.934   0.731  2.9080  2.1744 -2.0979
 1088TIP3    H224756   2.888   1.943   0.882 -2.9878 -0.5406 -2.0494
 1089TIP3   OH224757   5.797   3.775  15.241  0.4622 -0.0796 -0.3547
 1089TIP3    H124758   5.791   3.817  15.155 -0.3986  0.8342  0.1347
 1089TIP3    H224759   5.791   3.847  15.303 -2.0508 -0.9766  0.5294
 1090TIP3   OH224760   2.213   4.627  14.079 -0.2235  0.7464 -0.2125
 1090TIP3    H124761   2.126   4.622  14.119 -0.8252  0.3331 -1.5651
 1090TIP3    H224762   2.245   4.714  14.104 -0.8783  0.7760  0.5526
 1091TIP3   OH224763   0.835   6.132   1.226  0.3938 -1.0236  0.2145
 1091TIP3    H124764   0.803   6.045   1.201 -3.2567  0.0664  0.8094
 1091TIP3    H224765   0.820   6.186   1.148  1.2525 -0.5863  0.3493
 1092TIP3   OH224766   0.582   3.279   5.618 -0.2256 -0.4163 -0.1105
 1092TIP3    H124767   0.650   3.342   5.643  0.8545 -1.7891  0.5010
 1092TIP3    H224768   0.587   3.211   5.685  1.2067 -3.0656 -2.7898
 1093TIP3   OH224769   2.218   1.931  14.150 -0.4063  0.4519 -0.4733
 1093TIP3    H124770   2.173   1.958  14.070 -1.1523 -1.2473 -0.6516
 1093TIP3    H224771   2.295   1.885  14.120 -0.0413  0.8774 -0.1951
 1094TIP3   OH224772   4.898   6.685  16.933  0.1778 -0.4692 -0.0269
 1094TIP3    H124773   4.821   6.725  16.893  0.2211  0.5634  0.8718
 1094TIP3    H224774   4.965   6.754  16.931  0.9948 -1.2728 -0.5677
 1095TIP3   OH224775   2.856   5.843  14.440  0.0585 -0.4679 -0.1277
 1095TIP3    H124776   2.780   5.829  14.385 -0.2439  0.0745  0.1496
 1095TIP3    H224777   2.922   5.782  14.406 -0.1304 -0.1563 -1.0708
 1096TIP3   OH224778   6.681   5.793   2.527  0.1679  0.6733  0.0388
 1096TIP3    H124779   6.717   5.865   2.475  0.1201  1.1263  0.6338
 1096TIP3    H224780   6.588   5.813   2.536 -0.0977 -0.0970 -0.8324
 1097TIP3   OH224781   5.149   1.556  12.513 -0.2503  0.0415 -0.5448
 1097TIP3    H124782   5.152   1.574  12.607  0.4117 -1.5102 -0.2498
 1097TIP3    H224783   5.058   1.572  12.489 -0.4034  0.5602  0.3337
 1098TIP3   OH224784   6.407   0.108   3.866  0.2677 -0.0830  0.1357
 1098TIP3    H124785   6.456   0.169   3.812  0.7744 -1.4906 -1.0182
 1098TIP3    H224786   6.398   0.030   3.812 -0.0465 -1.1652  1.7238
 1099TIP3   OH224787   5.897   5.983   3.888  0.3850  0.5312  0.3158
 1099TIP3    H124788   5.804   6.004   3.879  0.2066 -0.8900 -1.4001
 1099TIP3    H224789   5.937   6.019   3.809  0.7487 -1.6634 -0.5469
 1100TIP3   OH224790   2.323   3.944  13.438 -0.5015  0.1786 -0.1003
 1100TIP3    H124791   2.314   4.000  13.361  1.6118  1.2568  0.3962
 1100TIP3    H224792   2.402   3.891  13.421 -0.0048  0.4324  1.3013
 1101TIP3   OH224793   5.492   1.023   4.969 -0.0829 -0.2740 -0.5281
 1101TIP3    H124794   5.544   1.098   4.940 -0.0543  0.2141  0.7629
 1101TIP3    H224795   5.418   1.062   5.016 -0.8247 -1.0173 -1.0522
 1102TIP3   OH224796   5.884   3.271  13.788  0.1286  0.4814 -0.4329
 1102TIP3    H124797   5.828   3.346  13.807 -0.0841  0.6087 -1.5147
 1102TIP3    H224798   5.964   3.286  13.839  0.2493  1.6548 -0.9613
 1103TIP3   OH224799   6.075   6.198  12.899  0.1893 -0.5260  0.6694
 1103TIP3    H124800   6.074   6.107  12.928 -0.8153 -0.7180  0.0587
 1103TIP3    H224801   6.032   6.196  12.813 -3.5020  1.0922  2.3688
 1104TIP3   OH224802   0.438   3.145   5.385  0.2195 -0.2119 -0.0191
 1104TIP3    H124803   0.436   3.210   5.314  1.8991  0.4337  0.4853
 1104TIP3    H224804   0.374   3.079   5.359 -0.1371  0.6844 -1.4961
 1105TIP3   OH224805   5.483   5.457  15.986 -0.6118  0.0560 -0.2842
 1105TIP3    H124806   5.486   5.444  15.891  0.5498  2.4767 -0.6165
 1105TIP3    H224807   5.392   5.480  16.004 -0.6175  0.6208 -0.9893
 1106TIP3   OH224808   5.626   3.957   5.861 -0.2932  0.7296  0.0142
 1106TIP3    H124809   5.627   3.896   5.935 -0.5437  1.6600  0.7948
 1106TIP3    H224810   5.716   3.953   5.827 -0.0194  0.7281  0.7224
 1107TIP3   OH224811   0.334   0.342  11.599 -0.2113 -0.0500 -0.1830
 1107TIP3    H124812   0.373   0.315  11.515 -0.1629 -1.0211  0.1444
 1107TIP3    H224813   0.246   0.304  11.598  0.1971 -1.0394  0.6942
 1108TIP3   OH224814   6.069   3.774   5.338  0.1177 -0.1332 -0.0310
 1108TIP3    H124815   6.026   3.731   5.264  0.2099 -0.2992  0.0120
 1108TIP3    H224816   6.158   3.790   5.309 -0.8043  3.0254 -1.2689
 1109TIP3   OH224817   4.350   0.291   5.029  0.5047  0.5838 -0.4449
 1109TIP3    H124818   4.290   0.362   5.004 -0.1948  0.4204  0.7129
 1109TIP3    H224819   4.309   0.211   4.996  0.6126  0.5834 -0.5762
 1110TIP3   OH224820   5.383   1.329   4.052  0.0136  0.3097 -0.0652
 1110TIP3    H124821   5.462   1.323   3.998  0.7461  2.2530  0.7409
 1110TIP3    H224822   5.392   1.258   4.115  0.9409  0.2864 -0.2076
 1111TIP3   OH224823   2.784   0.396  16.575  0.0982 -0.2416 -0.1466
 1111TIP3    H124824   2.730   0.331  16.619 -0.2392  0.7535  0.9440
 1111TIP3    H224825   2.745   0.480  16.600  1.0350  0.4161 -0.8438
 1112TIP3   OH224826   5.454   0.876  12.856 -0.5926 -0.0083  0.2260
 1112TIP3    H124827   5.479   0.807  12.795  0.8120  1.5732 -1.0421
 1112TIP3    H224828   5.414   0.943  12.800  1.2572  1.7191  0.9401
 1113TIP3   OH224829   3.256   0.797  14.412 -0.2267  0.4861  0.4992
 1113TIP3    H124830   3.242   0.717  14.462  1.9072 -0.7431 -0.8262
 1113TIP3    H224831   3.327   0.842  14.458 -0.7390  1.1640  0.6510
 1114TIP3   OH224832   0.189   5.426  13.744 -0.3724  0.5066  0.3046
 1114TIP3    H124833   0.234   5.343  13.729  0.0189  0.8472 -0.4034
 1114TIP3    H224834   0.099   5.400  13.763  0.3238 -0.2367  2.7491
 1115TIP3   OH224835   3.873   6.148  13.946 -0.1155  0.3777 -0.6142
 1115TIP3    H124836   3.907   6.098  14.021 -0.1012 -0.7663 -1.3791
 1115TIP3    H224837   3.787   6.111  13.929 -0.5742  1.3696 -0.4871
 1116TIP3   OH224838   3.889   1.059   5.261 -0.2064 -0.3295 -0.1075
 1116TIP3    H124839   3.891   1.141   5.311  0.3373 -0.5919  0.3101
 1116TIP3    H224840   3.863   0.993   5.325 -2.7449 -0.1570 -0.9311
 1117TIP3   OH224841   6.388   3.517   0.372 -0.5526 -0.4805  0.1675
 1117TIP3    H124842   6.358   3.545   0.285 -0.6826 -1.6872 -0.1882
 1117TIP3    H224843   6.318   3.459   0.403  1.0532 -2.7434 -0.3526
 1118TIP3   OH224844   6.715   1.685  11.804 -0.2719  0.0411 -0.6795
 1118TIP3    H124845   6.771   1.748  11.849 -0.1106 -1.7974  1.7561
 1118TIP3    H224846   6.754   1.677  11.717  0.0946  2.7479 -0.8272
 1119TIP3   OH224847   4.007   3.199  12.224  0.3006  0.3254 -0.4299
 1119TIP3    H124848   4.053   3.212  12.141  0.2205  1.1062 -0.3565
 1119TIP3    H224849   3.946   3.272  12.229 -0.6157 -0.4392 -0.2955
 1120TIP3   OH224850   2.493   4.880  14.142 -0.3005 -0.5591  0.9616
 1120TIP3    H124851   2.562   4.935  14.179  1.3819 -1.9069 -0.0655
 1120TIP3    H224852   2.515   4.874  14.049 -1.7689 -1.0789  0.6382
 1121TIP3   OH224853   2.098   3.227  14.755 -0.2690 -0.3230 -0.1746
 1121TIP3    H124854   2.092   3.136  14.724  2.8857 -0.4333 -0.6271
 1121TIP3    H224855   2.046   3.277  14.692  0.2961 -1.4716 -1.5857
 1122TIP3   OH224856   5.919   0.889   2.881  0.3033  0.6659  0.2391
 1122TIP3    H124857   5.865   0.825   2.834  1.0679 -1.2629  1.9210
 1122TIP3    H224858   5.857   0.955   2.911 -0.9346 -0.7753  0.9340
 1123TIP3   OH224859   0.505   4.886  16.348 -0.1064  0.0637  0.0730
 1123TIP3    H124860   0.427   4.939  16.333  1.7317  2.5743 -0.9040
 1123TIP3    H224861   0.476   4.796  16.333 -2.8786  0.9222  0.0503
 1124TIP3   OH224862   1.576   4.708   1.186 -0.6262 -0.9871 -0.5501
 1124TIP3    H124863   1.598   4.759   1.108 -0.6843  0.5065  0.4027
 1124TIP3    H224864   1.531   4.770   1.243  1.0409 -1.5919  1.4477
 1125TIP3   OH224865   6.542   5.416  11.400 -0.5262  0.8322  0.6692
 1125TIP3    H124866   6.465   5.430  11.455 -1.2062  1.6378 -0.4540
 1125TIP3    H224867   6.518   5.456  11.316  1.1419  1.1141  0.3241
 1126TIP3   OH224868   6.159   5.434   2.023 -0.5609  0.0846  0.3360
 1126TIP3    H124869   6.181   5.486   2.100  0.6513 -2.0266  1.4606
 1126TIP3    H224870   6.064   5.424   2.028 -0.4965 -0.0667  1.6211
 1127TIP3   OH224871   6.450   0.124   0.387  0.6212  0.0426  0.0508
 1127TIP3    H124872   6.459   0.047   0.444  0.0188 -0.8544 -1.0478
 1127TIP3    H224873   6.463   0.198   0.445 -1.0439 -0.8301  1.5942
 1128TIP3   OH224874   3.514   1.361  14.613  0.5985  0.0239  0.3184
 1128TIP3    H124875   3.449   1.371  14.544  0.0161  2.1704  1.1485
 1128TIP3    H224876   3.595   1.396  14.574  0.5432  0.1567  0.3223
 1129TIP3   OH224877   4.465   4.239  14.946 -0.7839 -0.6066 -0.3063
 1129TIP3    H124878   4.556   4.228  14.919 -0.3560  2.4701 -0.3378
 1129TIP3    H224879   4.438   4.153  14.977  2.5309 -1.2763  0.9158
 1130TIP3   OH224880   1.297   0.308   4.829 -0.7321  0.3278 -0.3223
 1130TIP3    H124881   1.351   0.351   4.896  0.0881 -0.0200 -0.7548
 1130TIP3    H224882   1.209   0.307   4.867 -0.8577  2.7493 -0.4675
 1131TIP3   OH224883   0.378   4.201   3.374 -0.3757  0.6502  1.0523
 1131TIP3    H124884   0.427   4.238   3.447  0.8242  1.2114 -0.0253
 1131TIP3    H224885   0.427   4.227   3.296  1.0969 -3.9730  0.2710
 1132TIP3   OH224886   0.174   6.545  16.554  0.3274  0.3325 -0.4530
 1132TIP3    H124887   0.124   6.591  16.622  0.7316 -2.2364  1.6909
 1132TIP3    H224888   0.254   6.597  16.544  0.1246  0.9155  0.8518
 1133TIP3   OH224889   3.687   0.013   1.468 -0.0252  0.0910 -0.8673
 1133TIP3    H124890   3.740  -0.004   1.546 -1.2392  0.4328  0.0686
 1133TIP3    H224891   3.598   0.021   1.502 -0.4449  1.1682 -2.1795
 1134TIP3   OH224892   0.993   1.490  13.170  0.0141 -0.1794 -0.8699
 1134TIP3    H124893   0.903   1.479  13.200  0.4893 -0.0547  0.6721
 1134TIP3    H224894   0.988   1.558  13.103 -0.8437  0.9372  0.2931
 1135TIP3   OH224895   5.467   2.864  14.626  0.3222  0.2393  0.3136
 1135TIP3    H124896   5.525   2.789  14.636 -0.1401 -0.6739 -3.2704
 1135TIP3    H224897   5.388   2.840  14.674  0.9920 -0.6240  0.9970
 1136TIP3   OH224898   0.004   0.700   4.970 -0.4419 -0.2087 -0.2858
 1136TIP3    H124899   0.056   0.762   4.918  0.7795 -2.1667 -1.4781
 1136TIP3    H224900  -0.005   0.743   5.055  3.3698  0.1562  0.0521
 1137TIP3   OH224901   4.342   5.628   1.200 -0.2432  0.2462 -0.5580
 1137TIP3    H124902   4.330   5.573   1.123 -0.8402  0.4857 -0.6425
 1137TIP3    H224903   4.407   5.693   1.173 -1.8326  1.4861 -1.4950
 1138TIP3   OH224904   0.454   0.690  13.861 -0.5708  0.0891 -0.0734
 1138TIP3    H124905   0.381   0.726  13.912 -2.1716 -1.9188 -0.8795
 1138TIP3    H224906   0.433   0.598  13.850  2.2840 -0.6153 -0.0819
 1139TIP3   OH224907   3.225   2.580  14.602  0.2783 -0.0069  0.4192
 1139TIP3    H124908   3.153   2.632  14.565 -0.2060 -0.2103  1.0667
 1139TIP3    H224909   3.183   2.522  14.666  1.0123 -0.1452  0.7859
 1140TIP3   OH224910   2.858   1.808   0.567 -0.7902 -0.7613 -0.0337
 1140TIP3    H124911   2.875   1.724   0.524 -1.4263 -0.4885 -0.8323
 1140TIP3    H224912   2.872   1.873   0.499  0.7290 -0.1392  0.8609
 1141TIP3   OH224913   2.456   1.453  12.006 -0.2004  0.1880 -0.2169
 1141TIP3    H124914   2.453   1.510  11.929 -0.5531 -0.8708 -0.9942
 1141TIP3    H224915   2.549   1.439  12.022 -0.1301  0.0538 -0.7234
 1142TIP3   OH224916   5.974   5.599  13.490  0.2424  0.0500  0.3439
 1142TIP3    H124917   6.070   5.606  13.497  0.3113  1.1461 -1.4526
 1142TIP3    H224918   5.960   5.529  13.427 -0.1240  0.4988 -0.0714
 1143TIP3   OH224919   5.671   2.678   5.385 -0.1491 -0.4741 -0.1749
 1143TIP3    H124920   5.670   2.687   5.289  0.8513 -0.3276 -0.1777
 1143TIP3    H224921   5.582   2.702   5.412 -0.2734  0.0537 -1.0220
 1144TIP3   OH224922   2.930   6.213   1.881 -0.2145  0.2572  0.5312
 1144TIP3    H124923   2.914   6.176   1.968 -1.1789 -0.2092  0.1672
 1144TIP3    H224924   3.025   6.211   1.871 -0.0548  0.9603  1.8547
 1145TIP3   OH224925   5.273   3.466   2.428 -0.0542 -0.9354 -0.3085
 1145TIP3    H124926   5.242   3.379   2.454 -0.5550 -0.8504 -0.6187
 1145TIP3    H224927   5.368   3.461   2.435 -0.1802 -0.7669  2.0658
 1146TIP3   OH224928   5.259   5.846   2.351  0.2126  0.2951 -0.5313
 1146TIP3    H124929   5.294   5.849   2.262  1.5749  0.0827 -0.0098
 1146TIP3    H224930   5.184   5.788   2.346 -0.3344  1.0959 -1.7521
 1147TIP3   OH224931   6.709   4.953  10.272  0.5636  0.0481 -0.2319
 1147TIP3    H124932   6.767   5.021  10.306 -0.1628  1.5936 -1.9842
 1147TIP3    H224933   6.765   4.878  10.258  2.0350  1.3044 -1.2685
 1148TIP3   OH224934   1.602   6.239  12.170  0.1213 -0.5375  0.4328
 1148TIP3    H124935   1.627   6.306  12.234 -1.2479 -0.5700  1.0289
 1148TIP3    H224936   1.620   6.279  12.085  2.1879 -0.5847  0.8159
 1149TIP3   OH224937   0.506   3.582   0.601  0.3165 -0.5856 -0.2936
 1149TIP3    H124938   0.526   3.498   0.643 -0.6439 -0.2088  0.9303
 1149TIP3    H224939   0.418   3.604   0.632 -0.7078 -0.6314 -3.0314
 1150TIP3   OH224940   6.502   1.307   3.947 -0.3903 -0.0149 -0.1755
 1150TIP3    H124941   6.444   1.365   3.997  0.0670  0.6845 -0.4536
 1150TIP3    H224942   6.445   1.268   3.881 -1.1030 -1.2889  1.1554
 1151TIP3   OH224943   0.733   3.072  15.933  0.4024 -0.2003 -0.1311
 1151TIP3    H124944   0.664   3.036  15.989  1.7017  1.1763  2.4077
 1151TIP3    H224945   0.814   3.061  15.984  1.4424  2.2883 -1.1883
 1152TIP3   OH224946   5.105   2.612   1.321 -0.3143  0.2845 -0.2000
 1152TIP3    H124947   5.198   2.632   1.314 -1.0870  3.2042 -3.1476
 1152TIP3    H224948   5.073   2.672   1.389 -0.3086  0.2315 -0.1500
 1153TIP3   OH224949   3.959   5.962  16.702 -0.1367 -0.2824 -0.8300
 1153TIP3    H124950   4.032   6.023  16.702 -1.0973  0.8966  0.0713
 1153TIP3    H224951   3.998   5.877  16.683  1.2652  0.5542 -1.7531
 1154TIP3   OH224952   0.264   3.996  17.292 -0.3263 -0.1904 -0.0536
 1154TIP3    H124953   0.330   4.055  17.256 -2.8623  1.6048 -1.8904
 1154TIP3    H224954   0.231   3.948  17.216 -2.1289 -0.0323  0.6170
 1155TIP3   OH224955   1.792   2.589  17.271 -0.2844  0.2105 -0.2738
 1155TIP3    H124956   1.697   2.580  17.281 -0.3269  0.3200 -0.5726
 1155TIP3    H224957   1.825   2.595  17.360 -0.6929  1.5719 -0.1960
 1156TIP3   OH224958   0.717   4.360   0.936  0.2609 -0.0604 -0.2225
 1156TIP3    H124959   0.719   4.454   0.956 -0.7885  0.0072 -0.4426
 1156TIP3    H224960   0.727   4.317   1.021 -2.1674  0.2413  0.2569
 1157TIP3   OH224961   6.186   4.712  17.038 -0.0289 -0.4125  0.1027
 1157TIP3    H124962   6.095   4.705  17.065  0.2829 -1.1253  0.9835
 1157TIP3    H224963   6.225   4.772  17.102  0.5170 -1.4636  0.7758
 1158TIP3   OH224964   4.876   1.507  16.086  0.5352  0.0515 -0.0206
 1158TIP3    H124965   4.789   1.472  16.104 -0.2502  0.9041 -2.0069
 1158TIP3    H224966   4.933   1.430  16.084  0.5512 -0.2216  4.8467
 1159TIP3   OH224967   3.312   3.463  14.909  0.2582 -0.5893  0.2554
 1159TIP3    H124968   3.393   3.473  14.860  1.0905 -0.0590  1.7240
 1159TIP3    H224969   3.330   3.502  14.994 -1.9138  0.6251  0.2083
 1160TIP3   OH224970   2.367   6.807   1.932  0.4919  0.3046  0.4475
 1160TIP3    H124971   2.308   6.822   2.005 -0.1956 -0.9218  0.1573
 1160TIP3    H224972   2.310   6.798   1.856  1.2431  2.5515 -0.4441
 1161TIP3   OH224973   3.852   3.988  11.913  0.1585 -0.2871 -0.5734
 1161TIP3    H124974   3.901   3.931  11.854  0.8812  1.2118 -1.4533
 1161TIP3    H224975   3.767   3.945  11.922  1.0916 -2.1046 -0.2707
 1162TIP3   OH224976   1.233   3.260  12.657 -0.1250  0.3802 -0.0254
 1162TIP3    H124977   1.280   3.300  12.730 -1.7481  1.6273  0.3680
 1162TIP3    H224978   1.205   3.175  12.690 -0.5997  0.8167  0.7108
 1163TIP3   OH224979   3.239   2.104   0.385 -0.0525 -0.1244  0.1092
 1163TIP3    H124980   3.152   2.085   0.351 -0.0180  2.1917 -1.3471
 1163TIP3    H224981   3.234   2.078   0.477 -1.9885 -0.8487 -0.1652
 1164TIP3   OH224982   4.614   0.004  14.785 -0.0363  0.2104 -0.6621
 1164TIP3    H124983   4.579  -0.039  14.863 -0.5875  0.3385 -0.8385
 1164TIP3    H224984   4.680   0.064  14.819 -0.3385  0.3331 -0.2825
 1165TIP3   OH224985   2.887   0.061  14.999 -0.3941 -0.1563  0.5631
 1165TIP3    H124986   2.918   0.125  14.935 -3.8319  0.5830 -0.4580
 1165TIP3    H224987   2.967   0.018  15.029  1.7898  2.9379 -0.4822
 1166TIP3   OH224988   4.971   5.602   1.187  0.7362  0.3096  0.0922
 1166TIP3    H124989   4.929   5.672   1.238  1.9815  1.4612 -0.4282
 1166TIP3    H224990   5.013   5.648   1.115  1.5721 -0.9927 -0.2558
 1167TIP3   OH224991   0.856   5.830   2.908  0.3616  0.0606 -0.5848
 1167TIP3    H124992   0.859   5.915   2.863  1.6844 -0.2380 -1.0763
 1167TIP3    H224993   0.909   5.842   2.986  0.4522 -0.2737 -0.5928
 1168TIP3   OH224994   6.244   2.842  16.319  0.1062 -0.1127  0.2450
 1168TIP3    H124995   6.307   2.833  16.391 -0.2096 -0.9051  0.4293
 1168TIP3    H224996   6.287   2.900  16.256  0.9822 -0.5834  0.4086
 1169TIP3   OH224997   4.444   3.400   2.612  0.6201 -0.1003  0.2274
 1169TIP3    H124998   4.456   3.308   2.588 -0.5536 -0.0705 -0.4768
 1169TIP3    H224999   4.459   3.449   2.531  1.5817  0.3631  0.6745
 1170TIP3   OH225000   6.345   3.412   4.833  0.6626 -0.1056 -0.3348
 1170TIP3    H125001   6.307   3.490   4.792  1.0049 -0.8975 -2.2256
 1170TIP3    H225002   6.440   3.426   4.827  0.7329 -0.8704 -1.1110
 1171TIP3   OH225003   6.202   0.462   3.880  0.9419 -0.0666 -0.5017
 1171TIP3    H125004   6.219   0.384   3.933  1.1991  0.0228 -0.4537
 1171TIP3    H225005   6.232   0.438   3.792 -1.1079 -0.8586 -1.0324
 1172TIP3   OH225006   3.124   1.936  14.764  0.3947  0.2091 -0.0246
 1172TIP3    H125007   3.052   1.873  14.777  1.7965 -1.3925  0.1680
 1172TIP3    H225008   3.081   2.021  14.761 -1.5142 -0.7210  0.1433
 1173TIP3   OH225009   0.714   5.823  17.090  0.4032 -0.3531  0.2382
 1173TIP3    H125010   0.624   5.845  17.113  0.5265 -1.3209  1.6725
 1173TIP3    H225011   0.759   5.812  17.174  1.6181 -0.8319 -0.4566
 1174TIP3   OH225012   2.463   2.386   1.013 -0.0448  0.2187  0.0063
 1174TIP3    H125013   2.510   2.305   0.993  0.9378  1.0257 -1.0289
 1174TIP3    H225014   2.493   2.448   0.946 -1.5150  1.1576  0.1966
 1175TIP3   OH225015   0.727   3.307   1.942  0.2062 -0.3578 -0.4725
 1175TIP3    H125016   0.820   3.285   1.932  0.9278  2.2793  0.0171
 1175TIP3    H225017   0.714   3.313   2.037 -0.0421  0.8193 -0.5632
 1176TIP3   OH225018   3.561   6.231   4.610  0.5264 -0.1919 -0.4508
 1176TIP3    H125019   3.557   6.318   4.571  1.1327 -0.1480 -0.4111
 1176TIP3    H225020   3.492   6.231   4.676  0.2962  0.1392 -0.6864
 1177TIP3   OH225021   1.596   1.417  15.613  0.2764 -0.4364  0.1844
 1177TIP3    H125022   1.589   1.330  15.573  3.3399 -0.5113 -0.2576
 1177TIP3    H225023   1.633   1.402  15.700  0.5324  0.3870  0.2254
 1178TIP3   OH225024   3.463   5.800  12.329  0.6711 -0.2927  0.3788
 1178TIP3    H125025   3.494   5.794  12.419  4.0320  1.4600 -0.5767
 1178TIP3    H225026   3.521   5.742  12.280 -0.4687 -0.4389 -0.8447
 1179TIP3   OH225027   5.043   2.752  14.776 -0.2211 -0.7467  0.0054
 1179TIP3    H125028   4.959   2.757  14.822  2.0484 -0.3180  4.3451
 1179TIP3    H225029   5.093   2.686  14.824  3.7760  2.6877  0.9096
 1180TIP3   OH225030   4.092   4.115   1.181 -0.0436 -0.1180 -0.2157
 1180TIP3    H125031   4.078   4.022   1.195 -0.9662 -0.0303 -0.5192
 1180TIP3    H225032   4.057   4.157   1.260  2.2179 -0.1439  0.8483
 1181TIP3   OH225033   6.654   4.173  14.675  0.0421  0.0517  0.1866
 1181TIP3    H125034   6.638   4.085  14.641 -0.4228  0.3968 -0.4932
 1181TIP3    H225035   6.583   4.188  14.738  1.2125 -0.8009  1.7614
 1182TIP3   OH225036   5.443   1.624  15.913 -0.1160  0.4882  0.2206
 1182TIP3    H125037   5.399   1.548  15.875  1.1462  0.5753 -1.4970
 1182TIP3    H225038   5.404   1.700  15.869  0.9099  0.6225 -0.5054
 1183TIP3   OH225039   2.200   3.554  14.903  0.7221  0.3690  0.1655
 1183TIP3    H125040   2.216   3.627  14.963  0.7392 -0.2903  0.9563
 1183TIP3    H225041   2.105   3.543  14.904  0.8205 -0.4125  0.9770
 1184TIP3   OH225042   2.591   2.893   2.882 -0.5813  0.1689  0.2352
 1184TIP3    H125043   2.674   2.864   2.921 -1.1933  0.5022  1.8222
 1184TIP3    H225044   2.528   2.825   2.908 -1.9021  2.4902  3.4782
 1185TIP3   OH225045   4.384   6.279   1.296 -0.3173 -0.6917  0.0605
 1185TIP3    H125046   4.296   6.285   1.333 -0.2210  0.7016  0.0850
 1185TIP3    H225047   4.378   6.211   1.229 -1.6108 -0.0594 -0.4750
 1186TIP3   OH225048   6.229   3.298   0.405  0.3368  0.0494 -0.4846
 1186TIP3    H125049   6.210   3.261   0.491 -0.2950 -0.2783 -0.7599
 1186TIP3    H225050   6.280   3.231   0.359 -0.8489 -0.5188 -1.0005
 1187TIP3   OH225051   4.486   6.540  16.323  0.5522  0.7173  0.7573
 1187TIP3    H125052   4.539   6.521  16.246  3.2234 -0.0667  2.7544
 1187TIP3    H225053   4.470   6.635  16.318  2.4793  1.0286  0.3607
 1188TIP3   OH225054   5.477   3.098  14.270  0.2522 -0.4431  0.5096
 1188TIP3    H125055   5.457   3.085  14.177  1.3754 -0.4637  0.2695
 1188TIP3    H225056   5.558   3.050  14.284  1.1899  1.2524  1.0186
 1189TIP3   OH225057   5.153   3.436   5.705 -0.1964  0.6102  0.0937
 1189TIP3    H125058   5.142   3.492   5.628  0.2750  0.0503 -0.3831
 1189TIP3    H225059   5.233   3.387   5.688 -0.0759  0.4967  0.9550
 1190TIP3   OH225060   3.963   2.293  15.579  0.0130 -0.0369  0.0702
 1190TIP3    H125061   3.874   2.328  15.572  0.2615  0.5930  0.0364
 1190TIP3    H225062   3.961   2.240  15.658  0.1820  1.7164  1.2763
 1191TIP3   OH225063   0.072   4.196   4.493  0.0895  0.2506 -0.4281
 1191TIP3    H125064   0.141   4.199   4.559 -0.8314 -0.6812  0.5968
 1191TIP3    H225065   0.099   4.125   4.435  0.3399  0.3442 -0.4292
 1192TIP3   OH225066   4.280   6.511   5.371 -0.0183  0.2284  0.5488
 1192TIP3    H125067   4.320   6.489   5.455 -0.0259 -1.0316  0.2223
 1192TIP3    H225068   4.347   6.493   5.306  0.1100  1.5469  0.3024
 1193TIP3   OH225069   5.120   5.316  17.218 -0.1600  0.2217  0.2321
 1193TIP3    H125070   5.165   5.365  17.149  0.4049  1.5136  1.4906
 1193TIP3    H225071   5.169   5.234  17.224 -1.3829 -0.7448 -2.1977
 1194TIP3   OH225072   3.798   4.244  11.886 -0.0626 -0.2785 -0.5399
 1194TIP3    H125073   3.833   4.159  11.859 -1.2590 -0.2890 -2.1025
 1194TIP3    H225074   3.703   4.233  11.883 -0.2766  0.0792  2.6272
 1195TIP3   OH225075   5.951   1.122   4.815  0.0624 -0.1868  0.3746
 1195TIP3    H125076   5.957   1.163   4.729  1.8323  2.2425  1.6049
 1195TIP3    H225077   5.868   1.154   4.851  0.2915  0.3912  0.3851
 1196TIP3   OH225078   1.777   0.960  16.019  0.3818 -0.1755 -0.2622
 1196TIP3    H125079   1.870   0.966  15.999  0.3996  0.9604  0.1269
 1196TIP3    H225080   1.743   0.897  15.955  1.4700 -0.8480 -0.1846
 1197TIP3   OH225081   6.210   3.062  10.471 -0.9636  0.2066 -0.9243
 1197TIP3    H125082   6.167   3.079  10.388  0.5624 -0.1917 -1.8325
 1197TIP3    H225083   6.265   3.139  10.486 -0.9052  0.0845 -0.5058
 1198TIP3   OH225084   3.365   2.878   5.205 -0.7820 -0.5129  0.2718
 1198TIP3    H125085   3.360   2.964   5.165 -0.1224 -1.6839 -2.4170
 1198TIP3    H225086   3.444   2.881   5.259 -0.8815  0.6306  0.3546
 1199TIP3   OH225087   5.713   0.343  13.837 -0.0745 -0.0220 -0.4315
 1199TIP3    H125088   5.668   0.400  13.900  0.6426 -2.0649  2.0058
 1199TIP3    H225089   5.803   0.376  13.836  0.1187 -0.5005  0.2940
 1200TIP3   OH225090   3.767   4.261  10.931  0.2531  0.3522 -0.2750
 1200TIP3    H125091   3.797   4.170  10.928 -0.8167  0.0008 -0.4507
 1200TIP3    H225092   3.675   4.257  10.904  0.0478  1.4175  0.2365
 1201TIP3   OH225093   2.268   4.330  13.674 -0.4336 -0.3155  0.0135
 1201TIP3    H125094   2.350   4.350  13.719 -0.8326  1.3632  0.0202
 1201TIP3    H225095   2.255   4.236  13.689  0.8477 -0.3439  1.0491
 1202TIP3   OH225096   2.187   2.286   5.761  0.1221  0.2056 -0.8506
 1202TIP3    H125097   2.126   2.352   5.728  1.1208  2.0508  0.8687
 1202TIP3    H225098   2.160   2.272   5.852  0.5921 -0.9719 -0.8828
 1203TIP3   OH225099   2.199   1.215  11.931 -0.3995 -0.0143  0.3188
 1203TIP3    H125100   2.261   1.218  12.004  0.4033  1.1148 -0.3904
 1203TIP3    H225101   2.218   1.132  11.887 -0.0678 -0.1388  0.6912
 1204TIP3   OH225102   3.420   0.888   0.243  0.1611 -0.0475 -0.9577
 1204TIP3    H125103   3.462   0.836   0.312 -1.2099  0.8981  0.6453
 1204TIP3    H225104   3.493   0.921   0.190  1.2156 -1.2117 -0.2683
 1205TIP3   OH225105   4.900   5.676  10.786 -0.1193  0.3802  0.2919
 1205TIP3    H125106   4.987   5.653  10.818 -0.0709  1.0434  0.6422
 1205TIP3    H225107   4.843   5.671  10.863 -0.7085 -1.5779 -0.2247
 1206TIP3   OH225108   4.835   1.236   5.245  0.3784 -0.4877 -0.3048
 1206TIP3    H125109   4.838   1.227   5.150  0.8623 -0.4805 -0.2930
 1206TIP3    H225110   4.885   1.316   5.263 -1.9853  1.0122 -0.2521
 1207TIP3   OH225111   4.842   0.857  11.968  0.1257  0.9489 -0.1138
 1207TIP3    H125112   4.856   0.811  12.050  0.3035  3.2008  1.1563
 1207TIP3    H225113   4.749   0.881  11.970 -0.2193 -0.2266 -1.2477
 1208TIP3   OH225114   1.826   0.272   6.238  0.1751  0.0979  0.2822
 1208TIP3    H125115   1.757   0.213   6.204 -0.0088 -0.6236  1.8535
 1208TIP3    H225116   1.778   0.336   6.291  0.7905 -1.0028  2.1973
 1209TIP3   OH225117   2.907   4.413  14.596 -0.1854  0.6874 -0.1947
 1209TIP3    H125118   2.888   4.506  14.607  0.2891  0.8697 -0.8947
 1209TIP3    H225119   2.924   4.382  14.685 -1.6718  0.9684  0.2024
 1210TIP3   OH225120   5.632   3.743   3.940  0.3317  0.9513  0.0420
 1210TIP3    H125121   5.601   3.778   3.857  1.0593 -0.9018 -1.0252
 1210TIP3    H225122   5.571   3.778   4.005 -0.1469  2.5412 -1.2249
 1211TIP3   OH225123   2.101   4.294  12.784  0.5485  0.2501 -0.7801
 1211TIP3    H125124   2.133   4.315  12.696 -2.1138  0.7171 -1.6817
 1211TIP3    H225125   2.139   4.361  12.840 -2.0429  3.2570 -2.4836
 1212TIP3   OH225126   3.472   0.969  17.175 -0.1376 -0.0373 -0.0126
 1212TIP3    H125127   3.390   0.951  17.130  0.1539  0.3568 -0.7120
 1212TIP3    H225128   3.445   1.007  17.259 -0.6690  0.5428 -0.4341
 1213TIP3   OH225129   1.601   5.950   5.468  0.5973 -0.9131 -0.1977
 1213TIP3    H125130   1.573   5.880   5.408  0.7261 -0.4131 -0.8376
 1213TIP3    H225131   1.546   5.938   5.545 -1.6135  0.2518 -1.5672
 1214TIP3   OH225132   4.922   4.786  14.063  0.0015 -0.1088 -0.2422
 1214TIP3    H125133   4.994   4.802  14.125  0.4652 -0.3467 -0.7146
 1214TIP3    H225134   4.862   4.859  14.078 -0.0639 -0.3492  0.7276
 1215TIP3   OH225135   4.872   6.588  11.379  0.6628  0.2191 -0.6302
 1215TIP3    H125136   4.864   6.493  11.392  0.6662  0.5515  2.0975
 1215TIP3    H225137   4.797   6.611  11.326  0.7655 -1.3343 -1.4991
 1216TIP3   OH225138   4.296   2.444  10.543 -0.0271  0.3510 -0.1885
 1216TIP3    H125139   4.312   2.352  10.565  2.7294  1.0505  0.9488
 1216TIP3    H225140   4.201   2.453  10.544 -0.2999 -2.2779  0.5817
 1217TIP3   OH225141   1.726   5.636  17.066  0.3552  0.7136 -0.1161
 1217TIP3    H125142   1.820   5.657  17.071  0.1648  1.5205  0.0816
 1217TIP3    H225143   1.719   5.552  17.110  1.2903 -0.3362 -1.8784
 1218TIP3   OH225144   0.864   3.293   3.973  0.2945  0.1293  0.1803
 1218TIP3    H125145   0.922   3.294   3.897 -2.0563 -1.1864 -1.6628
 1218TIP3    H225146   0.872   3.381   4.010  1.8211  0.6345 -1.2647
 1219TIP3   OH225147   1.417   3.117  14.055  0.1290 -0.3178  0.7871
 1219TIP3    H125148   1.361   3.039  14.049 -0.2873  0.1001 -1.2830
 1219TIP3    H225149   1.413   3.142  14.147 -2.2959 -0.8885  0.8848
 1220TIP3   OH225150   5.842   4.556   2.181  0.0037 -0.6024 -0.7150
 1220TIP3    H125151   5.837   4.629   2.120 -1.5912 -0.7470 -0.7685
 1220TIP3    H225152   5.884   4.593   2.259  1.0297 -0.1426 -1.4708
 1221TIP3   OH225153   4.998   0.943   6.232  0.2807  0.0441  0.8864
 1221TIP3    H125154   4.923   0.954   6.290  0.6193  1.2719  1.1073
 1221TIP3    H225155   4.976   0.994   6.154  0.7550  0.1707  0.8331
 1222TIP3   OH225156   1.717   5.064  13.332 -0.5229 -0.1891 -0.6012
 1222TIP3    H125157   1.784   5.128  13.356 -0.6604 -0.1034 -0.4472
 1222TIP3    H225158   1.636   5.115  13.327 -0.5879 -0.3044 -0.7294
 1223TIP3   OH225159   1.281   5.713  13.701 -0.4390 -0.4610  0.1862
 1223TIP3    H125160   1.350   5.701  13.636 -1.0823 -0.7071 -0.4546
 1223TIP3    H225161   1.260   5.806  13.696  0.3548 -0.2287  0.9127
 1224TIP3   OH225162   2.763   4.369   0.661  0.4228  0.0878 -0.1417
 1224TIP3    H125163   2.759   4.297   0.724 -2.2002 -0.1602 -0.5245
 1224TIP3    H225164   2.732   4.330   0.579 -1.1691  1.6758 -0.3135
 1225TIP3   OH225165   4.336   6.731  12.226  0.2930 -0.0081 -0.4852
 1225TIP3    H125166   4.374   6.748  12.140  0.7276 -0.6022 -0.4121
 1225TIP3    H225167   4.365   6.643  12.248 -1.0169 -0.4251 -0.3748
 1226TIP3   OH225168   3.466   5.787   2.459 -0.4043  0.3525 -0.0320
 1226TIP3    H125169   3.483   5.693   2.462  1.7301  0.6969 -0.7420
 1226TIP3    H225170   3.506   5.821   2.539  0.1344  0.8520 -0.5107
 1227TIP3   OH225171   2.552   3.231   4.662 -0.1332 -0.1159  0.5491
 1227TIP3    H125172   2.560   3.136   4.659  0.1160 -0.0923  0.4802
 1227TIP3    H225173   2.462   3.246   4.692 -0.8005 -0.3704 -1.2596
 1228TIP3   OH225174   2.322   3.316  14.909 -0.0049 -0.2719  0.1398
 1228TIP3    H125175   2.274   3.399  14.915  0.5630  0.2127 -1.7109
 1228TIP3    H225176   2.280   3.270  14.836  1.1462 -0.6144 -0.3126
 1229TIP3   OH225177   2.374   5.922   5.390  0.1182 -0.2902 -0.3780
 1229TIP3    H125178   2.384   6.009   5.430 -0.6539 -0.4361  0.1445
 1229TIP3    H225179   2.309   5.935   5.322  0.8306 -0.2228 -1.0503
 1230TIP3   OH225180   0.964   4.314   5.769  0.7082  0.3729  0.4781
 1230TIP3    H125181   0.932   4.225   5.751 -1.3485  0.9705  1.0568
 1230TIP3    H225182   0.971   4.318   5.865  4.1739 -0.2636  0.3344
 1231TIP3   OH225183   2.005   6.568  16.105  0.2219 -0.6929 -0.0567
 1231TIP3    H125184   1.934   6.632  16.098  0.3210 -0.4873  0.7720
 1231TIP3    H225185   2.083   6.620  16.120  0.5880 -0.9087 -1.1567
 1232TIP3   OH225186   2.593   3.662  12.304  0.5672  0.1817 -0.1587
 1232TIP3    H125187   2.668   3.662  12.244 -0.2618 -0.2773 -1.1968
 1232TIP3    H225188   2.522   3.623  12.254 -0.0282 -0.6133  1.2630
 1233TIP3   OH225189   2.590   2.240  11.890 -0.1402  0.5500 -0.0985
 1233TIP3    H125190   2.563   2.233  11.798 -0.0348 -0.2234 -0.0767
 1233TIP3    H225191   2.632   2.325  11.896 -1.2974  1.1592 -0.4702
 1234TIP3   OH225192   4.924   1.511   4.723 -0.1660  0.2025 -0.1468
 1234TIP3    H125193   4.887   1.493   4.637 -1.0315 -1.7033  0.6095
 1234TIP3    H225194   4.983   1.586   4.709 -1.1645  0.6234 -2.1481
 1235TIP3   OH225195   5.186   1.291   5.692 -0.0554 -0.1202 -0.1046
 1235TIP3    H125196   5.220   1.248   5.613 -0.9519 -0.2265 -0.4457
 1235TIP3    H225197   5.092   1.269   5.692 -0.3282  1.0122  0.2558
 1236TIP3   OH225198   6.315   4.402   5.692 -0.0205  0.2543 -0.3923
 1236TIP3    H125199   6.293   4.453   5.614  0.2181  1.8676  0.5919
 1236TIP3    H225200   6.304   4.463   5.765 -0.5853 -1.3402  0.8819
 1237TIP3   OH225201   0.264   5.802   1.344  0.5397 -0.1264 -0.2964
 1237TIP3    H125202   0.254   5.879   1.288 -0.3735  0.1532  0.2424
 1237TIP3    H225203   0.357   5.800   1.365  0.8236  0.0096 -1.4742
 1238TIP3   OH225204   0.228   1.376   6.592 -0.5641  0.4505  0.2981
 1238TIP3    H125205   0.237   1.417   6.505 -0.3482  0.3649  0.2779
 1238TIP3    H225206   0.237   1.282   6.575 -1.7791  0.3334  0.2507
 1239TIP3   OH225207   1.769   1.810   1.737  0.0243  0.1345 -0.0783
 1239TIP3    H125208   1.843   1.836   1.793 -0.6845  0.7534  0.5846
 1239TIP3    H225209   1.766   1.877   1.669  1.1273 -0.8305 -1.1001
 1240TIP3   OH225210   0.764   2.938   3.743 -0.1020  0.2341  0.1339
 1240TIP3    H125211   0.723   2.968   3.825  0.0041  0.9831 -0.0853
 1240TIP3    H225212   0.806   2.855   3.767  1.1162  1.1171  1.2072
 1241TIP3   OH225213   2.802   1.651   6.270  0.0568 -0.6015 -0.3338
 1241TIP3    H125214   2.840   1.637   6.183  1.9612 -0.3888  0.4366
 1241TIP3    H225215   2.727   1.592   6.274 -0.9595  0.4439 -2.6644
 1242TIP3   OH225216   0.706   3.654  15.539  0.0272 -0.1149  0.8181
 1242TIP3    H125217   0.785   3.673  15.489 -0.2634 -1.3054 -0.1212
 1242TIP3    H225218   0.640   3.633  15.473 -1.3834  1.8931  1.5398
 1243TIP3   OH225219   5.205   2.787   5.668  0.3495  0.4817  0.1587
 1243TIP3    H125220   5.273   2.844   5.703 -1.5131  1.9810  1.3902
 1243TIP3    H225221   5.165   2.837   5.597  1.0820 -0.7582 -1.1713
 1244TIP3   OH225222   5.276   0.434   2.712  0.2813 -0.5170  0.0260
 1244TIP3    H125223   5.304   0.468   2.797 -2.8745  0.6620  0.6798
 1244TIP3    H225224   5.267   0.512   2.658 -1.0132 -0.9126 -0.3424
 1245TIP3   OH225225   4.930   2.169  16.727 -0.2604 -0.0478  0.7368
 1245TIP3    H125226   4.934   2.222  16.806 -1.3453  0.8054  0.2309
 1245TIP3    H225227   4.853   2.114  16.739  1.9870 -2.9975  2.1538
 1246TIP3   OH225228   6.675   6.229   2.630 -0.1508 -0.1868  0.2472
 1246TIP3    H125229   6.740   6.300   2.627  0.2654 -0.6119 -1.8007
 1246TIP3    H225230   6.597   6.267   2.589 -0.7853 -0.0810  1.5469
 1247TIP3   OH225231   2.016   4.844   3.318 -0.1315  0.2993 -0.1530
 1247TIP3    H125232   2.104   4.844   3.356  0.0147 -0.9128 -0.4729
 1247TIP3    H225233   1.961   4.888   3.384  0.3834 -0.5014  0.8260
 1248TIP3   OH225234   6.067   0.187   4.854  0.5637 -0.1748 -0.6449
 1248TIP3    H125235   6.118   0.176   4.935 -0.3925  3.9280  0.6395
 1248TIP3    H225236   6.098   0.270   4.817 -2.0308  0.1625 -2.1971
 1249TIP3   OH225237   1.877   0.739   5.176 -0.3723  0.1711  0.0139
 1249TIP3    H125238   1.917   0.661   5.213  1.3334 -0.6230 -3.2759
 1249TIP3    H225239   1.914   0.811   5.227  0.5392 -0.9896  1.0186
 1250TIP3   OH225240   0.810   6.650  16.214 -0.0532 -0.2389 -0.4618
 1250TIP3    H125241   0.777   6.564  16.188 -0.4813 -0.1758 -0.1392
 1250TIP3    H225242   0.819   6.644  16.309 -1.6835  0.6141 -0.2403
 1251TIP3   OH225243   1.028   0.224   1.297  0.2306  0.2364 -0.0340
 1251TIP3    H125244   1.085   0.186   1.229  0.7473  0.7689  0.1042
 1251TIP3    H225245   1.087   0.251   1.366 -0.3327 -0.6257  0.7917
 1252TIP3   OH225246   5.480   1.050  16.226  0.2846 -0.4202  0.4281
 1252TIP3    H125247   5.547   0.987  16.199 -2.9983 -3.0198 -2.0024
 1252TIP3    H225248   5.413   0.997  16.270 -1.5238  1.6886  0.2903
 1253TIP3   OH225249   3.918   1.228  16.418  0.0608  0.4078 -0.7051
 1253TIP3    H125250   3.982   1.164  16.386  0.9345  1.2320 -0.6248
 1253TIP3    H225251   3.971   1.295  16.461 -0.9110  0.7323  0.0119
 1254TIP3   OH225252   1.778   0.317  15.740 -0.0510 -0.2245  0.2180
 1254TIP3    H125253   1.725   0.310  15.661  0.5257  0.9396 -0.2777
 1254TIP3    H225254   1.865   0.339  15.709  0.5232 -1.1917  1.0948
 1255TIP3   OH225255   2.872   2.667   0.680 -0.0478  0.1473 -0.2035
 1255TIP3    H125256   2.894   2.576   0.697 -0.2086  0.4462  1.6305
 1255TIP3    H225257   2.945   2.699   0.627 -0.1849 -1.1293 -1.2092
 1256TIP3   OH225258   5.767   6.682   6.640  0.0048 -0.6628  0.1189
 1256TIP3    H125259   5.722   6.613   6.688  0.0644 -1.1910 -0.5686
 1256TIP3    H225260   5.823   6.635   6.578  0.0445 -0.0010 -0.3510
 1257TIP3   OH225261   1.179   2.813  11.911 -0.3423  0.4805 -0.5457
 1257TIP3    H125262   1.230   2.733  11.899 -0.6418  0.0951  0.6284
 1257TIP3    H225263   1.196   2.864  11.833  0.3652 -0.4557 -1.0210
 1258TIP3   OH225264   2.615   1.966   4.531 -0.0361 -0.6795  0.0602
 1258TIP3    H125265   2.596   1.898   4.467 -0.6481 -0.4407 -0.0124
 1258TIP3    H225266   2.691   2.012   4.495 -0.4633 -0.4579 -0.5645
 1259TIP3   OH225267   4.965   6.099   3.455  0.6149 -0.7205  0.1322
 1259TIP3    H125268   5.036   6.087   3.392 -0.8305 -0.5438 -1.5238
 1259TIP3    H225269   4.946   6.011   3.487  1.2720 -0.8180  0.2732
 1260TIP3   OH225270   6.571   5.008  12.909 -0.3842  0.1367 -0.0340
 1260TIP3    H125271   6.591   5.055  12.828  3.2829 -2.0211 -0.5183
 1260TIP3    H225272   6.612   5.059  12.978  0.7439 -0.5672 -0.1673
 1261TIP3   OH225273   3.056   4.989  11.488  0.6160  0.1443  0.0573
 1261TIP3    H125274   3.041   4.925  11.558  2.1163  0.0396  0.3043
 1261TIP3    H225275   3.113   4.943  11.426  0.3725  0.6923 -0.5804
 1262TIP3   OH225276   0.327   0.194  14.816 -0.0838  0.0658  0.0709
 1262TIP3    H125277   0.353   0.125  14.878  0.2656 -1.1478 -1.3917
 1262TIP3    H225278   0.377   0.271  14.844 -1.4850  0.1213  2.5486
 1263TIP3   OH225279   0.641   3.658   1.025  0.2807 -0.0204 -0.0074
 1263TIP3    H125280   0.566   3.628   0.974 -0.3823 -0.2395  1.0849
 1263TIP3    H225281   0.679   3.728   0.972 -1.3042  0.7903 -0.0862
 1264TIP3   OH225282   1.624   4.983   4.956 -0.4635  0.5371 -0.3789
 1264TIP3    H125283   1.547   4.930   4.938  0.0073 -0.2096 -0.2428
 1264TIP3    H225284   1.630   4.986   5.052 -1.5181  2.3645 -0.3561
 1265TIP3   OH225285   4.653   3.690  11.220  0.0332 -0.3597  0.0542
 1265TIP3    H125286   4.657   3.679  11.315  0.1420  0.4807  0.1537
 1265TIP3    H225287   4.568   3.734  11.205 -0.1012 -0.7252 -0.2573
 1266TIP3   OH225288   2.159   4.035   2.276 -0.8636 -0.3198  0.7480
 1266TIP3    H125289   2.185   4.103   2.213 -1.0188  0.6359  1.6966
 1266TIP3    H225290   2.217   3.961   2.257  0.9252  0.9177  1.2447
 1267TIP3   OH225291   2.121   5.830  14.107  0.0599 -0.0346  0.8436
 1267TIP3    H125292   2.190   5.767  14.131  0.6298 -0.0730 -0.8315
 1267TIP3    H225293   2.165   5.894  14.051 -1.3989 -0.4635 -0.8629
 1268TIP3   OH225294   3.047   3.885  11.911  0.1257 -0.1943 -0.1726
 1268TIP3    H125295   3.017   3.831  11.838 -0.3166 -1.3009  0.8038
 1268TIP3    H225296   3.017   3.973  11.890 -3.4154 -1.1487  0.5080
 1269TIP3   OH225297   5.898   4.972   0.707 -0.2457 -1.1538  0.4014
 1269TIP3    H125298   5.896   4.876   0.716  2.6215 -1.4747 -1.8429
 1269TIP3    H225299   5.963   5.001   0.772 -0.0522 -0.8535  0.0712
 1270TIP3   OH225300   1.934   0.010   1.491 -0.0427  0.2001  0.4880
 1270TIP3    H125301   1.844  -0.013   1.469 -0.0811  0.0243  0.8194
 1270TIP3    H225302   1.962   0.068   1.421  0.7332 -2.4544 -1.4446
 1271TIP3   OH225303   1.535   4.446   0.547  0.4595  0.4058  0.3072
 1271TIP3    H125304   1.585   4.429   0.468  1.8323 -0.0249  1.2610
 1271TIP3    H225305   1.463   4.382   0.545  2.1226 -1.5310  0.8266
 1272TIP3   OH225306   4.996   1.490   2.451  0.6821 -0.2140  0.8912
 1272TIP3    H125307   4.999   1.467   2.544  0.2977 -1.9158  0.4946
 1272TIP3    H225308   4.936   1.427   2.412  0.9183  0.4249 -0.5476
 1273TIP3   OH225309   0.562   4.631  14.708 -0.1396 -0.0731 -0.5861
 1273TIP3    H125310   0.607   4.672  14.782 -1.0993 -1.3094  0.7254
 1273TIP3    H225311   0.611   4.660  14.631  1.2903  0.7159  0.5829
 1274TIP3   OH225312   6.567   0.647  14.466 -0.0373 -1.1501  0.0887
 1274TIP3    H125313   6.530   0.693  14.391  1.9096  1.9485  0.9377
 1274TIP3    H225314   6.518   0.681  14.541  0.7058 -1.2550  0.6267
 1275TIP3   OH225315   2.141   4.427  13.363 -0.1821 -0.1857  0.8916
 1275TIP3    H125316   2.209   4.359  13.364 -0.4351 -0.4559 -0.0455
 1275TIP3    H225317   2.123   4.444  13.456 -1.5747 -2.8666  1.1602
 1276TIP3   OH225318   3.138   1.271   3.079 -0.3129  0.1492 -0.0734
 1276TIP3    H125319   3.090   1.278   3.161 -0.5991 -0.3185 -0.2024
 1276TIP3    H225320   3.155   1.362   3.053  0.5672  0.2922  0.9608
 1277TIP3   OH225321   3.099   5.989   4.121 -0.3867  0.3597  0.2102
 1277TIP3    H125322   3.144   5.905   4.131 -0.2782  0.3875 -0.0241
 1277TIP3    H225323   3.049   6.000   4.202 -0.4847  0.0196  0.1958
 1278TIP3   OH225324   6.473   3.566   2.004 -0.3576  0.0259 -0.8245
 1278TIP3    H125325   6.552   3.601   1.962  0.6200  1.3361  2.0065
 1278TIP3    H225326   6.411   3.638   2.005  0.9003  1.1779  3.0813
 1279TIP3   OH225327   2.719   5.404  16.148 -0.2653  0.5347 -0.4257
 1279TIP3    H125328   2.779   5.348  16.099  0.4878  0.3808  0.6508
 1279TIP3    H225329   2.759   5.490  16.146 -0.0494  0.4469  0.2409
 1280TIP3   OH225330   0.119   5.007  10.935 -0.2777  0.7895  0.4611
 1280TIP3    H125331   0.160   5.075  10.881 -0.5742 -0.0581 -0.8345
 1280TIP3    H225332   0.161   4.926  10.908 -2.8213 -0.0965 -0.9136
 1281TIP3   OH225333   0.688   6.159  12.700 -0.0853  0.6080  0.2614
 1281TIP3    H125334   0.651   6.126  12.782  1.2294  0.1791  0.6911
 1281TIP3    H225335   0.625   6.133  12.633 -0.9924  0.6434  1.0896
 1282TIP3   OH225336   2.840   3.553   0.514 -0.7335  0.0568 -1.0519
 1282TIP3    H125337   2.919   3.551   0.567  0.0893 -0.3059 -2.2765
 1282TIP3    H225338   2.800   3.467   0.527 -2.3507  1.1609  1.6566
 1283TIP3   OH225339   3.996   2.992   3.708 -0.3547  0.0373  0.4388
 1283TIP3    H125340   3.945   2.912   3.698  1.2342 -0.6980 -2.5557
 1283TIP3    H225341   4.074   2.965   3.756 -0.6183  0.1771  0.9508
 1284TIP3   OH225342   3.588   5.109  15.225  0.1231  0.5136 -0.0598
 1284TIP3    H125343   3.635   5.041  15.274 -0.8127 -0.6910 -0.8219
 1284TIP3    H225344   3.579   5.074  15.137 -0.3027  1.6634 -0.4875
 1285TIP3   OH225345   2.731   0.241   3.699 -0.0373  0.1318  0.5193
 1285TIP3    H125346   2.788   0.171   3.664  1.2283  1.0384  0.7255
 1285TIP3    H225347   2.644   0.219   3.668  0.6636 -0.4959 -1.0394
 1286TIP3   OH225348   6.024   5.463   4.378 -0.0806  0.3664 -0.1313
 1286TIP3    H125349   6.003   5.535   4.318 -2.7645 -0.9573 -0.8794
 1286TIP3    H225350   6.011   5.384   4.325  1.2633 -0.7116  1.1239
 1287TIP3   OH225351   4.598   0.166  15.480  0.1475  0.4033 -0.4116
 1287TIP3    H125352   4.653   0.090  15.498  0.3434  1.1970  2.6520
 1287TIP3    H225353   4.621   0.192  15.391  1.9401 -1.5718 -0.5557
 1288TIP3   OH225354   6.553   3.596   5.179  0.2433 -0.3592 -0.0727
 1288TIP3    H125355   6.545   3.516   5.127  1.2678 -0.3855 -0.1859
 1288TIP3    H225356   6.494   3.658   5.136  0.4541 -0.6364 -0.7761
 1289TIP3   OH225357   5.547   4.805   0.651  0.1000 -0.4433 -0.2360
 1289TIP3    H125358   5.474   4.772   0.703  0.4487 -0.3061  0.3387
 1289TIP3    H225359   5.508   4.823   0.565 -0.4008 -0.9878 -0.1296
 1290TIP3   OH225360   3.881   6.780   1.661  0.0786 -0.4181  0.1433
 1290TIP3    H125361   3.913   6.822   1.741 -1.2056 -0.4355  0.6822
 1290TIP3    H225362   3.907   6.689   1.670  1.9253  0.0028 -0.5290
 1291TIP3   OH225363   5.079   4.303  14.496 -0.8363  0.2047  0.5208
 1291TIP3    H125364   5.057   4.356  14.419 -1.4745  0.4527  0.8731
 1291TIP3    H225365   4.999   4.255  14.516 -0.2885 -0.8166  0.2682
 1292TIP3   OH225366   2.215   2.660  14.045 -0.2743  0.0713 -0.4931
 1292TIP3    H125367   2.218   2.737  13.989  1.2373 -0.6600 -1.4538
 1292TIP3    H225368   2.180   2.591  13.989 -0.7546 -0.1629  0.0922
 1293TIP3   OH225369   0.924   2.294  11.995 -0.1298  0.3126 -0.2274
 1293TIP3    H125370   1.016   2.316  12.011 -0.0176 -0.1161 -0.2927
 1293TIP3    H225371   0.922   2.260  11.906 -0.6186  1.8788 -0.8353
 1294TIP3   OH225372   2.684   1.051  16.760  0.1266  0.4444  0.4386
 1294TIP3    H125373   2.772   1.017  16.746  0.2199  0.6623  0.4869
 1294TIP3    H225374   2.628   0.998  16.703 -0.1854 -1.8367  2.7914
 1295TIP3   OH225375   3.713   5.883   1.174 -0.2315 -0.2601 -0.2010
 1295TIP3    H125376   3.752   5.824   1.238  0.2026  0.2833  0.0436
 1295TIP3    H225377   3.659   5.827   1.118  0.0573 -0.8574  0.1230
 1296TIP3   OH225378   3.605   0.291   2.637 -0.1413  0.5053 -0.0677
 1296TIP3    H125379   3.636   0.251   2.719  0.4871  1.3432  0.1128
 1296TIP3    H225380   3.581   0.217   2.582  2.7287 -0.1895 -0.4243
 1297TIP3   OH225381   3.738   2.283   2.682  0.4771 -0.0149  0.3753
 1297TIP3    H125382   3.788   2.245   2.610  1.9083  1.7225  0.4223
 1297TIP3    H225383   3.755   2.224   2.756  0.0804 -1.0533 -0.3487
 1298TIP3   OH225384   2.341   0.876   3.158 -0.3901  0.1575 -0.3609
 1298TIP3    H125385   2.414   0.833   3.202 -1.9494 -1.9813  0.2766
 1298TIP3    H225386   2.378   0.912   3.078  2.0336  2.0880  1.5404
 1299TIP3   OH225387   5.702   5.399   3.566 -0.0963  0.2732 -0.6352
 1299TIP3    H125388   5.683   5.312   3.533  0.8430  0.0601 -0.6126
 1299TIP3    H225389   5.792   5.394   3.598 -1.3345  0.1177  3.0792
 1300TIP3   OH225390   5.530   5.991  13.369 -0.2684 -0.0967 -0.5599
 1300TIP3    H125391   5.484   5.923  13.319  1.0049 -0.6940 -0.9458
 1300TIP3    H225392   5.486   6.072  13.345 -0.7469 -0.5851 -1.3790
 1301TIP3   OH225393   3.117   1.373  15.807  0.3929 -0.0890 -0.0635
 1301TIP3    H125394   3.165   1.378  15.724  1.6634 -0.1432  0.6599
 1301TIP3    H225395   3.160   1.302  15.855  0.1787  0.4767  0.9625
 1302TIP3   OH225396   0.474   5.990   0.829 -0.1857 -0.5852 -0.1231
 1302TIP3    H125397   0.546   5.974   0.768  0.6126 -2.0653  1.1660
 1302TIP3    H225398   0.411   6.041   0.779  1.6768  0.5635 -1.3369
 1303TIP3   OH225399   3.336   1.334  16.585 -0.4608  0.2023 -0.0368
 1303TIP3    H125400   3.331   1.309  16.493 -1.0055 -0.8846  0.2843
 1303TIP3    H225401   3.364   1.254  16.631  0.3466  0.8789  0.6765
 1304TIP3   OH225402   6.663   1.357  11.526  0.3822 -0.3244 -0.0587
 1304TIP3    H125403   6.636   1.299  11.597  0.1102  0.5319  0.5448
 1304TIP3    H225404   6.755   1.376  11.544 -0.2742  1.7086  1.3623
 1305TIP3   OH225405   5.355   0.792   4.738  0.4039 -0.6650 -0.3438
 1305TIP3    H125406   5.266   0.765   4.715  0.1831  1.1501 -1.7785
 1305TIP3    H225407   5.408   0.767   4.662  0.7634 -0.0958 -0.2860
 1306TIP3   OH225408   3.648   2.552   3.461 -0.1078  0.2288  0.3200
 1306TIP3    H125409   3.650   2.537   3.556 -2.0499 -0.0482  0.3382
 1306TIP3    H225410   3.578   2.494   3.429 -1.3697  2.3719 -0.8892
 1307TIP3   OH225411   6.437   4.471  10.851 -0.3371  0.2924  0.1734
 1307TIP3    H125412   6.456   4.398  10.909 -0.7686 -0.1389 -0.2266
 1307TIP3    H225413   6.346   4.459  10.826 -0.1718  0.5135 -0.5463
 1308TIP3   OH225414   1.732   0.651   2.608  0.4625  0.4508 -0.3082
 1308TIP3    H125415   1.825   0.634   2.623  0.4528  0.4098 -0.2960
 1308TIP3    H225416   1.690   0.565   2.613  0.3960  0.4933 -0.1122
 1309TIP3   OH225417   0.873   1.835  12.232 -0.5367  0.2620 -0.2833
 1309TIP3    H125418   0.818   1.814  12.308 -0.4155 -2.1301 -0.8379
 1309TIP3    H225419   0.889   1.751  12.190 -0.5783  1.5569 -2.9611
 1310TIP3   OH225420   0.024   5.603   3.825  0.3745  0.4938 -0.0537
 1310TIP3    H125421  -0.028   5.547   3.882  1.9090  1.0257  1.9027
 1310TIP3    H225422  -0.001   5.692   3.849 -0.2629  0.7202 -1.4669
 1311TIP3   OH225423   2.364   4.544   2.758 -0.5789 -0.3757  0.1941
 1311TIP3    H125424   2.270   4.541   2.774 -0.8321 -1.6483 -1.4236
 1311TIP3    H225425   2.373   4.589   2.674  0.3520  0.7788  0.8875
 1312TIP3   OH225426   0.148   3.162   4.752  0.4852 -0.6338  0.2262
 1312TIP3    H125427   0.165   3.238   4.809 -1.2508 -0.3166  0.3393
 1312TIP3    H225428   0.188   3.088   4.798  1.6658  0.1055  0.4092
 1313TIP3   OH225429   6.013   3.312   4.434 -0.3604 -0.2827  0.0623
 1313TIP3    H125430   5.978   3.313   4.345  0.5060 -0.7911 -0.2858
 1313TIP3    H225431   6.078   3.242   4.434  0.4384  0.4350  0.7883
 1314TIP3   OH225432   1.582   1.918   1.926  0.1415  0.1461 -0.0622
 1314TIP3    H125433   1.641   1.868   1.870 -0.6216  0.4489 -1.1461
 1314TIP3    H225434   1.615   1.903   2.015  0.4931 -1.5003 -0.4556
 1315TIP3   OH225435   5.892   6.321   1.013  0.4164  0.2629 -0.4469
 1315TIP3    H125436   5.975   6.352   0.975  1.4313  0.1661  1.6193
 1315TIP3    H225437   5.915   6.236   1.052 -0.1436  1.1805  1.9525
 1316TIP3   OH225438   0.173   0.423   4.758  0.4170  0.5322 -0.0538
 1316TIP3    H125439   0.174   0.415   4.853 -0.7415 -0.2121 -0.0872
 1316TIP3    H225440   0.086   0.456   4.738  0.0042 -1.0307 -0.9620
 1317TIP3   OH225441   5.718   2.400  16.053  0.2685  0.2698  0.7159
 1317TIP3    H125442   5.699   2.308  16.074 -0.5639  0.5735  1.3218
 1317TIP3    H225443   5.635   2.446  16.068  0.0465  0.7609 -1.8351
 1318TIP3   OH225444   2.729   2.158   5.711 -0.8000  0.9783  0.8083
 1318TIP3    H125445   2.688   2.148   5.625 -1.1049  1.6219  0.8791
 1318TIP3    H225446   2.774   2.242   5.707  1.2225 -0.0764  0.4512
 1319TIP3   OH225447   5.640   0.760  15.890 -0.0611 -0.7733  0.4101
 1319TIP3    H125448   5.730   0.781  15.866  0.5899 -3.3658  0.4089
 1319TIP3    H225449   5.597   0.844  15.898  2.3794  0.5103  0.4476
 1320TIP3   OH225450   6.050   4.483  12.758  0.4684  0.0025 -0.1042
 1320TIP3    H125451   6.061   4.457  12.849  1.3746  0.6633 -0.0210
 1320TIP3    H225452   6.038   4.400  12.711  1.4525 -0.4421  0.4105
 1321TIP3   OH225453   1.610   2.209   0.283  0.0174 -0.0200  1.2308
 1321TIP3    H125454   1.630   2.179   0.194 -2.3378 -0.6923  0.8991
 1321TIP3    H225455   1.562   2.136   0.323 -1.6584  1.4642  2.0064
 1322TIP3   OH225456   1.413   0.830   0.452 -0.6669 -0.1628 -0.1885
 1322TIP3    H125457   1.348   0.764   0.428 -0.7130  0.0491 -0.6568
 1322TIP3    H225458   1.369   0.884   0.518 -0.7480 -0.3956 -0.0515
 1323TIP3   OH225459   1.969   2.411  16.892  0.1710 -0.0029  0.7878
 1323TIP3    H125460   1.908   2.485  16.891  0.9900  0.6795  0.4689
 1323TIP3    H225461   1.928   2.345  16.836 -0.3571  0.3724  0.7270
 1324TIP3   OH225462   5.779   3.923   3.511  0.0595  0.7263  0.5935
 1324TIP3    H125463   5.776   3.992   3.445 -1.1066  0.0710 -0.0508
 1324TIP3    H225464   5.814   3.847   3.465 -0.4413  0.3601  0.8130
 1325TIP3   OH225465   4.980   6.795  13.626 -0.4703  0.6198  0.1613
 1325TIP3    H125466   4.989   6.772  13.533  0.7991  1.2904  0.1056
 1325TIP3    H225467   5.028   6.725  13.672 -1.5762 -0.0250  0.3600
 1326TIP3   OH225468   5.486   0.835  11.188 -0.3150 -0.2895  0.1094
 1326TIP3    H125469   5.540   0.779  11.243  0.2758  0.9196  0.7911
 1326TIP3    H225470   5.407   0.783  11.171  0.9701 -1.9727 -0.7311
 1327TIP3   OH225471   2.076   3.430   2.248 -0.2577 -0.1774  0.1627
 1327TIP3    H125472   2.086   3.356   2.188 -0.8770 -0.8038  0.8100
 1327TIP3    H225473   2.112   3.505   2.201 -0.3697 -0.7376 -0.8295
 1328TIP3   OH225474   3.439   0.101   5.259 -0.4869  0.1857 -0.2695
 1328TIP3    H125475   3.525   0.095   5.301  0.3390  2.7310 -1.5110
 1328TIP3    H225476   3.449   0.052   5.177 -1.3120 -2.5012  1.1653
 1329TIP3   OH225477   4.100   1.734   5.219  0.1263  0.4225 -0.3692
 1329TIP3    H125478   4.179   1.682   5.206 -0.0796 -0.0453  0.2178
 1329TIP3    H225479   4.061   1.698   5.298  0.7794  2.4698  0.9303
 1330TIP3   OH225480   6.148   0.431   4.199  0.5798  0.3918 -0.5097
 1330TIP3    H125481   6.186   0.377   4.129  0.6224 -2.6485  1.7610
 1330TIP3    H225482   6.224   0.468   4.243  0.6749 -0.3739 -0.0282
 1331TIP3   OH225483   4.283   5.573  11.618  0.0004  0.4807 -0.1380
 1331TIP3    H125484   4.343   5.534  11.554  0.4194  0.3520  0.3306
 1331TIP3    H225485   4.211   5.510  11.623  1.5235 -1.1735  1.9524
 1332TIP3   OH225486   5.240   0.947  14.597 -0.6782  0.4796  0.1049
 1332TIP3    H125487   5.226   0.859  14.563  0.9462 -0.0157  0.6766
 1332TIP3    H225488   5.178   0.955  14.670  0.2781 -0.8064  1.0928
 1333TIP3   OH225489   0.479   5.730  12.990 -0.2122 -0.3163  0.3830
 1333TIP3    H125490   0.558   5.716  12.937  0.2525 -0.6404  1.1634
 1333TIP3    H225491   0.474   5.653  13.047 -1.3018 -0.4833  0.0768
 1334TIP3   OH225492   4.154   2.350   5.672 -0.0321 -0.1364 -0.7145
 1334TIP3    H125493   4.096   2.418   5.639  0.2656 -0.6392 -2.2955
 1334TIP3    H225494   4.201   2.318   5.595  0.6777 -1.3183  0.1869
 1335TIP3   OH225495   0.266   2.594  12.914 -0.3920 -0.2118  0.4544
 1335TIP3    H125496   0.324   2.538  12.966  0.3599 -1.7273 -1.9121
 1335TIP3    H225497   0.324   2.655  12.869 -0.8683  0.0425  0.1729
 1336TIP3   OH225498   5.417   3.063   1.961 -0.3365 -0.3261  0.5478
 1336TIP3    H125499   5.357   3.136   1.945  1.6755  1.6394  1.8231
 1336TIP3    H225500   5.373   3.011   2.029 -1.7987 -0.3641 -0.4036
 1337TIP3   OH225501   1.682   6.536  16.675  0.2683  0.5012 -0.0423
 1337TIP3    H125502   1.672   6.564  16.584 -1.7032 -0.1145 -0.0343
 1337TIP3    H225503   1.763   6.485  16.676  0.1214  0.2244 -1.5373
 1338TIP3   OH225504   2.576   2.148  14.200 -0.6751  0.3699  0.2368
 1338TIP3    H125505   2.633   2.224  14.216  0.3706 -0.6284  1.3284
 1338TIP3    H225506   2.569   2.144  14.104  1.4680  0.2433  0.0638
 1339TIP3   OH225507   4.092   3.729  12.192  0.8688  0.5156 -0.0277
 1339TIP3    H125508   4.005   3.755  12.223  1.0502  2.7629 -1.2686
 1339TIP3    H225509   4.153   3.770  12.254  1.0860  0.7706 -0.4030
 1340TIP3   OH225510   4.671   1.133  13.360  0.2622  0.3598  0.3784
 1340TIP3    H125511   4.647   1.062  13.419 -0.4257 -0.0860 -0.4311
 1340TIP3    H225512   4.647   1.213  13.408 -2.9574 -0.0751 -0.4310
 1341TIP3   OH225513   2.186   5.243   2.520 -0.1001 -0.3390  0.1528
 1341TIP3    H125514   2.098   5.233   2.555  0.2590 -0.2420  1.1063
 1341TIP3    H225515   2.181   5.209   2.431 -0.8061 -1.4769  0.6239
 1342TIP3   OH225516   6.489   0.530   6.502 -0.2734  0.3954  0.6313
 1342TIP3    H125517   6.500   0.614   6.546 -2.8149  0.4558  1.2153
 1342TIP3    H225518   6.432   0.480   6.560 -0.4591 -0.9864 -0.7163
 1343TIP3   OH225519   3.900   5.279   3.563  0.3501 -0.4981  0.1084
 1343TIP3    H125520   3.990   5.303   3.583  0.2488 -1.5269  1.8955
 1343TIP3    H225521   3.885   5.197   3.610 -0.7950 -1.5910 -2.0530
 1344TIP3   OH225522   4.476   3.345   5.102  0.4019  0.0759  0.4676
 1344TIP3    H125523   4.521   3.285   5.161  0.0943  0.0651  0.6930
 1344TIP3    H225524   4.410   3.291   5.058  1.6107 -0.2534 -0.9849
 1345TIP3   OH225525   1.042   4.250   5.484  0.4504 -0.1559 -0.0751
 1345TIP3    H125526   1.040   4.158   5.457  0.0236  0.4231 -2.0711
 1345TIP3    H225527   0.954   4.267   5.518  0.0162 -0.0608 -1.2180
 1346TIP3   OH225528   0.459   1.136  16.423  0.1055 -0.5272 -0.0353
 1346TIP3    H125529   0.371   1.164  16.397 -0.3290 -1.0694  0.8265
 1346TIP3    H225530   0.484   1.198  16.492  0.1246 -0.7672  0.1788
 1347TIP3   OH225531   4.819   1.694  14.170  0.0716 -0.2011  0.3047
 1347TIP3    H125532   4.729   1.727  14.178  0.0052  0.0460 -1.2802
 1347TIP3    H225533   4.874   1.765  14.203 -0.1895  0.6167 -1.0119
 1348TIP3   OH225534   4.114   5.964  11.610 -0.2418  0.1949 -0.2216
 1348TIP3    H125535   4.131   6.045  11.562  0.7093 -0.0974 -0.3955
 1348TIP3    H225536   4.103   5.898  11.541 -0.5775  0.0955 -0.0729
 1349TIP3   OH225537   2.875   2.889   0.342 -0.3709 -0.0730  0.3339
 1349TIP3    H125538   2.821   2.842   0.279 -0.7027 -0.7479  1.1132
 1349TIP3    H225539   2.959   2.844   0.341  0.6337  1.7318 -1.7906
 1350TIP3   OH225540   5.229   2.229  12.918  0.1359 -0.3184 -0.1686
 1350TIP3    H125541   5.139   2.195  12.921 -0.2427  0.5383 -1.5278
 1350TIP3    H225542   5.252   2.226  12.825  1.1945  0.3063  0.0741
 1351TIP3   OH225543   1.583   6.798   4.734 -0.7857  0.1823  0.0329
 1351TIP3    H125544   1.641   6.873   4.718  0.6351 -1.2139 -1.6059
 1351TIP3    H225545   1.496   6.829   4.709  0.3166  0.2510 -4.0681
 1352TIP3   OH225546   0.477   6.738  16.244  0.6370 -0.2522 -0.0685
 1352TIP3    H125547   0.509   6.671  16.304  0.2333 -0.1747  0.2351
 1352TIP3    H225548   0.447   6.809  16.301  0.6212 -0.0122 -0.3746
 1353TIP3   OH225549   6.258   3.193   3.017  0.4016  0.3767 -0.0332
 1353TIP3    H125550   6.350   3.218   3.004  0.1514  1.3618  0.1199
 1353TIP3    H225551   6.231   3.240   3.095 -0.2777  0.1678 -0.1427
 1354TIP3   OH225552   2.246   3.617   2.472 -0.0181 -0.0115  0.3444
 1354TIP3    H125553   2.159   3.586   2.499  0.6883 -1.0111  1.5355
 1354TIP3    H225554   2.284   3.543   2.425  0.5558  0.0737  0.6724
 1355TIP3   OH225555   2.416   2.173   1.265  0.7229 -0.3721 -0.1592
 1355TIP3    H125556   2.412   2.269   1.266 -0.2825 -0.3871 -1.5280
 1355TIP3    H225557   2.354   2.147   1.196  0.8154 -2.0138  0.3620
 1356TIP3   OH225558   1.249   2.267  14.164  0.1243 -0.2240  0.0723
 1356TIP3    H125559   1.208   2.183  14.184 -2.4099  1.0620  0.5537
 1356TIP3    H225560   1.308   2.282  14.238 -0.6629 -0.8308  0.8462
 1357TIP3   OH225561   0.928   5.528   5.649 -0.0675 -0.7171  0.7163
 1357TIP3    H125562   0.988   5.510   5.576  0.0642 -2.3488  1.2088
 1357TIP3    H225563   0.980   5.511   5.727 -0.4502  0.2637  1.1987
 1358TIP3   OH225564   0.552   6.414   4.620  0.2720  0.4561  0.1915
 1358TIP3    H125565   0.588   6.502   4.629  1.2464  0.1765 -0.9301
 1358TIP3    H225566   0.509   6.414   4.535  1.0861 -0.4426 -0.2233
 1359TIP3   OH225567   0.398   5.762  16.017 -0.0470  0.7054 -0.6254
 1359TIP3    H125568   0.436   5.837  15.971 -1.9390  2.7269  0.9798
 1359TIP3    H225569   0.309   5.756  15.985 -0.1551 -0.3625 -0.1533
 1360TIP3   OH225570   4.977   1.067  17.160  0.1953 -0.3876  0.2614
 1360TIP3    H125571   5.063   1.035  17.133  0.6464 -2.2129  3.6104
 1360TIP3    H225572   4.996   1.140  17.219 -0.6250  0.2358 -0.2314
 1361TIP3   OH225573   6.367   2.863   4.282  0.4562 -0.0895  0.3636
 1361TIP3    H125574   6.456   2.831   4.297 -0.1025 -1.9811 -0.1120
 1361TIP3    H225575   6.314   2.815   4.345 -0.6002 -1.1137 -1.2602
 1362TIP3   OH225576   3.157   2.438  16.583  0.1180 -0.1331 -0.1736
 1362TIP3    H125577   3.175   2.345  16.595  0.0972  0.0748  1.5969
 1362TIP3    H225578   3.065   2.448  16.608  0.2016  0.4037 -0.0730
 1363TIP3   OH225579   2.201   6.376  14.864 -0.1031  0.0794  0.2399
 1363TIP3    H125580   2.164   6.333  14.942  2.1339 -2.6498 -0.1090
 1363TIP3    H225581   2.153   6.337  14.791 -0.3746  0.6901  0.0901
 1364TIP3   OH225582   2.654   2.206   3.921  0.0134  0.2398 -0.8515
 1364TIP3    H125583   2.683   2.218   3.831 -2.4742  1.1790 -1.5692
 1364TIP3    H225584   2.607   2.122   3.919  0.6800 -0.1603 -0.2079
 1365TIP3   OH225585   1.810   6.372   1.891  0.1942  0.1536  0.6298
 1365TIP3    H125586   1.846   6.284   1.895  0.5847  0.2582 -0.4627
 1365TIP3    H225587   1.795   6.388   1.798 -0.5190  0.9826  0.8741
 1366TIP3   OH225588   5.115   2.189   2.958  0.2665  0.1810 -0.4651
 1366TIP3    H125589   5.180   2.241   2.911  1.2611 -0.4610  0.1779
 1366TIP3    H225590   5.064   2.253   3.008  2.0965  0.4769  1.0707
 1367TIP3   OH225591   4.042   6.046   4.441  0.0953 -0.0442  0.4560
 1367TIP3    H125592   4.081   6.045   4.529 -0.2136  0.0418  0.5917
 1367TIP3    H225593   4.053   5.956   4.409 -1.2488 -0.4971  1.2173
 1368TIP3   OH225594   3.782   2.384  16.973  0.4170 -0.1014  0.2762
 1368TIP3    H125595   3.801   2.296  17.006  0.8318 -0.1085  0.0278
 1368TIP3    H225596   3.853   2.439  17.008 -2.1042  1.0167  3.9920
 1369TIP3   OH225597   3.250   1.378  15.576  0.0763  0.2256  0.2035
 1369TIP3    H125598   3.312   1.324  15.527  0.9890  0.8170  0.6915
 1369TIP3    H225599   3.167   1.367  15.530  0.6399 -0.2307 -0.7239
 1370TIP3   OH225600   0.238   3.242  12.594  0.1184  0.2304 -0.0059
 1370TIP3    H125601   0.226   3.318  12.651  0.5702  1.8797 -2.0495
 1370TIP3    H225602   0.151   3.226  12.558 -0.0769 -0.5369  0.7991
 1371TIP3   OH225603   4.344   6.509   4.810 -0.1890 -0.1420 -0.2530
 1371TIP3    H125604   4.265   6.564   4.812 -0.2855 -0.3014  0.7231
 1371TIP3    H225605   4.340   6.459   4.891  2.0252  1.4281  0.8856
 1372TIP3   OH225606   1.463   6.085  14.522 -0.2264 -0.3577 -0.1258
 1372TIP3    H125607   1.380   6.036  14.527  0.2585 -1.0382  1.3838
 1372TIP3    H225608   1.439   6.175  14.545 -0.4697 -0.6441  0.7489
 1373TIP3   OH225609   4.212   1.823   3.734  0.1415  0.1157  0.3097
 1373TIP3    H125610   4.125   1.808   3.697 -0.3669  2.2933  0.5793
 1373TIP3    H225611   4.267   1.842   3.658 -0.1264  1.0308  0.3409
 1374TIP3   OH225612   1.972   0.335  15.506 -0.1707 -0.2822 -0.2892
 1374TIP3    H125613   2.023   0.335  15.426 -0.5882 -1.8890 -0.5921
 1374TIP3    H225614   1.931   0.421  15.510 -0.2561 -0.2434 -1.8848
 1375TIP3   OH225615   0.074   0.324   4.533 -0.3026  0.5357  0.0884
 1375TIP3    H125616   0.139   0.337   4.601 -0.3690  0.4916  0.1596
 1375TIP3    H225617   0.108   0.252   4.480 -0.6233  0.0595  0.5268
 1376TIP3   OH225618   5.201   0.095   4.094  0.8205 -0.3527 -0.3807
 1376TIP3    H125619   5.190   0.079   4.187 -1.2479  0.2620 -0.5058
 1376TIP3    H225620   5.183   0.011   4.052  0.0623 -0.2099 -0.3417
 1377TIP3   OH225621   5.668   2.143  16.164  0.4033 -0.1116 -0.3195
 1377TIP3    H125622   5.709   2.073  16.216  0.6697 -0.1104 -0.5285
 1377TIP3    H225623   5.574   2.128  16.173  0.4514 -0.1336  0.1312
 1378TIP3   OH225624   5.501   2.769  11.753  0.0738 -0.1324  0.9014
 1378TIP3    H125625   5.516   2.675  11.761 -0.3962 -0.1262  1.9033
 1378TIP3    H225626   5.584   2.803  11.719  0.8204 -0.6892  2.1270
 1379TIP3   OH225627   5.126   6.508  16.636 -0.1088 -0.1892 -0.5400
 1379TIP3    H125628   5.140   6.602  16.648  0.4197 -0.2157 -0.9362
 1379TIP3    H225629   5.127   6.496  16.541  1.9384 -0.9081 -0.4554
 1380TIP3   OH225630   6.338   5.486  11.180 -0.2678 -0.7743  0.3136
 1380TIP3    H125631   6.286   5.497  11.101  1.2853 -2.8816 -1.0569
 1380TIP3    H225632   6.375   5.572  11.198 -3.3665  0.5229  0.7474
 1381TIP3   OH225633   2.100   2.544   0.373  0.4244  0.3415  0.4610
 1381TIP3    H125634   2.058   2.523   0.456  1.0370  1.7614  1.1460
 1381TIP3    H225635   2.103   2.640   0.371 -0.3982  0.3530 -1.6192
 1382TIP3   OH225636   5.011   3.161   5.407 -0.0830  0.1010  0.1585
 1382TIP3    H125637   4.981   3.245   5.372  0.9731  0.5109  0.1977
 1382TIP3    H225638   5.053   3.118   5.332  1.1057  0.4551  0.6164
 1383TIP3   OH225639   5.181   0.255   4.826  0.1932 -0.5922  0.0504
 1383TIP3    H125640   5.261   0.229   4.871 -0.9753 -0.9286  2.0047
 1383TIP3    H225641   5.154   0.176   4.778  1.6939 -0.0937 -1.6772
 1384TIP3   OH225642   4.062   6.725   1.390 -0.2608 -0.0656 -0.0745
 1384TIP3    H125643   4.142   6.748   1.438 -0.7726 -0.5986  1.0500
 1384TIP3    H225644   4.090   6.661   1.325  0.4207  0.5827 -0.4315
 1385TIP3   OH225645   0.441   0.327  16.654  0.3708 -0.3453  0.1877
 1385TIP3    H125646   0.419   0.237  16.679 -1.9410  0.0869 -0.1881
 1385TIP3    H225647   0.470   0.368  16.736 -1.5351 -0.5841  1.0058
 1386TIP3   OH225648   2.353   2.145  17.266 -0.1386 -0.2385  0.2508
 1386TIP3    H125649   2.279   2.171  17.321 -0.3825 -3.0320  1.3120
 1386TIP3    H225650   2.330   2.058  17.234  2.9502 -1.4633  1.1667
 1387TIP3   OH225651   2.948   5.435  12.199  0.3535 -0.1278  0.2291
 1387TIP3    H125652   2.916   5.473  12.281  2.6780 -0.1471  1.1791
 1387TIP3    H225653   3.039   5.462  12.194  0.5336 -1.0346 -1.8289
 1388TIP3   OH225654   0.585   5.553  13.659 -0.4952 -0.1052 -0.3830
 1388TIP3    H125655   0.611   5.638  13.696 -1.0389 -1.7045  3.9612
 1388TIP3    H225656   0.658   5.529  13.602  1.3641  1.6919  1.1329
 1389TIP3   OH225657   2.273   6.521   0.565 -0.2899 -0.6003  0.5626
 1389TIP3    H125658   2.205   6.588   0.559  1.3912  1.0525 -0.7364
 1389TIP3    H225659   2.338   6.557   0.625  0.9103 -0.7757 -0.5858
 1390TIP3   OH225660   1.359   3.485  12.529  0.2365  0.1317  0.7906
 1390TIP3    H125661   1.395   3.397  12.539  0.0507 -0.1491 -0.8817
 1390TIP3    H225662   1.298   3.478  12.455 -0.3435  1.4957  1.1141
 1391TIP3   OH225663   5.600   3.730  13.852  0.3025  0.3551  0.0193
 1391TIP3    H125664   5.558   3.644  13.850  1.2686 -0.1736  1.5100
 1391TIP3    H225665   5.622   3.748  13.761 -1.1716 -0.3372 -0.4908
 1392TIP3   OH225666   4.440   1.951   4.586 -0.2113 -0.2489  0.0609
 1392TIP3    H125667   4.441   1.861   4.619 -1.4288  0.1143  1.1068
 1392TIP3    H225668   4.415   1.942   4.494  0.3771 -1.0334 -0.0283
 1393TIP3   OH225669   4.309   5.231  14.127 -0.0087  0.2376 -0.7725
 1393TIP3    H125670   4.363   5.305  14.099  1.2781 -0.4747 -0.2484
 1393TIP3    H225671   4.318   5.229  14.222 -1.4411  0.4591 -0.6297
 1394TIP3   OH225672   3.670   4.091  12.999  0.4509  0.0742 -0.3168
 1394TIP3    H125673   3.648   4.006  12.961 -0.2938  0.0902  0.0635
 1394TIP3    H225674   3.731   4.130  12.936 -0.2048 -0.2041 -1.1397
 1395TIP3   OH225675   5.012   5.883  17.222  0.0924 -0.2239 -0.0507
 1395TIP3    H125676   4.940   5.881  17.285  0.8478 -1.9874  0.7972
 1395TIP3    H225677   5.002   5.803  17.172  0.1351  0.6456 -1.4624
 1396TIP3   OH225678   2.118   0.455  15.830 -0.1372 -0.2046  0.1186
 1396TIP3    H125679   2.127   0.360  15.835  0.9890 -0.0883  0.3690
 1396TIP3    H225680   2.160   0.488  15.910  1.2621  0.6009 -0.9202
 1397TIP3   OH225681   5.404   5.140  13.645  0.0883 -0.6828  0.3644
 1397TIP3    H125682   5.415   5.076  13.715  0.4945  0.8221  1.6916
 1397TIP3    H225683   5.320   5.183  13.664  0.9928  0.9001  0.9248
 1398TIP3   OH225684   3.345   4.735   0.542 -0.0751  0.2231 -0.2651
 1398TIP3    H125685   3.363   4.827   0.522  2.7926 -0.4116 -0.8803
 1398TIP3    H225686   3.328   4.695   0.457  2.4452 -0.5348 -0.4498
 1399TIP3   OH225687   1.436   4.971  15.115 -0.2272  0.1860 -0.3670
 1399TIP3    H125688   1.468   5.036  15.053  0.5919  0.2486  0.1109
 1399TIP3    H225689   1.402   4.900  15.060  0.2632  0.3505 -0.8904
 1400TIP3   OH225690   2.626   2.669   1.837 -0.2691  0.6112 -0.0324
 1400TIP3    H125691   2.667   2.612   1.772  0.7602  0.4860  0.7028
 1400TIP3    H225692   2.569   2.611   1.887 -1.6929  0.8677 -1.3307
 1401TIP3   OH225693   6.561   3.889  12.758  0.1339  0.2077  0.0330
 1401TIP3    H125694   6.626   3.949  12.722  1.0343 -1.4439 -1.1488
 1401TIP3    H225695   6.587   3.803  12.725 -0.0068 -1.1305  3.2673
 1402TIP3   OH225696   4.234   5.624  14.147  0.5046 -0.9253 -0.1065
 1402TIP3    H125697   4.245   5.655  14.237 -0.2285 -0.9644  0.0019
 1402TIP3    H225698   4.257   5.700  14.093 -0.6294 -0.3794  0.1472
 1403TIP3   OH225699   2.372   6.528  16.506  0.0892 -0.3952  0.0070
 1403TIP3    H125700   2.327   6.464  16.451 -0.0286 -0.1810 -0.1474
 1403TIP3    H225701   2.440   6.479  16.550 -0.6282 -0.8393  0.6404
 1404TIP3   OH225702   0.522   5.675  16.906  0.0957  0.0007 -0.0974
 1404TIP3    H125703   0.541   5.594  16.860 -0.3461  0.7622 -1.6601
 1404TIP3    H225704   0.603   5.698  16.951  0.5704 -0.6761 -0.6143
 1405TIP3   OH225705   0.289   1.322   0.923 -0.0477 -0.1875 -0.2325
 1405TIP3    H125706   0.365   1.280   0.884 -0.9050 -0.8717 -1.2046
 1405TIP3    H225707   0.270   1.397   0.866 -0.0950 -0.0025  0.0202
 1406TIP3   OH225708   5.320   6.360  11.106  0.1983 -0.1256  0.1921
 1406TIP3    H125709   5.358   6.320  11.028 -1.5918  0.3903 -0.9585
 1406TIP3    H225710   5.384   6.426  11.132  1.2814 -0.9819 -0.2300
 1407TIP3   OH225711   6.629   4.492  15.873  0.4015 -0.1987 -0.5110
 1407TIP3    H125712   6.579   4.496  15.954 -0.0707  1.3467 -0.8635
 1407TIP3    H225713   6.711   4.538  15.892  0.6198 -0.5120 -0.6833
 1408TIP3   OH225714   5.751   3.152   6.221 -1.0276  0.3898  0.3889
 1408TIP3    H125715   5.829   3.111   6.258 -1.4149  0.8339  1.7661
 1408TIP3    H225716   5.776   3.244   6.208 -0.5576  0.0027 -1.4861
 1409TIP3   OH225717   0.512   0.257  17.053  0.1333 -0.6264  0.5055
 1409TIP3    H125718   0.577   0.327  17.057  1.3662 -1.7559  0.5690
 1409TIP3    H225719   0.513   0.218  17.140 -1.5333  0.1319  0.8823
 1410TIP3   OH225720   1.713   0.715  12.144  0.9274 -0.4922  0.0181
 1410TIP3    H125721   1.617   0.708  12.150  1.0387 -1.9919  0.1414
 1410TIP3    H225722   1.734   0.791  12.198 -0.0329 -1.2854  1.5655
 1411TIP3   OH225723   4.917   6.420   3.353  0.6980 -0.1946  0.1926
 1411TIP3    H125724   4.937   6.472   3.275 -1.3010  0.1335 -0.1234
 1411TIP3    H225725   4.984   6.352   3.354  2.3662  1.3964 -0.3116
 1412TIP3   OH225726   1.506   5.613  11.230 -0.1698 -0.2024 -0.2206
 1412TIP3    H125727   1.542   5.656  11.307  1.5773 -0.9746 -0.5766
 1412TIP3    H225728   1.499   5.682  11.164  0.3475  0.0237 -0.0377
 1413TIP3   OH225729   2.151   1.475   0.406 -0.0180  0.2022 -0.5604
 1413TIP3    H125730   2.058   1.453   0.412 -0.4310  1.6194 -1.4672
 1413TIP3    H225731   2.166   1.536   0.478 -0.1584  1.1177 -1.2840
 1414TIP3   OH225732   4.082   2.775  11.028  0.2260  0.1894  0.0890
 1414TIP3    H125733   4.079   2.776  10.933  1.2786 -1.6360  0.0233
 1414TIP3    H225734   4.173   2.757  11.050  0.0440  0.8300  1.4457
 1415TIP3   OH225735   5.738   2.420   1.166  0.0781  0.1559 -0.1046
 1415TIP3    H125736   5.704   2.466   1.089 -1.7309 -3.5848 -1.6674
 1415TIP3    H225737   5.677   2.441   1.236 -1.9596 -1.4172 -1.3376
 1416TIP3   OH225738   3.914   2.253   4.773  0.0131  0.1241  0.9219
 1416TIP3    H125739   3.898   2.347   4.762  2.9646  0.7244  1.2823
 1416TIP3    H225740   3.829   2.217   4.797 -1.5534  2.4265 -0.8658
 1417TIP3   OH225741   2.827   5.446  14.472  0.1495 -0.0852  0.0419
 1417TIP3    H125742   2.899   5.386  14.490 -0.1177 -0.4910 -0.2486
 1417TIP3    H225743   2.863   5.508  14.408  0.2990 -0.1765  0.0370
 1418TIP3   OH225744   0.420   6.668  13.924 -0.8513  0.5234 -0.2100
 1418TIP3    H125745   0.473   6.615  13.864 -1.9060  2.1536 -2.6354
 1418TIP3    H225746   0.340   6.617  13.937 -0.3261 -0.1576  0.3971
 1419TIP3   OH225747   0.384   0.655   6.739 -0.3417 -0.6455  0.5923
 1419TIP3    H125748   0.362   0.720   6.673  0.1333 -0.0678  0.9964
 1419TIP3    H225749   0.302   0.638   6.785 -0.5878 -0.7623  0.1072
 1420TIP3   OH225750   5.976   3.274   0.187 -0.2002 -0.1996  0.0089
 1420TIP3    H125751   5.903   3.292   0.127 -0.6899  0.4905  0.8035
 1420TIP3    H225752   5.935   3.271   0.273  0.8404  0.9361  0.5507
 1421TIP3   OH225753   2.783   0.942  12.731  0.5001  0.1075  0.2430
 1421TIP3    H125754   2.810   1.033  12.747 -0.1092  0.4950 -0.8852
 1421TIP3    H225755   2.712   0.949  12.666 -0.3105 -1.0986  0.9893
 1422TIP3   OH225756   0.554   5.984   3.929  0.7440 -0.6911  0.3843
 1422TIP3    H125757   0.479   5.943   3.887  0.2966  1.1882 -0.7400
 1422TIP3    H225758   0.533   5.986   4.022 -1.2087  0.9938 -0.0576
 1423TIP3   OH225759   3.110   2.260  15.539 -0.0368  0.0100  0.0872
 1423TIP3    H125760   3.185   2.299  15.584  0.4980  1.6770 -2.1538
 1423TIP3    H225761   3.034   2.308  15.571  0.0774 -0.3016  0.8360
 1424TIP3   OH225762   1.858   4.315  14.311 -0.0613 -0.0795  0.0155
 1424TIP3    H125763   1.827   4.314  14.221 -0.3281 -1.6417  0.1030
 1424TIP3    H225764   1.787   4.355  14.361  1.0763  3.0530 -0.7794
 1425TIP3   OH225765   6.581   5.778   4.995  0.6890  0.0612  0.2181
 1425TIP3    H125766   6.607   5.868   4.976  1.2821 -0.1280  0.1081
 1425TIP3    H225767   6.616   5.762   5.083  0.6021 -0.0651  0.2286
 1426TIP3   OH225768   6.432   2.122   3.946 -0.1567  0.1653  0.3035
 1426TIP3    H125769   6.441   2.139   3.852  0.2712  0.9780  0.4859
 1426TIP3    H225770   6.403   2.032   3.951  1.5755 -0.4714 -0.5576
 1427TIP3   OH225771   5.943   4.952   1.478 -0.1040  0.2098 -0.0006
 1427TIP3    H125772   6.037   4.970   1.487 -0.0052 -1.0220  1.5488
 1427TIP3    H225773   5.935   4.912   1.391  0.9271 -0.4118  0.1762
 1428TIP3   OH225774   4.276   2.749   1.711 -0.1228  0.0029 -0.1092
 1428TIP3    H125775   4.243   2.767   1.799  0.6295  0.1908  0.1415
 1428TIP3    H225776   4.210   2.785   1.652 -1.0939 -0.9883  0.3686
 1429TIP3   OH225777   3.641   4.134  16.410  0.0048  0.4268  0.3261
 1429TIP3    H125778   3.674   4.131  16.320 -0.8959  3.5392 -0.1481
 1429TIP3    H225779   3.546   4.128  16.401 -0.0226 -0.6020  1.1892
 1430TIP3   OH225780   5.118   3.501  15.100  0.2409 -0.6705 -0.0027
 1430TIP3    H125781   5.083   3.431  15.155 -0.3189 -1.3789 -1.2144
 1430TIP3    H225782   5.068   3.579  15.124  1.0469 -0.6259  1.5370
 1431TIP3   OH225783   2.619   1.062   5.442 -0.2109 -0.0257 -0.6531
 1431TIP3    H125784   2.586   0.973   5.425 -0.4446 -0.3450  1.3357
 1431TIP3    H225785   2.637   1.063   5.536  2.4686  1.1558 -1.1361
 1432TIP3   OH225786   4.431   5.068  12.024 -0.0596 -0.3611  0.0895
 1432TIP3    H125787   4.524   5.045  12.013 -0.1614 -0.4088 -0.6932
 1432TIP3    H225788   4.431   5.163  12.035  0.1236 -0.4152  0.5555
 1433TIP3   OH225789   2.016   4.326   4.792  0.2701 -0.7154 -0.3506
 1433TIP3    H125790   2.036   4.364   4.706 -0.4799  0.0089 -0.2093
 1433TIP3    H225791   2.062   4.383   4.854  0.5765 -1.0729 -0.2424
 1434TIP3   OH225792   3.661   3.908  14.404 -0.2509  0.1226  0.1274
 1434TIP3    H125793   3.703   3.987  14.367  2.0799 -0.6037  1.1429
 1434TIP3    H225794   3.688   3.838  14.345 -0.7497 -0.2377  0.3285
 1435TIP3   OH225795   4.125   2.792   0.748  0.0140 -0.4589 -0.0909
 1435TIP3    H125796   4.139   2.715   0.803  1.2332  0.1249  0.4107
 1435TIP3    H225797   4.046   2.833   0.784 -1.2193 -1.9988 -0.9666
 1436TIP3   OH225798   6.304   4.300  16.378 -0.3331 -0.2758 -0.1137
 1436TIP3    H125799   6.326   4.338  16.463 -0.4952  0.6602 -0.4884
 1436TIP3    H225800   6.324   4.369  16.314 -2.3356 -0.1547 -0.6383
 1437TIP3   OH225801   0.915   1.415   0.761  0.9624  0.6267  0.1628
 1437TIP3    H125802   0.996   1.381   0.723  0.8596  0.8350 -0.2525
 1437TIP3    H225803   0.874   1.340   0.802  1.0874  0.3997 -0.1236
 1438TIP3   OH225804   3.152   3.107  12.375 -0.1243 -0.8407  0.4098
 1438TIP3    H125805   3.103   3.068  12.304 -1.5973  0.2631  0.8070
 1438TIP3    H225806   3.091   3.167  12.418  0.7025 -1.5368  2.6499
 1439TIP3   OH225807   4.174   4.322   4.505  0.2492 -0.1195 -0.3631
 1439TIP3    H125808   4.092   4.327   4.455  1.4159 -0.8079 -2.4173
 1439TIP3    H225809   4.228   4.261   4.455  0.7864 -2.3391  2.7849
 1440TIP3   OH225810   0.754   2.988   4.689 -0.1316 -0.3193  0.0581
 1440TIP3    H125811   0.792   2.967   4.774  1.1826 -1.3321 -0.7657
 1440TIP3    H225812   0.708   2.908   4.662 -1.7051  0.4441  0.4190
 1441TIP3   OH225813   5.228   3.962   0.349  0.1481  0.6915  0.2856
 1441TIP3    H125814   5.231   3.962   0.253  1.1642  2.4083  0.2932
 1441TIP3    H225815   5.286   4.034   0.374  0.5725 -0.3124  2.2225
 1442TIP3   OH225816   1.817   0.161  12.486  0.1502  0.6456  0.3682
 1442TIP3    H125817   1.882   0.145  12.418  1.9449  1.7578  1.7853
 1442TIP3    H225818   1.841   0.246  12.523 -1.2058  0.3669  1.9534
 1443TIP3   OH225819   6.476   0.982  14.679 -0.4296 -0.6118 -0.4487
 1443TIP3    H125820   6.550   0.926  14.704  0.4689  0.2850 -1.0383
 1443TIP3    H225821   6.502   1.019  14.595 -1.3936  0.0106 -0.4735
 1444TIP3   OH225822   1.180   0.986  13.287  0.1471 -0.7304  1.1170
 1444TIP3    H125823   1.123   1.047  13.335 -0.4119 -0.4768  0.1518
 1444TIP3    H225824   1.199   0.917  13.350 -1.1443 -0.7632  1.5024
 1445TIP3   OH225825   2.316   3.156  14.558 -0.1474 -0.1936  0.1941
 1445TIP3    H125826   2.306   3.070  14.600  1.1835 -0.3749  0.1649
 1445TIP3    H225827   2.399   3.150  14.511 -0.8219  0.5780 -1.1200
 1446TIP3   OH225828   0.608   1.812  14.444 -0.1213  0.5077  0.0802
 1446TIP3    H125829   0.660   1.759  14.385  0.4402 -1.5194  2.3261
 1446TIP3    H225830   0.543   1.854  14.388  2.2183  0.9893 -2.3699
 1447TIP3   OH225831   3.403   0.288   0.089 -0.1854  0.1173  0.1382
 1447TIP3    H125832   3.422   0.357   0.153 -0.0409 -0.4285  0.6950
 1447TIP3    H225833   3.488   0.263   0.055  0.0972 -2.0720  2.3619
 1448TIP3   OH225834   4.045   2.501   2.028  0.4479  0.1571  0.4355
 1448TIP3    H125835   4.020   2.593   2.037  0.7926  0.4376 -1.3047
 1448TIP3    H225836   4.000   2.471   1.948  2.1429 -0.5513 -0.2752
 1449TIP3   OH225837   6.587   1.653  16.522 -0.2856  0.4381  0.3452
 1449TIP3    H125838   6.575   1.730  16.578  1.0984  3.4028 -3.2525
 1449TIP3    H225839   6.676   1.624  16.539 -0.4122  0.3340  0.8386
 1450TIP3   OH225840   5.260   6.179   5.578  0.5238  0.4156 -0.3145
 1450TIP3    H125841   5.347   6.170   5.617 -0.3035  0.4758  1.6088
 1450TIP3    H225842   5.253   6.104   5.518 -0.1365 -2.8618  3.5840
 1451TIP3   OH225843   3.555   1.368  14.208  0.0953 -0.3436  0.1800
 1451TIP3    H125844   3.512   1.421  14.141  0.8497  0.5266  0.3745
 1451TIP3    H225845   3.485   1.346  14.270 -1.1926 -3.3311 -2.1911
 1452TIP3   OH225846   3.572   1.321  12.502 -0.4232 -0.5157  0.6777
 1452TIP3    H125847   3.482   1.338  12.474 -0.0575  0.6519  0.1906
 1452TIP3    H225848   3.585   1.227  12.487 -1.7490 -0.8127  1.3187
 1453TIP3   OH225849   1.148   1.305  16.276  0.1237  0.6983 -0.0160
 1453TIP3    H125850   1.095   1.254  16.215  0.4811 -0.4357  0.6166
 1453TIP3    H225851   1.190   1.372  16.222  0.6914 -0.4997 -1.0596
 1454TIP3   OH225852   5.505   3.849  13.054 -0.6454 -0.2447 -0.2055
 1454TIP3    H125853   5.473   3.913  12.992 -0.7025 -1.1882 -1.1667
 1454TIP3    H225854   5.594   3.877  13.074 -0.3177 -0.4072 -1.3856
 1455TIP3   OH225855   6.194   4.925  16.431  0.5746 -0.0476 -0.2657
 1455TIP3    H125856   6.099   4.915  16.422  0.6549 -1.4364  0.2730
 1455TIP3    H225857   6.212   4.899  16.521  1.5433 -0.5003 -0.5824
 1456TIP3   OH225858   1.336   0.133  14.739 -0.4531  0.0425  0.5284
 1456TIP3    H125859   1.383   0.213  14.762 -0.1386 -0.1070  0.4019
 1456TIP3    H225860   1.402   0.076  14.699 -0.6710 -0.2867  0.6323
 1457TIP3   OH225861   5.386   3.405   0.379 -0.6425  0.1409 -0.1777
 1457TIP3    H125862   5.326   3.355   0.323 -1.5114 -2.0382  2.5831
 1457TIP3    H225863   5.336   3.422   0.459  2.3994 -1.8640  2.2847
 1458TIP3   OH225864   4.733   1.418   6.869 -0.3292  0.7585  0.3494
 1458TIP3    H125865   4.823   1.436   6.898 -0.5447  0.3827  1.2784
 1458TIP3    H225866   4.743   1.375   6.784  0.4374 -0.4509  1.0323
 1459TIP3   OH225867   6.496   2.474  16.642 -0.2373  0.4675 -0.4813
 1459TIP3    H125868   6.443   2.406  16.684  3.5679 -1.9143  0.8308
 1459TIP3    H225869   6.463   2.480  16.553 -2.8412 -0.6807  0.3733
 1460TIP3   OH225870   6.075   2.414   3.390  0.3198 -0.3354 -0.9237
 1460TIP3    H125871   6.094   2.503   3.360 -0.7041  0.0124 -0.5444
 1460TIP3    H225872   5.992   2.422   3.437  1.1815 -1.1249  0.7696
 1461TIP3   OH225873   0.878   1.297   4.566 -0.0820  0.0648  0.1675
 1461TIP3    H125874   0.802   1.309   4.509 -0.8585  1.1418  1.4030
 1461TIP3    H225875   0.841   1.287   4.653  0.9530 -3.7302  0.2838
 1462TIP3   OH225876   5.216   3.784  16.566 -0.4408  0.0143 -0.0918
 1462TIP3    H125877   5.126   3.792  16.596 -0.2556  0.7584  0.2609
 1462TIP3    H225878   5.237   3.869  16.527 -0.0323 -0.2934 -0.5648
 1463TIP3   OH225879   4.829   5.210   4.496 -0.0982 -0.1238  0.0385
 1463TIP3    H125880   4.891   5.210   4.422 -0.6374  0.1639 -0.4152
 1463TIP3    H225881   4.747   5.242   4.459 -0.2036  0.6395  0.9165
 1464TIP3   OH225882   2.861   0.810   0.985  0.6046  0.0331  0.2613
 1464TIP3    H125883   2.940   0.864   0.990  0.3446  0.5221 -0.9278
 1464TIP3    H225884   2.791   0.870   0.961  0.3625 -0.8889 -1.3876
 1465TIP3   OH225885   6.221   0.082   3.610 -0.2735  0.1566 -0.2052
 1465TIP3    H125886   6.164   0.008   3.588 -2.2016  1.7297 -0.5894
 1465TIP3    H225887   6.291   0.078   3.545  0.5769 -2.3416  0.8352
 1466TIP3   OH225888   5.779   4.470   5.373 -0.3110 -0.2005 -0.8778
 1466TIP3    H125889   5.714   4.400   5.384  0.6556 -1.3170 -2.1682
 1466TIP3    H225890   5.800   4.497   5.463 -1.2756 -1.0224 -0.3952
 1467TIP3   OH225891   0.625   5.958  15.718 -0.4547  0.3519 -0.0340
 1467TIP3    H125892   0.565   5.911  15.660 -1.5892 -0.8850  2.0848
 1467TIP3    H225893   0.569   6.017  15.768  0.4405  1.0306  0.1725
 1468TIP3   OH225894   3.394   0.937   4.833 -0.0133  0.1909  0.1701
 1468TIP3    H125895   3.446   0.860   4.808  0.9689  0.7701  0.3987
 1468TIP3    H225896   3.399   0.939   4.928  0.1036  0.6358  0.1532
 1469TIP3   OH225897   1.472   1.972   1.389 -0.4281  0.4653  0.6777
 1469TIP3    H125898   1.438   1.930   1.310  0.3098  1.7441 -0.3401
 1469TIP3    H225899   1.469   1.903   1.456  3.1876 -2.1126 -1.5602
 1470TIP3   OH225900   3.533   4.757   1.187 -0.3057 -0.0464  0.1248
 1470TIP3    H125901   3.597   4.826   1.202 -0.8970  0.9687 -1.8152
 1470TIP3    H225902   3.562   4.715   1.106 -1.1140 -0.7128  0.1747
 1471TIP3   OH225903   5.968   5.738   2.112  0.5097 -0.3156  0.5856
 1471TIP3    H125904   6.041   5.680   2.133  0.6955 -0.4534 -0.4089
 1471TIP3    H225905   5.917   5.690   2.047  0.4351  0.4612  0.0657
 1472TIP3   OH225906   3.936   3.050  13.948 -0.3227 -0.1615 -0.0633
 1472TIP3    H125907   3.877   3.109  13.996  2.1290  2.7578 -0.4821
 1472TIP3    H225908   4.014   3.043  14.003  0.7093 -0.4104 -1.5150
 1473TIP3   OH225909   6.154   6.357   2.253 -0.5939 -0.2870 -0.9230
 1473TIP3    H125910   6.080   6.411   2.280 -0.3910 -1.0777  1.4032
 1473TIP3    H225911   6.184   6.396   2.171 -0.5880  2.9890  0.5481
 1474TIP3   OH225912   5.750   4.197  16.189 -0.0574 -0.1683 -0.1010
 1474TIP3    H125913   5.815   4.265  16.209  1.0516 -0.7885 -1.4816
 1474TIP3    H225914   5.787   4.150  16.115 -2.4790  0.0013 -1.4903
 1475TIP3   OH225915   0.364   5.279   5.838  0.2831  0.6801 -0.2289
 1475TIP3    H125916   0.358   5.237   5.924  0.4631 -0.7299 -0.8965
 1475TIP3    H225917   0.438   5.236   5.796 -0.2276  0.8847 -1.3475
 1476TIP3   OH225918   6.123   2.068   1.522  0.0888 -0.0200  0.0036
 1476TIP3    H125919   6.045   2.123   1.519  1.4079  1.8741 -0.9145
 1476TIP3    H225920   6.111   2.005   1.451 -1.4001 -0.9105  1.0163
 1477TIP3   OH225921   4.714   6.768  12.725 -0.0044  0.6890 -0.5596
 1477TIP3    H125922   4.656   6.716  12.669  1.0020 -1.1390  0.0320
 1477TIP3    H225923   4.659   6.793  12.799 -0.6021  0.7854 -1.0294
 1478TIP3   OH225924   1.606   6.691  14.141  0.2300 -0.6015  0.1220
 1478TIP3    H125925   1.600   6.605  14.183  0.2048 -0.4184  0.4988
 1478TIP3    H225926   1.595   6.754  14.213  0.1301 -0.2833 -0.1680
 1479TIP3   OH225927   2.116   1.687   4.703  0.0704 -0.0193  0.4044
 1479TIP3    H125928   2.156   1.689   4.616  0.7143 -1.5508  0.6534
 1479TIP3    H225929   2.179   1.641   4.757 -0.5370  0.5279  1.5905
 1480TIP3   OH225930   6.417   4.574  15.392 -0.2704  0.0797 -0.2383
 1480TIP3    H125931   6.334   4.573  15.345 -0.6409 -1.3244  0.4062
 1480TIP3    H225932   6.474   4.515  15.342  0.5406  1.5124 -1.0204
 1481TIP3   OH225933   4.238   4.764   1.383 -0.1729  0.0520 -0.5107
 1481TIP3    H125934   4.219   4.742   1.292  1.3294 -1.9156 -0.3613
 1481TIP3    H225935   4.331   4.787   1.383  0.3453 -1.9874  0.8959
 1482TIP3   OH225936   3.638   5.726  16.199 -0.2151 -0.1400 -0.4712
 1482TIP3    H125937   3.580   5.655  16.171  0.4198 -0.4009 -1.1190
 1482TIP3    H225938   3.607   5.748  16.287 -0.2676 -1.3806 -0.1627
 1483TIP3   OH225939   2.712   4.463  14.113 -0.1059  0.1374  0.3748
 1483TIP3    H125940   2.629   4.510  14.101 -1.0919 -1.3150  1.3788
 1483TIP3    H225941   2.687   4.373  14.133  1.7167 -0.3446  0.6411
 1484TIP3   OH225942   1.966   3.354   5.183 -0.3800  0.5369  0.2592
 1484TIP3    H125943   2.036   3.291   5.173  0.2189  1.0254  1.2470
 1484TIP3    H225944   1.909   3.341   5.107  0.7318  0.0856 -0.4937
 1485TIP3   OH225945   3.416   6.634   5.479 -0.3895  0.0569  0.0092
 1485TIP3    H125946   3.333   6.671   5.509 -0.3463  0.4447 -0.3481
 1485TIP3    H225947   3.414   6.543   5.509 -0.6747  0.2352  0.5366
 1486TIP3   OH225948   2.180   6.761  10.327 -0.0544  0.2042 -0.2193
 1486TIP3    H125949   2.252   6.698  10.329 -0.5727 -0.3621  1.4287
 1486TIP3    H225950   2.220   6.844  10.352  0.1333 -0.0105  0.2032
 1487TIP3   OH225951   1.420   4.314   1.051 -0.3260  0.2133 -0.0546
 1487TIP3    H125952   1.464   4.331   1.134  0.3058 -1.6702  0.0256
 1487TIP3    H225953   1.387   4.225   1.059 -1.0212  0.3222 -1.5039
 1488TIP3   OH225954   6.492   2.397   4.538  0.1210  0.2530  0.0312
 1488TIP3    H125955   6.559   2.334   4.564  0.1482  1.1188  2.2248
 1488TIP3    H225956   6.409   2.354   4.559  0.0925  0.2423 -0.1062
 1489TIP3   OH225957   4.784   0.947  17.046 -0.6010 -0.5493 -0.4904
 1489TIP3    H125958   4.849   0.998  17.093 -1.8496  1.4842 -0.8868
 1489TIP3    H225959   4.769   0.996  16.965 -1.7991 -1.5758 -0.9150
 1490TIP3   OH225960   3.496   6.449  14.283  0.2282 -0.1296  0.1062
 1490TIP3    H125961   3.544   6.372  14.313 -0.0590 -0.8449 -1.2123
 1490TIP3    H225962   3.514   6.454  14.189 -0.6329  0.7856 -0.0257
 1491TIP3   OH225963   6.326   4.504   4.098  0.1779  0.7148 -0.3218
 1491TIP3    H125964   6.362   4.588   4.071 -0.4237  0.8523 -0.6944
 1491TIP3    H225965   6.398   4.460   4.143  1.1518  0.5072 -2.0789
 1492TIP3   OH225966   4.388   0.064   1.942 -0.3022  0.6930 -0.0340
 1492TIP3    H125967   4.421   0.013   2.016  0.9488  1.2659 -0.1825
 1492TIP3    H225968   4.316   0.012   1.907 -0.0065 -0.2467  0.7452
 1493TIP3   OH225969   0.058   6.498  14.334  0.4863  0.1335 -0.2803
 1493TIP3    H125970  -0.015   6.487  14.395  1.3964 -1.4818  0.5518
 1493TIP3    H225971   0.107   6.416  14.340  0.5294 -0.1281 -3.2851
 1494TIP3   OH225972   4.144   1.377  12.510  0.1770  0.2842  0.2743
 1494TIP3    H125973   4.055   1.413  12.502 -0.1684  0.0587  2.7350
 1494TIP3    H225974   4.149   1.312  12.439 -1.3316  0.8445 -0.3809
 1495TIP3   OH225975   0.095   4.525  14.570  0.7363  0.1182  0.0192
 1495TIP3    H125976   0.158   4.521  14.642  0.3231 -0.3635  0.3685
 1495TIP3    H225977   0.091   4.617  14.546  0.4270  0.3790  1.0292
 1496TIP3   OH225978   1.331   4.944   5.314 -0.7171 -0.6622  0.3940
 1496TIP3    H125979   1.348   4.983   5.228 -0.4471 -1.9068 -0.1201
 1496TIP3    H225980   1.249   4.896   5.303  0.0608 -2.0052  0.4375
 1497TIP3   OH225981   1.229   4.636   0.474  0.0778  0.0969 -0.0068
 1497TIP3    H125982   1.216   4.652   0.381  2.3091  1.5783 -0.0967
 1497TIP3    H225983   1.315   4.673   0.494  0.5478 -2.0131  2.2292
 1498TIP3   OH225984   2.188   3.051  15.419  0.9585  0.0777  0.1247
 1498TIP3    H125985   2.163   3.103  15.495  0.7593 -1.6146  1.2520
 1498TIP3    H225986   2.262   2.999  15.449 -1.0228 -2.8578  0.1685
 1499TIP3   OH225987   0.425   3.403   1.984  1.0300  0.4333  0.2201
 1499TIP3    H125988   0.480   3.469   2.026  3.4214 -1.7330  0.6241
 1499TIP3    H225989   0.440   3.415   1.890  2.8474 -0.6486  0.3545
 1500TIP3   OH225990   4.020   5.030   1.353 -0.3413  0.3094 -0.2158
 1500TIP3    H125991   4.068   5.063   1.429  2.2105 -0.3528 -1.4969
 1500TIP3    H225992   4.009   4.937   1.371 -1.1087  0.4444  0.0379
 1501TIP3   OH225993   2.013   5.409  14.402 -0.1706 -0.2149  0.5575
 1501TIP3    H125994   2.031   5.458  14.322 -3.5760  1.7318  0.9162
 1501TIP3    H225995   2.061   5.456  14.470 -0.7772  0.6945  0.3623
 1502TIP3   OH225996   1.504   0.029  12.012  0.2315 -0.3498 -0.5553
 1502TIP3    H125997   1.490  -0.060  11.980 -0.9765 -1.1216  2.0066
 1502TIP3    H225998   1.417   0.063  12.029  0.7448  0.8680 -0.2752
 1503TIP3   OH225999   3.688   6.307   2.929  0.3589 -0.4839 -0.1629
 1503TIP3    H126000   3.602   6.335   2.897  0.1718 -0.5197  0.3101
 1503TIP3    H226001   3.748   6.377   2.902 -0.1363  0.4677  1.1780
 1504TIP3   OH226002   2.767   6.319   0.450 -0.1965 -0.6700  0.1847
 1504TIP3    H126003   2.821   6.297   0.526 -1.8396  1.3203  1.9960
 1504TIP3    H226004   2.733   6.406   0.469 -1.4583 -0.5460 -2.4027
 1505TIP3   OH226005   6.591   6.076  15.993 -0.2518 -0.4071  0.5989
 1505TIP3    H126006   6.592   6.129  15.913 -1.4747 -0.0808  0.7935
 1505TIP3    H226007   6.678   6.090  16.031  0.7288 -1.4390 -1.2239
 1506TIP3   OH226008   6.151   6.089   0.945  0.3805 -0.0604  0.5062
 1506TIP3    H126009   6.112   6.052   0.866 -0.8529  1.0931  0.5600
 1506TIP3    H226010   6.242   6.059   0.943  0.4868  0.3274 -1.5821
 1507TIP3   OH226011   3.501   0.684  14.945  0.2453 -0.3926 -0.0578
 1507TIP3    H126012   3.576   0.730  14.907  0.8719 -1.4455 -0.1080
 1507TIP3    H226013   3.516   0.592  14.924  0.7476 -1.0481  2.9044
 1508TIP3   OH226014   4.159   2.416  12.995 -0.2465  0.0816  0.0664
 1508TIP3    H126015   4.177   2.509  13.002 -1.5988  0.4634 -1.1694
 1508TIP3    H226016   4.104   2.408  12.917  0.0100 -1.7673  0.0537
 1509TIP3   OH226017   3.709   2.124  15.378 -0.7477  0.0652 -0.3251
 1509TIP3    H126018   3.689   2.032  15.358  0.6325 -0.2103 -0.5020
 1509TIP3    H226019   3.778   2.147  15.316  0.0905  0.7091  0.8214
 1510TIP3   OH226020   2.444   1.720   0.171 -0.3394 -0.2568  0.1098
 1510TIP3    H126021   2.419   1.628   0.159  0.8235 -0.3471 -1.9754
 1510TIP3    H226022   2.539   1.719   0.171 -0.3010  1.1287 -1.6893
 1511TIP3   OH226023   6.749   4.757   5.176  0.1608  0.1160  0.3340
 1511TIP3    H126024   6.794   4.702   5.113  2.4162  2.0319  0.2042
 1511TIP3    H226025   6.696   4.816   5.123  1.7250  1.4407  0.2013
 1512TIP3   OH226026   2.525   0.902  14.561  0.5071 -0.0010  0.0649
 1512TIP3    H126027   2.547   0.860  14.644 -2.6915  2.4009  2.2678
 1512TIP3    H226028   2.592   0.969  14.550  0.3438  0.3886  1.3278
 1513TIP3   OH226029   6.800   2.967   5.898 -0.3382 -0.1135  0.4733
 1513TIP3    H126030   6.822   2.886   5.943  1.1294 -0.6869 -1.2160
 1513TIP3    H226031   6.776   3.028   5.968  2.0768 -0.9089  2.0832
 1514TIP3   OH226032   5.129   6.649   3.988 -0.0112  0.0520  0.1381
 1514TIP3    H126033   5.061   6.581   3.993 -1.1374  1.1127 -0.6696
 1514TIP3    H226034   5.173   6.633   3.904 -0.3089  0.3472 -0.0754
 1515TIP3   OH226035   0.210   1.771   0.660 -0.1564  0.2202 -0.1303
 1515TIP3    H126036   0.159   1.790   0.582 -1.1483  0.1989  0.5001
 1515TIP3    H226037   0.242   1.856   0.690  1.9608  0.0192 -1.7040
 1516TIP3   OH226038   3.414   3.201  14.613 -0.0534 -0.0939  0.2108
 1516TIP3    H126039   3.333   3.149  14.616  0.5841 -1.0758  0.4627
 1516TIP3    H226040   3.445   3.203  14.703 -0.0525  0.6942  0.1957
 1517TIP3   OH226041   0.617   4.571   4.553 -0.2141  0.2670 -0.2572
 1517TIP3    H126042   0.539   4.527   4.587 -1.0780  0.4875 -1.8568
 1517TIP3    H226043   0.612   4.660   4.588 -1.0313  0.4579 -0.8359
 1518TIP3   OH226044   1.192   6.135   0.191 -0.4760  0.1380 -0.1815
 1518TIP3    H126045   1.250   6.166   0.122  0.0828 -1.8032 -0.6148
 1518TIP3    H226046   1.246   6.136   0.270 -0.1968 -0.5184 -0.3580
 1519TIP3   OH226047   5.069   5.288   5.274 -0.0950 -0.6267  0.5901
 1519TIP3    H126048   5.119   5.278   5.356  0.5596 -0.4803  0.2135
 1519TIP3    H226049   4.992   5.338   5.299  1.0828  1.1561  0.7461
 1520TIP3   OH226050   6.607   1.640  14.039  0.2167  0.0554  0.0000
 1520TIP3    H126051   6.653   1.723  14.042 -0.3021  0.4663 -2.5516
 1520TIP3    H226052   6.655   1.588  13.974  2.3059 -2.7914  3.5819
 1521TIP3   OH226053   2.234   0.601  13.011 -0.0352  0.4939 -0.1176
 1521TIP3    H126054   2.238   0.640  13.099  1.2673  0.5663 -0.1922
 1521TIP3    H226055   2.240   0.507  13.027 -0.5550  0.4668 -0.0850
 1522TIP3   OH226056   2.844   0.504   5.316  0.4611  0.1790 -0.1802
 1522TIP3    H126057   2.878   0.524   5.229 -0.0334 -0.6506 -0.5760
 1522TIP3    H226058   2.914   0.528   5.376  1.3880 -0.6535 -0.9155
 1523TIP3   OH226059   4.030   4.629   4.138 -0.1679  0.0901  0.0327
 1523TIP3    H126060   4.005   4.546   4.178 -0.0001 -0.0865 -0.2262
 1523TIP3    H226061   4.118   4.614   4.103 -1.0193 -0.3361 -2.0094
 1524TIP3   OH226062   1.310   0.071   4.694 -0.7971  0.1491  0.2509
 1524TIP3    H126063   1.310   0.164   4.719 -1.3590  0.3347 -0.4158
 1524TIP3    H226064   1.304   0.024   4.777 -1.1836  0.7270  0.5610
 1525TIP3   OH226065   0.296   0.547   3.655 -0.5372  0.4959  0.3089
 1525TIP3    H126066   0.278   0.464   3.612  0.9584  0.6456 -0.6468
 1525TIP3    H226067   0.213   0.572   3.695 -1.3047 -0.8721 -0.3983
 1526TIP3   OH226068   5.037   3.905   6.681 -0.4458 -0.2224 -0.1630
 1526TIP3    H126069   5.041   3.983   6.737 -1.2014 -0.4297  0.1805
 1526TIP3    H226070   5.087   3.930   6.603 -0.2998  0.4494  0.1353
 1527TIP3   OH226071   4.310   0.982  15.183  0.3463  0.4507  0.0282
 1527TIP3    H126072   4.297   1.015  15.271  1.0445  0.3329  0.1833
 1527TIP3    H226073   4.311   1.060  15.127 -0.4528  0.4959  0.0773
 1528TIP3   OH226074   1.453   3.523   4.276 -0.0163  0.4755 -0.0556
 1528TIP3    H126075   1.366   3.517   4.236  0.1832  2.5229 -0.8515
 1528TIP3    H226076   1.487   3.433   4.272 -2.3567 -0.4984  0.9418
 1529TIP3   OH226077   1.113   4.410   0.610  0.3892 -0.0313 -0.7557
 1529TIP3    H126078   1.179   4.409   0.680 -0.0212 -0.7281 -0.3792
 1529TIP3    H226079   1.134   4.488   0.559 -0.9201  2.0326  1.7144
 1530TIP3   OH226080   4.716   0.069  16.913  0.1568  0.1104 -0.0665
 1530TIP3    H126081   4.755   0.107  16.992  0.0156  0.8552 -0.3440
 1530TIP3    H226082   4.623   0.063  16.933  0.2443 -0.5130  0.1491
 1531TIP3   OH226083   3.990   0.382   5.228  0.2131 -0.3600 -0.2696
 1531TIP3    H126084   3.966   0.426   5.146  0.5005 -2.0863 -1.3183
 1531TIP3    H226085   4.032   0.301   5.199 -1.2075 -1.8039  1.5748
 1532TIP3   OH226086   5.656   5.447   3.141 -0.5812  0.7343 -0.0321
 1532TIP3    H126087   5.603   5.485   3.070  0.1681  1.1552 -0.3712
 1532TIP3    H226088   5.611   5.476   3.221 -2.3392 -1.0589 -0.3214
 1533TIP3   OH226089   5.065   4.197  14.069  0.1119  0.0040  0.0169
 1533TIP3    H126090   5.050   4.291  14.074  1.3893  0.1810  0.7311
 1533TIP3    H226091   4.990   4.163  14.021 -2.2897  0.9301  2.9550
 1534TIP3   OH226092   0.504   6.110  13.170  0.3565  0.4782  0.5714
 1534TIP3    H126093   0.562   6.140  13.240 -1.0463 -0.2837  2.1066
 1534TIP3    H226094   0.443   6.050  13.213  0.9962 -1.9765 -1.7657
 1535TIP3   OH226095   1.289   5.928   5.239 -0.3132  0.0924 -0.9137
 1535TIP3    H126096   1.283   5.908   5.146 -0.9852 -0.0878 -0.8412
 1535TIP3    H226097   1.199   5.953   5.264 -0.3627 -0.8723 -0.0963
 1536TIP3   OH226098   1.910   4.808   4.011  0.0262 -0.1879  0.6137
 1536TIP3    H126099   1.951   4.812   4.097  0.1466 -0.8002  0.5864
 1536TIP3    H226100   1.829   4.859   4.021  0.5159  0.5685  0.8122
 1537TIP3   OH226101   2.725   2.565  14.193 -0.4880  0.2056 -0.1144
 1537TIP3    H126102   2.723   2.551  14.098  3.0602 -0.1161 -0.2274
 1537TIP3    H226103   2.763   2.485  14.228 -0.1142  1.0132  1.3717
 1538TIP3   OH226104   5.830   1.414   1.723  0.0108  0.7071 -0.1884
 1538TIP3    H126105   5.836   1.497   1.676 -0.2186  0.5755 -0.4460
 1538TIP3    H226106   5.767   1.431   1.793  0.8044  1.0837  0.4492
 1539TIP3   OH226107   2.000   0.221  16.285  0.1690 -0.4137  0.4907
 1539TIP3    H126108   2.046   0.290  16.333  0.1915 -0.0514 -0.0496
 1539TIP3    H226109   1.962   0.266  16.210  1.7704 -1.3174 -0.8976
 1540TIP3   OH226110   3.861   4.553   5.000 -0.2436 -0.0312 -0.0845
 1540TIP3    H126111   3.785   4.593   4.957  0.4234  1.6137  0.2154
 1540TIP3    H226112   3.888   4.483   4.940  0.2101  1.7315 -1.9987
 1541TIP3   OH226113   0.954   5.181   3.610  0.6130  0.5616  0.2085
 1541TIP3    H126114   0.979   5.156   3.699 -0.1430 -0.0646  0.2585
 1541TIP3    H226115   0.866   5.145   3.599  1.1326 -0.3525 -1.1829
 1542TIP3   OH226116   3.073   2.242   5.619 -0.0870  0.1453 -0.0096
 1542TIP3    H126117   3.123   2.321   5.598 -0.5863  0.2999 -0.6508
 1542TIP3    H226118   2.996   2.274   5.665  0.8152 -0.1652  1.7613
 1543TIP3   OH226119   5.871   5.163  12.445  0.0069 -0.1615  0.1610
 1543TIP3    H126120   5.940   5.223  12.472  0.0428 -0.4775  0.7742
 1543TIP3    H226121   5.793   5.192  12.492 -0.6367  1.0513 -1.5713
 1544TIP3   OH226122   0.485   0.874  14.111  0.1052  0.3406  0.1956
 1544TIP3    H126123   0.500   0.935  14.040 -0.4625 -1.8145 -1.8446
 1544TIP3    H226124   0.394   0.845  14.100  0.1163 -0.2988  1.5670
 1545TIP3   OH226125   1.541   3.717  11.619 -0.3168 -0.1914 -0.3344
 1545TIP3    H126126   1.607   3.718  11.550  0.1959 -1.1558  0.1377
 1545TIP3    H226127   1.509   3.627  11.621 -1.2988  0.1513 -0.2197
 1546TIP3   OH226128   1.066   5.716  16.909 -0.2708  0.1920  0.0141
 1546TIP3    H126129   1.148   5.707  16.860 -0.1755 -0.5577  0.3016
 1546TIP3    H226130   1.056   5.810  16.923  1.1650  0.1934  1.0363
 1547TIP3   OH226131   2.966   5.040  15.129  0.1721 -0.1555  0.3930
 1547TIP3    H126132   2.945   5.130  15.102 -0.8557 -0.5606 -0.1919
 1547TIP3    H226133   2.928   4.985  15.060  1.0169 -1.0318  0.6093
 1548TIP3   OH226134   3.978   0.967  12.242  0.0852 -0.1353  0.2315
 1548TIP3    H126135   4.054   0.918  12.211  0.0128 -0.1009  0.0009
 1548TIP3    H226136   3.908   0.946  12.181  0.0572  0.2660  0.1190
 1549TIP3   OH226137   2.125   0.681  16.856  0.1801  0.3871 -0.8954
 1549TIP3    H126138   2.091   0.763  16.892 -0.8786  0.5119 -2.1279
 1549TIP3    H226139   2.055   0.650  16.798  1.0325 -0.8204 -1.2893
 1550TIP3   OH226140   4.868   0.386  12.683  0.1359  0.0455  0.0913
 1550TIP3    H126141   4.873   0.471  12.641  0.1169 -0.1923 -0.3922
 1550TIP3    H226142   4.779   0.356  12.667  0.2230 -0.1827  0.0303
 1551TIP3   OH226143   5.985   2.684  15.505  0.5305  0.3941 -0.5879
 1551TIP3    H126144   5.938   2.725  15.577 -2.4646 -1.9527 -1.1104
 1551TIP3    H226145   6.045   2.622  15.547 -0.5534 -0.3159 -0.0734
 1552TIP3   OH226146   5.400   2.786  12.180 -0.1243 -0.6070  0.6893
 1552TIP3    H126147   5.344   2.738  12.119  0.1364 -0.8535  0.6467
 1552TIP3    H226148   5.391   2.878  12.152  0.3898 -0.7723 -0.0392
 1553TIP3   OH226149   0.485   4.274  16.669  0.3023  0.1041 -0.1754
 1553TIP3    H126150   0.484   4.318  16.754  1.1599  0.7120 -0.4831
 1553TIP3    H226151   0.535   4.194  16.684 -0.9469 -0.6038  0.2871
 1554TIP3   OH226152   4.979   0.204   4.475  0.0909 -0.0454 -0.7238
 1554TIP3    H126153   5.005   0.153   4.552 -0.0495 -1.8453 -1.8257
 1554TIP3    H226154   4.955   0.290   4.510  1.4168 -0.3736  1.0498
 1555TIP3   OH226155   5.616   4.201  15.318  0.1648  0.0387  0.0495
 1555TIP3    H126156   5.549   4.144  15.357  1.1799 -1.3527 -0.1689
 1555TIP3    H226157   5.573   4.285  15.305 -1.6483 -0.9429 -0.4209
 1556TIP3   OH226158   1.288   5.108  14.704  0.2401 -0.1911 -0.9155
 1556TIP3    H126159   1.199   5.080  14.685  0.6278 -0.4313 -2.4951
 1556TIP3    H226160   1.328   5.034  14.749 -0.2972 -0.1466 -0.3554
 1557TIP3   OH226161   4.695   1.278  13.109 -0.3592 -0.3458 -0.1861
 1557TIP3    H126162   4.680   1.215  13.181 -3.6382  0.5392  0.0010
 1557TIP3    H226163   4.642   1.244  13.037 -1.4400  1.6685 -0.3771
 1558TIP3   OH226164   2.898   0.776   3.170  0.1022  0.4070 -0.9207
 1558TIP3    H126165   2.936   0.770   3.083 -1.0120  2.5306 -1.6073
 1558TIP3    H226166   2.810   0.811   3.155 -0.4844 -0.1950  0.9690
 1559TIP3   OH226167   5.383   3.327   2.878  0.2726 -0.2369  0.4964
 1559TIP3    H126168   5.400   3.411   2.921  3.8951  0.0296 -1.2529
 1559TIP3    H226169   5.371   3.349   2.786  1.0197 -1.5966  0.0606
 1560TIP3   OH226170   3.141   4.299   2.857 -0.1808  0.3325  0.5079
 1560TIP3    H126171   3.073   4.354   2.818 -2.1235  1.1087  4.6714
 1560TIP3    H226172   3.222   4.349   2.845 -1.0241  1.4562 -0.7150
 1561TIP3   OH226173   5.879   5.763   0.149  0.3315 -0.3748  1.2806
 1561TIP3    H126174   5.930   5.786   0.072 -0.6909 -0.7747  0.4775
 1561TIP3    H226175   5.901   5.831   0.213 -0.4069  1.1644 -0.0719
 1562TIP3   OH226176   4.363   0.757  12.813  0.2743  0.8357 -0.0780
 1562TIP3    H126177   4.268   0.768  12.820  0.4627  1.5362  1.4608
 1562TIP3    H226178   4.382   0.780  12.722 -0.9553  1.2446 -0.2458
 1563TIP3   OH226179   6.446   3.176  14.816 -0.3891  0.1462  0.1430
 1563TIP3    H126180   6.398   3.166  14.897  1.3018  0.3315  1.2009
 1563TIP3    H226181   6.450   3.271  14.801  0.5353  0.1890  0.6221
 1564TIP3   OH226182   2.303   6.231  11.821  0.0717  0.1274  0.1682
 1564TIP3    H126183   2.299   6.264  11.731  1.4814  1.2510  0.4941
 1564TIP3    H226184   2.376   6.169  11.819 -1.0747 -1.2539  0.1230
 1565TIP3   OH226185   6.656   1.061   0.647 -0.1521 -0.5357  0.4296
 1565TIP3    H126186   6.592   1.008   0.695 -0.6511  0.2679  0.6727
 1565TIP3    H226187   6.717   0.998   0.610 -0.8252 -1.2877  0.5845
 1566TIP3   OH226188   3.686   5.658  10.952  0.6320 -0.0903  0.7989
 1566TIP3    H126189   3.594   5.647  10.973  0.8663 -1.1547  1.3562
 1566TIP3    H226190   3.724   5.701  11.029  0.1248  2.7778 -0.5065
 1567TIP3   OH226191   5.050   6.550   3.689  0.1747  0.2702  0.2335
 1567TIP3    H126192   5.092   6.616   3.633  1.6217 -0.9941 -0.1902
 1567TIP3    H226193   4.973   6.595   3.725  0.3554  1.7427 -1.1597
 1568TIP3   OH226194   1.291   2.171  15.303  0.6483 -0.2113  0.4179
 1568TIP3    H126195   1.382   2.164  15.274  0.3236  0.8893 -0.9124
 1568TIP3    H226196   1.262   2.256  15.270 -1.3794 -1.3108 -0.6607
 1569TIP3   OH226197   4.401   6.090   4.075  0.5016  0.1165 -0.2964
 1569TIP3    H126198   4.429   6.181   4.085  0.3601  0.0553  0.7265
 1569TIP3    H226199   4.427   6.048   4.157 -1.5364 -0.2218  0.2033
 1570TIP3   OH226200   1.755   6.281  11.118  0.5270  0.0177  0.4010
 1570TIP3    H126201   1.668   6.258  11.086  1.5549 -0.9409 -1.8290
 1570TIP3    H226202   1.770   6.370  11.088  0.3066  0.1782  0.7736
 1571TIP3   OH226203   6.078   2.003  14.229 -0.5256  0.2530  0.4012
 1571TIP3    H126204   6.049   2.068  14.293 -0.4995  0.7931 -0.1267
 1571TIP3    H226205   6.108   2.055  14.155  0.3627 -0.3458  0.3436
 1572TIP3   OH226206   1.694   2.691   6.375 -0.4902 -0.0965 -0.3412
 1572TIP3    H126207   1.700   2.781   6.407 -0.8521 -0.0909 -0.2921
 1572TIP3    H226208   1.603   2.681   6.348 -0.3084 -0.2570 -0.9093
 1573TIP3   OH226209   4.123   3.759   2.305 -0.0516 -0.0123  0.5466
 1573TIP3    H126210   4.197   3.781   2.362 -0.3459 -1.4957  1.5286
 1573TIP3    H226211   4.046   3.792   2.351 -0.0903  0.7727 -0.0704
 1574TIP3   OH226212   1.991   2.109  13.654  0.1442 -0.2379  0.1179
 1574TIP3    H126213   2.077   2.125  13.616 -0.0943  1.9656  0.4310
 1574TIP3    H226214   1.931   2.111  13.579  0.2495 -0.9111  0.0102
 1575TIP3   OH226215   4.430   5.657   0.192  0.3807 -0.0337  0.3396
 1575TIP3    H126216   4.398   5.594   0.256 -1.3280 -1.0756 -1.4734
 1575TIP3    H226217   4.524   5.643   0.189  0.1804 -1.5598  0.9668
 1576TIP3   OH226218   2.564   1.559   2.400 -0.6849 -0.0322  0.3577
 1576TIP3    H126219   2.605   1.573   2.315  1.0034  2.7810  1.5588
 1576TIP3    H226220   2.480   1.518   2.380 -0.4413  0.8328 -2.6779
 1577TIP3   OH226221   4.981   5.638   1.978 -1.1402 -0.2208 -0.4049
 1577TIP3    H126222   5.023   5.562   1.939 -0.9074  0.4349 -1.4657
 1577TIP3    H226223   5.052   5.686   2.021 -1.0475  0.0925 -0.8963
 1578TIP3   OH226224   0.964   2.382   0.226 -0.2296 -0.2962  0.1420
 1578TIP3    H126225   0.961   2.294   0.190  0.4984 -0.1670 -0.2467
 1578TIP3    H226226   0.898   2.383   0.295 -1.3662 -0.6706 -0.9254
 1579TIP3   OH226227   2.588   1.783   5.389  0.5638 -0.7282 -0.1198
 1579TIP3    H126228   2.588   1.795   5.484 -0.7123  1.3928 -0.3680
 1579TIP3    H226229   2.679   1.763   5.367  0.9816 -0.6104  1.4793
 1580TIP3   OH226230   4.853   3.374  16.106 -0.5016  0.1626  0.3950
 1580TIP3    H126231   4.761   3.352  16.090 -0.6059  0.6222  0.3357
 1580TIP3    H226232   4.859   3.468  16.086  0.3365 -0.1979 -1.1175
 1581TIP3   OH226233   1.825   0.440  12.444  0.0436  0.4401  0.0999
 1581TIP3    H126234   1.789   0.489  12.518  1.8598  2.1166 -0.0630
 1581TIP3    H226235   1.751   0.431  12.383 -1.2135 -0.1131  1.6731
 1582TIP3   OH226236   0.399   5.538  13.162  0.8171  0.0632 -0.1175
 1582TIP3    H126237   0.350   5.614  13.193  2.2685  1.2486 -0.6609
 1582TIP3    H226238   0.435   5.498  13.241  1.4852  0.9631  0.0428
 1583TIP3   OH226239   1.941   2.212  10.876 -0.1941 -0.3683 -0.9627
 1583TIP3    H126240   1.931   2.248  10.964  1.6453 -0.3855 -0.7281
 1583TIP3    H226241   1.859   2.233  10.832 -0.3897  1.3298  0.1684
 1584TIP3   OH226242   1.735   2.115   4.743 -0.7131  0.7748  0.4815
 1584TIP3    H126243   1.696   2.164   4.815  0.0580  3.1766 -0.6987
 1584TIP3    H226244   1.661   2.072   4.700 -1.0541 -1.7649  3.4263
 1585TIP3   OH226245   1.830   6.576   2.505 -0.3214  0.5609 -0.5500
 1585TIP3    H126246   1.884   6.549   2.431 -0.7767  0.5679 -0.8841
 1585TIP3    H226247   1.785   6.496   2.532  0.2304  0.4434  0.0476
 1586TIP3   OH226248   0.531   5.087   4.879 -0.7649 -0.4068 -0.3997
 1586TIP3    H126249   0.579   5.161   4.843 -2.4489  0.8358 -0.1560
 1586TIP3    H226250   0.444   5.122   4.898 -1.8078 -2.6255 -0.9519
 1587TIP3   OH226251   0.739   0.953  16.671 -0.1120 -0.0103 -0.5511
 1587TIP3    H126252   0.695   0.870  16.689  1.5839 -0.5923  1.1613
 1587TIP3    H226253   0.669   1.016  16.657 -1.4295 -1.6442 -1.4663
 1588TIP3   OH226254   1.431   0.936   1.518  0.2096 -0.0589  0.2814
 1588TIP3    H126255   1.452   0.921   1.426 -2.0119 -1.3366 -0.0641
 1588TIP3    H226256   1.349   0.984   1.516 -0.2391 -0.7493  1.6034
 1589TIP3   OH226257   3.423   3.576  13.435 -0.4174  0.6241 -0.1986
 1589TIP3    H126258   3.457   3.627  13.509 -0.6880 -1.5959  1.5009
 1589TIP3    H226259   3.497   3.521  13.409 -0.1696  1.7492 -1.9278
 1590TIP3   OH226260   4.078   4.943  16.098  0.6346 -0.1267  0.3702
 1590TIP3    H126261   4.079   4.964  16.192  0.2347  0.2910  0.2867
 1590TIP3    H226262   4.101   4.851  16.093 -0.3530 -0.4069  0.9543
 1591TIP3   OH226263   2.217   6.049   1.680 -0.2555 -0.0236 -0.3026
 1591TIP3    H126264   2.196   6.054   1.587 -0.9809  1.3812 -0.0759
 1591TIP3    H226265   2.151   5.989   1.716 -1.5443  1.3791 -0.2695
 1592TIP3   OH226266   0.205   5.572  11.385  0.3575 -0.3145  0.4604
 1592TIP3    H126267   0.286   5.532  11.353  0.8827  1.3194 -0.2939
 1592TIP3    H226268   0.200   5.656  11.340 -1.7527 -0.3809  0.5147
 1593TIP3   OH226269   2.242   5.944  13.238  0.1131 -0.4610  0.2118
 1593TIP3    H126270   2.335   5.930  13.224 -0.3099 -0.7983 -2.5060
 1593TIP3    H226271   2.234   6.038  13.254  0.9549 -0.4996  0.8655
 1594TIP3   OH226272   2.746   0.204   4.230  0.1554 -0.5251  0.3695
 1594TIP3    H126273   2.836   0.200   4.262  1.3036  4.8661 -1.5500
 1594TIP3    H226274   2.751   0.173   4.139 -0.1376 -1.2147  0.5861
 1595TIP3   OH226275   5.380   6.755  15.163 -0.2795  0.2252  0.2808
 1595TIP3    H126276   5.393   6.661  15.158  2.2913  0.4905  1.0804
 1595TIP3    H226277   5.424   6.790  15.086 -1.8821  0.7478 -0.4269
 1596TIP3   OH226278   5.444   0.205  12.680  0.6110 -0.6042 -0.0466
 1596TIP3    H126279   5.444   0.147  12.756  0.8294 -0.4144  0.1019
 1596TIP3    H226280   5.353   0.210  12.652  0.4124 -0.0321  0.7005
 1597TIP3   OH226281   6.710   4.466   4.932  0.4194  0.3312 -0.5966
 1597TIP3    H126282   6.773   4.395   4.926 -0.5512 -0.4658 -1.3056
 1597TIP3    H226283   6.762   4.546   4.921  1.5604 -0.2374  0.6007
 1598TIP3   OH226284   2.088   5.781   5.178 -0.1820  0.4869 -0.2159
 1598TIP3    H126285   2.150   5.753   5.245 -1.2773 -1.1303  0.1400
 1598TIP3    H226286   2.084   5.876   5.188 -1.0884  0.1904  2.7184
 1599TIP3   OH226287   2.482   2.766   6.712  0.3862 -0.2618 -0.4546
 1599TIP3    H126288   2.457   2.688   6.663 -0.4218 -0.1249 -0.2643
 1599TIP3    H226289   2.449   2.751   6.801  0.5676  0.1258 -0.3169
 1600TIP3   OH226290   4.825   0.191  15.775 -0.5548  0.6671  0.8847
 1600TIP3    H126291   4.892   0.247  15.735  0.1095 -0.6284  0.1524
 1600TIP3    H226292   4.777   0.249  15.833  0.7534  1.7807  0.8787
 1601TIP3   OH226293   6.286   6.676   3.228  0.1629  0.5447 -0.3400
 1601TIP3    H126294   6.276   6.760   3.182 -1.7719  0.0322 -0.9117
 1601TIP3    H226295   6.378   6.653   3.216  0.2247  1.5679 -1.9826
 1602TIP3   OH226296   1.044   3.082   3.949  0.4325  0.3991 -0.2066
 1602TIP3    H126297   1.023   3.128   3.868  1.7090 -1.3056 -1.5676
 1602TIP3    H226298   1.127   3.120   3.978  0.1013  0.8383  0.1645
 1603TIP3   OH226299   3.339   3.749   4.476 -0.0692 -0.0176  0.0826
 1603TIP3    H126300   3.316   3.666   4.517  0.2288  0.4685  1.2533
 1603TIP3    H226301   3.435   3.754   4.481 -0.0388  0.1204 -0.5288
 1604TIP3   OH226302   3.955   0.439  11.919 -0.0964  0.2270 -0.0264
 1604TIP3    H126303   3.876   0.489  11.939  0.1029 -0.2535  2.0155
 1604TIP3    H226304   3.932   0.387  11.842 -1.8041 -0.0063  0.6408
 1605TIP3   OH226305   0.738   5.848  15.337  0.0583 -0.0103  0.1991
 1605TIP3    H126306   0.815   5.868  15.391  0.6483 -0.1250 -0.5967
 1605TIP3    H226307   0.672   5.819  15.400  1.1579 -1.3615  0.7603
 1606TIP3   OH226308   4.303   2.417   1.242 -0.1097 -0.4154 -0.1898
 1606TIP3    H126309   4.296   2.501   1.196 -1.1583  0.3756  1.3499
 1606TIP3    H226310   4.317   2.353   1.173  2.4471  1.2176 -1.2545
 1607TIP3   OH226311   4.992   3.437  12.760  0.0326 -0.5290 -0.8510
 1607TIP3    H126312   4.966   3.505  12.822  2.8348  0.1646 -0.3739
 1607TIP3    H226313   4.958   3.467  12.676 -1.2447 -0.0036 -0.1633
 1608TIP3   OH226314   0.569   4.481  13.571 -0.4461 -0.3038 -0.8789
 1608TIP3    H126315   0.559   4.486  13.666  0.0347  1.6404 -0.8943
 1608TIP3    H226316   0.638   4.417  13.556 -0.6532 -0.7478  0.0808
 1609TIP3   OH226317   2.095   0.256   5.321  0.7553 -0.5699 -0.0055
 1609TIP3    H126318   2.008   0.221   5.300  0.6816 -1.7312  2.1184
 1609TIP3    H226319   2.156   0.203   5.268  0.3713 -1.5243  0.5008
 1610TIP3   OH226320   6.683   2.231  12.646  0.5454 -0.0021  0.5804
 1610TIP3    H126321   6.610   2.293  12.650  0.5416  0.0340 -0.0389
 1610TIP3    H226322   6.662   2.166  12.714 -0.1937 -0.1379  0.2332
 1611TIP3   OH226323   1.929   1.110  15.208  0.2788 -0.9424  0.3025
 1611TIP3    H126324   1.989   1.064  15.267 -2.0395 -0.7008  2.9400
 1611TIP3    H226325   1.922   1.198  15.244  0.8058 -0.0058 -1.8409
 1612TIP3   OH226326   0.735   5.319  14.526 -0.3055  0.1936 -0.1689
 1612TIP3    H126327   0.825   5.333  14.555 -0.2929 -1.2573  0.5494
 1612TIP3    H226328   0.708   5.239  14.571 -1.9622  0.6335 -0.3603
 1613TIP3   OH226329   6.013   4.742   5.129 -0.1551 -0.0444 -0.3262
 1613TIP3    H126330   6.079   4.771   5.191 -0.1416 -1.0278  0.1207
 1613TIP3    H226331   5.990   4.821   5.080  1.5642  0.2483 -0.6974
 1614TIP3   OH226332   5.162   0.886   0.947  0.6581 -0.5914  0.1937
 1614TIP3    H126333   5.205   0.918   1.026  0.5559 -1.9593  0.8276
 1614TIP3    H226334   5.081   0.937   0.941  0.3764 -0.8888  1.3214
 1615TIP3   OH226335   1.726   6.213  12.554  0.5434  0.0670 -0.0554
 1615TIP3    H126336   1.767   6.223  12.640  0.0791 -1.5305  0.3625
 1615TIP3    H226337   1.634   6.194  12.573  0.3004  0.3285 -0.9265
 1616TIP3   OH226338   0.548   0.563   6.035  0.0666 -0.4147  0.6632
 1616TIP3    H126339   0.636   0.552   6.070  0.1035  1.6099  1.2340
 1616TIP3    H226340   0.549   0.647   5.990 -1.1937 -1.0022 -0.5274
 1617TIP3   OH226341   1.456   6.581  16.810  0.5496 -0.1710  0.0207
 1617TIP3    H126342   1.454   6.495  16.852 -0.0822 -1.0561 -1.7612
 1617TIP3    H226343   1.530   6.577  16.750  1.8571  1.3156  1.5062
 1618TIP3   OH226344   6.714   0.291   5.236  0.2140 -0.7062  0.0807
 1618TIP3    H126345   6.630   0.333   5.216  0.2259 -0.2481  0.9408
 1618TIP3    H226346   6.716   0.213   5.181 -0.9616 -0.9452  0.3613
 1619TIP3   OH226347   5.139   1.915   5.896  0.1148 -0.6206 -0.5421
 1619TIP3    H126348   5.109   2.000   5.927  0.2633 -0.1864 -1.5936
 1619TIP3    H226349   5.068   1.884   5.839 -0.1682 -1.4330  0.2391
 1620TIP3   OH226350   2.120   4.230   4.206  0.4684  0.3539  0.2094
 1620TIP3    H126351   2.081   4.309   4.168  0.5502  0.1756 -0.2377
 1620TIP3    H226352   2.170   4.190   4.135 -1.8930 -1.6614 -0.3939
 1621TIP3   OH226353   2.092   1.515  16.803  0.2777 -0.1027 -0.4512
 1621TIP3    H126354   2.033   1.579  16.842  0.5240 -0.3588  0.3369
 1621TIP3    H226355   2.178   1.536  16.838  0.8614  0.9239 -2.3929
 1622TIP3   OH226356   5.891   4.252   5.646  0.5395  0.4715  0.2562
 1622TIP3    H126357   5.848   4.209   5.572  0.8804 -0.2601  0.4805
 1622TIP3    H226358   5.905   4.342   5.616 -1.4203  0.7994  0.3006
 1623TIP3   OH226359   0.799   2.959   2.800 -0.3221  0.0192 -0.4871
 1623TIP3    H126360   0.737   2.970   2.728  0.7420 -1.3577 -1.6422
 1623TIP3    H226361   0.753   2.906   2.864 -0.6570 -0.2314 -0.9375
 1624TIP3   OH226362   5.123   4.843   3.766  0.0029  0.5733 -0.0667
 1624TIP3    H126363   5.096   4.866   3.677 -0.1648 -2.4377 -0.8370
 1624TIP3    H226364   5.058   4.885   3.823 -0.4648  1.6891 -1.3935
 1625TIP3   OH226365   1.897   6.109  12.781 -0.3513 -0.0978 -0.5492
 1625TIP3    H126366   1.976   6.056  12.794 -0.9233 -0.4668  1.5070
 1625TIP3    H226367   1.831   6.046  12.753 -0.0948  0.1266 -1.7117
 1626TIP3   OH226368   6.106   0.801   1.044 -0.0266 -0.3117 -0.5790
 1626TIP3    H126369   6.053   0.751   1.106 -2.6330  1.3637 -1.3537
 1626TIP3    H226370   6.064   0.785   0.959  0.7243  1.0204 -1.2199
 1627TIP3   OH226371   0.627   5.174   5.630  0.6409 -0.1363  0.8273
 1627TIP3    H126372   0.698   5.131   5.678  1.5977 -3.4697 -3.2525
 1627TIP3    H226373   0.665   5.191   5.543 -2.6343  0.7605 -0.4944
 1628TIP3   OH226374   0.894   1.509   2.458  0.2538  0.3173  0.1020
 1628TIP3    H126375   0.978   1.486   2.496 -0.3629 -0.3041  1.1245
 1628TIP3    H226376   0.878   1.599   2.486 -0.2578 -0.1841  1.4264
 1629TIP3   OH226377   6.719   5.158   0.848  0.6699 -0.7723  0.1000
 1629TIP3    H126378   6.797   5.157   0.903  1.8811 -1.1706 -1.5511
 1629TIP3    H226379   6.670   5.235   0.875  2.3293  0.2353  0.2649
 1630TIP3   OH226380   4.771   2.082   3.571  0.4029  0.7040  0.4554
 1630TIP3    H126381   4.845   2.038   3.614  0.1140  0.6378  0.8844
 1630TIP3    H226382   4.760   2.036   3.488  1.2296  1.0940  0.1238
 1631TIP3   OH226383   5.698   4.998   3.738 -0.2605 -0.7378 -0.0081
 1631TIP3    H126384   5.728   4.919   3.783 -1.4159 -1.0607  0.2229
 1631TIP3    H226385   5.761   5.065   3.763 -0.8564 -0.9222  2.0850
 1632TIP3   OH226386   4.498   2.636   1.781  0.0026 -0.3756 -0.4104
 1632TIP3    H126387   4.444   2.707   1.746  1.2426  0.3331 -0.9199
 1632TIP3    H226388   4.444   2.595   1.848 -0.6458  1.2024  0.0481
 1633TIP3   OH226389   0.736   0.789  15.663 -0.1443 -0.5313  0.8770
 1633TIP3    H126390   0.722   0.818  15.753 -0.9913  2.3431 -0.1348
 1633TIP3    H226391   0.830   0.778  15.655 -0.1078 -1.3244  2.2564
 1634TIP3   OH226392   4.622   5.905  10.871 -0.4197  0.3579  0.1454
 1634TIP3    H126393   4.564   5.979  10.889 -1.5604 -0.5832  0.3877
 1634TIP3    H226394   4.691   5.911  10.937 -0.4048  1.3118  0.0435
 1635TIP3   OH226395   6.336   2.744  16.968 -0.0303  0.5407 -0.1144
 1635TIP3    H126396   6.259   2.737  17.023  1.5880  1.9199  2.4454
 1635TIP3    H226397   6.357   2.838  16.968  0.6665  0.4197 -2.1714
 1636TIP3   OH226398   6.168   4.498  15.256  0.0023  0.1785  0.1069
 1636TIP3    H126399   6.143   4.440  15.329  1.3095 -2.3043 -1.3314
 1636TIP3    H226400   6.088   4.507  15.205 -0.2080 -0.4301  0.3146
 1637TIP3   OH226401   6.743   6.802   2.370  0.4794 -0.2227 -0.1871
 1637TIP3    H126402   6.716   6.849   2.291  1.5316  1.9921  0.7168
 1637TIP3    H226403   6.661   6.775   2.411 -0.0543 -2.6751 -2.7575
 1638TIP3   OH226404   0.503   1.020  15.666  0.5256  0.0939 -0.4914
 1638TIP3    H126405   0.575   0.964  15.638  0.0742  0.6007 -2.7839
 1638TIP3    H226406   0.469   0.978  15.745  2.0955 -1.1890 -0.4700
 1639TIP3   OH226407   3.418   2.055  15.222  0.4049 -0.0526  0.3650
 1639TIP3    H126408   3.425   1.963  15.196 -0.8256 -0.1173  0.2382
 1639TIP3    H226409   3.497   2.096  15.187  1.0882 -1.1099  0.6416
 1640TIP3   OH226410   2.737   2.180  14.563  0.1240  0.5268 -0.0580
 1640TIP3    H126411   2.716   2.086  14.567  0.7452  0.4151  0.7272
 1640TIP3    H226412   2.665   2.222  14.609 -0.5258  0.5064 -1.0290
 1641TIP3   OH226413   2.539   3.105  14.396  0.3740  0.2097 -0.0036
 1641TIP3    H126414   2.526   3.010  14.401  0.7966  0.1703  0.4060
 1641TIP3    H226415   2.510   3.128  14.308 -0.7460 -0.1330  0.2758
 1642TIP3   OH226416   4.377   2.991   0.452  0.7661  0.0280  0.0876
 1642TIP3    H126417   4.292   3.022   0.422  0.0542 -0.7369  1.2762
 1642TIP3    H226418   4.381   2.900   0.422  0.3033 -0.5562  1.7211
 1643TIP3   OH226419   2.666   4.480  16.465 -0.6577  0.0277 -0.9838
 1643TIP3    H126420   2.673   4.481  16.560 -1.4470 -0.5431 -0.9150
 1643TIP3    H226421   2.634   4.568  16.443 -2.1073 -0.3828 -0.5778
 1644TIP3   OH226422   5.895   5.787   5.594  0.3323 -0.1933 -0.3951
 1644TIP3    H126423   5.870   5.731   5.521 -0.2024  0.4840 -0.7370
 1644TIP3    H226424   5.870   5.875   5.567 -0.9340 -0.0728  1.0668
 1645TIP3   OH226425   2.335   4.673  13.787  0.3477  0.4646 -0.4076
 1645TIP3    H126426   2.406   4.735  13.805  1.7922 -1.0294 -0.7435
 1645TIP3    H226427   2.276   4.681  13.861  2.9691 -1.1177  1.9689
 1646TIP3   OH226428   1.255   2.394   1.392 -0.0631 -0.6844 -0.1457
 1646TIP3    H126429   1.321   2.325   1.386  0.3875 -0.3872  1.3326
 1646TIP3    H226430   1.235   2.416   1.301  0.7549 -1.8412 -0.6104
 1647TIP3   OH226431   1.429   5.161   4.686 -0.1097  0.6724 -0.1197
 1647TIP3    H126432   1.363   5.122   4.744 -0.5506 -0.2081 -1.1980
 1647TIP3    H226433   1.430   5.253   4.711  0.0017  0.2356  1.5753
 1648TIP3   OH226434   3.321   0.781   0.529  0.4828 -0.4927 -0.1634
 1648TIP3    H126435   3.315   0.710   0.593  1.7673 -1.2365 -0.8298
 1648TIP3    H226436   3.387   0.750   0.466  0.7939  1.1364 -0.6561
 1649TIP3   OH226437   3.689   0.923   0.208  0.6250  0.1023 -0.0063
 1649TIP3    H126438   3.769   0.962   0.172  0.8088  0.3865  0.7031
 1649TIP3    H226439   3.702   0.924   0.302  0.1279 -0.6078  0.0736
 1650TIP3   OH226440   4.992   1.887  15.118 -0.3119  0.0911  0.3795
 1650TIP3    H126441   4.910   1.855  15.155  0.2612  1.0044  2.5222
 1650TIP3    H226442   5.014   1.824  15.049 -3.3988  0.5238 -1.0572
 1651TIP3   OH226443   2.531   6.474  11.309 -0.0424 -0.1360  0.0890
 1651TIP3    H126444   2.445   6.514  11.300 -0.0712 -0.4538 -1.0889
 1651TIP3    H226445   2.515   6.393  11.358 -0.5387 -0.6061 -0.8377
 1652TIP3   OH226446   4.544   2.168  11.643 -0.1723  0.3029  0.0818
 1652TIP3    H126447   4.472   2.168  11.580 -0.2517  2.3571  0.1413
 1652TIP3    H226448   4.574   2.258  11.644  2.2698 -0.4876  0.2344
 1653TIP3   OH226449   5.920   5.269   6.487  0.0774 -0.2766 -0.0077
 1653TIP3    H126450   5.962   5.349   6.517  1.2572 -1.3506  1.2786
 1653TIP3    H226451   5.988   5.222   6.440 -1.0392  0.1668 -2.1415
 1654TIP3   OH226452   1.814   5.906  15.761  0.2630  0.5779 -0.2266
 1654TIP3    H126453   1.837   5.990  15.801  1.0141  0.7860 -1.0773
 1654TIP3    H226454   1.862   5.906  15.678 -0.3521 -0.3548 -0.5811
 1655TIP3   OH226455   2.702   6.443   5.805  0.0742  0.0725  0.2329
 1655TIP3    H126456   2.735   6.446   5.895 -0.8247  1.1562  0.5375
 1655TIP3    H226457   2.669   6.354   5.795 -0.2135  0.0667  1.1236
 1656TIP3   OH226458   0.993   0.315  10.738  0.4980  0.0663 -0.2096
 1656TIP3    H126459   1.018   0.302  10.829  0.0160 -0.3672 -0.1320
 1656TIP3    H226460   0.898   0.326  10.741  0.5719  0.7779 -0.5854
 1657TIP3   OH226461   4.304   1.440   3.100  0.0977  1.0431  0.1706
 1657TIP3    H126462   4.287   1.361   3.049 -1.9087  1.1796  0.5985
 1657TIP3    H226463   4.292   1.413   3.191  0.3280  1.6213  0.3760
 1658TIP3   OH226464   1.283   4.746  16.384 -0.4682 -0.5502 -0.1778
 1658TIP3    H126465   1.217   4.799  16.340  0.4805  1.6685  0.9668
 1658TIP3    H226466   1.340   4.715  16.314 -0.5644  0.6459 -0.7984
 1659TIP3   OH226467   2.905   1.753  14.757  0.5875 -0.1029  0.1285
 1659TIP3    H126468   2.911   1.665  14.795  2.5690 -0.4747 -0.9768
 1659TIP3    H226469   2.838   1.746  14.690  0.3700 -0.6384  0.3997
 1660TIP3   OH226470   0.102   0.229   1.129 -0.4102  0.8358  0.1036
 1660TIP3    H126471   0.038   0.226   1.200  1.7054  0.4329  2.0435
 1660TIP3    H226472   0.082   0.152   1.076 -1.0623  0.3004  1.1104
 1661TIP3   OH226473   0.548   4.735  12.657 -0.4037  0.4028  0.4733
 1661TIP3    H126474   0.612   4.789  12.704 -0.2663  0.3317  0.3703
 1661TIP3    H226475   0.474   4.793  12.641  0.6002  1.1684 -1.5025
 1662TIP3   OH226476   4.047   5.454  12.728  0.0167 -0.0137  0.3544
 1662TIP3    H126477   4.060   5.468  12.822 -1.0480 -0.4332  0.5705
 1662TIP3    H226478   4.017   5.538  12.695  1.6890  0.5141  0.1368
 1663TIP3   OH226479   2.912   4.768   1.183 -0.0466 -0.1350 -0.3661
 1663TIP3    H126480   3.000   4.730   1.178 -0.9721 -2.5159  0.5984
 1663TIP3    H226481   2.925   4.853   1.224  1.6439 -1.0724  1.0975
 1664TIP3   OH226482   3.341   4.691   1.382 -0.0153 -0.3798 -0.6311
 1664TIP3    H126483   3.423   4.702   1.334 -1.1401  0.4076 -2.4567
 1664TIP3    H226484   3.299   4.777   1.376 -0.4793 -0.4566  1.2481
 1665TIP3   OH226485   2.775   2.051  15.908 -0.2886  0.6208  0.8161
 1665TIP3    H126486   2.693   2.080  15.869 -1.2815 -0.6585  1.9297
 1665TIP3    H226487   2.836   2.046  15.834 -1.2799  1.3057 -0.0577
 1666TIP3   OH226488   3.558   5.462   5.208 -0.0342 -0.1268 -0.0227
 1666TIP3    H126489   3.544   5.552   5.237  0.3729 -1.0099  3.0906
 1666TIP3    H226490   3.521   5.408   5.278  1.8886 -2.4070 -0.7041
 1667TIP3   OH226491   3.457   6.731   2.963  0.3822  0.5673  0.0446
 1667TIP3    H126492   3.518   6.708   3.034 -0.6339  0.2697  0.8339
 1667TIP3    H226493   3.397   6.794   3.002 -0.2876  0.2801 -0.5075
 1668TIP3   OH226494   2.536   6.785   3.261 -0.2779  0.6311 -0.0158
 1668TIP3    H126495   2.537   6.703   3.212 -0.4558  1.6386 -1.7884
 1668TIP3    H226496   2.455   6.828   3.233  0.1784  1.7344  0.3217
 1669TIP3   OH226497   6.246   0.163   0.993  0.3112 -0.1413  0.3388
 1669TIP3    H126498   6.222   0.145   1.084 -2.9519  0.1405 -0.4199
 1669TIP3    H226499   6.249   0.259   0.988  0.5370 -0.1569  0.1403
 1670TIP3   OH226500   5.879   5.860  14.413 -0.6231  0.0163  0.1057
 1670TIP3    H126501   5.821   5.854  14.337 -0.0632  0.1882 -0.3350
 1670TIP3    H226502   5.871   5.775  14.456 -1.7091  0.2709  0.4158
 1671TIP3   OH226503   5.128   2.039  14.362  0.5833 -0.0514 -0.0898
 1671TIP3    H126504   5.176   1.963  14.394 -0.9257 -1.1117 -0.2891
 1671TIP3    H226505   5.111   2.092  14.440  2.0247  0.3035 -0.0176
 1672TIP3   OH226506   4.874   4.749  15.506  0.6321  0.2631  0.4593
 1672TIP3    H126507   4.906   4.779  15.421 -2.1949  0.2753 -0.6542
 1672TIP3    H226508   4.929   4.673  15.527  0.2006 -0.8612 -2.2616
 1673TIP3   OH226509   1.332   5.254   5.477 -0.6937  0.3211 -0.4348
 1673TIP3    H126510   1.335   5.253   5.573 -0.9940 -2.0405 -0.4191
 1673TIP3    H226511   1.420   5.228   5.451 -0.0526  2.8332 -0.8390
 1674TIP3   OH226512   5.137   2.680   4.974 -0.2750  0.5820 -0.2268
 1674TIP3    H126513   5.228   2.695   4.948 -0.4359 -0.0511 -1.1984
 1674TIP3    H226514   5.109   2.606   4.920 -1.2445  0.5205  0.3507
 1675TIP3   OH226515   1.082   0.327   0.453 -0.3848 -0.1552 -0.1787
 1675TIP3    H126516   1.066   0.312   0.360 -1.3074 -0.2512 -0.0076
 1675TIP3    H226517   1.045   0.250   0.497 -0.4781  0.1600  0.3042
 1676TIP3   OH226518   5.280   4.898   5.091 -0.5481  0.4226  0.2499
 1676TIP3    H126519   5.194   4.882   5.052 -0.7066  1.0375  0.3531
 1676TIP3    H226520   5.337   4.835   5.048 -0.7114  1.1399 -1.0268
 1677TIP3   OH226521   1.412   5.620   0.636 -0.0824  0.5300  0.2085
 1677TIP3    H126522   1.369   5.590   0.716  0.8338  0.5021  0.6962
 1677TIP3    H226523   1.403   5.547   0.575 -2.2949  1.1949 -0.3014
 1678TIP3   OH226524   1.637   0.575   4.428  0.0640  0.5562  0.1412
 1678TIP3    H126525   1.696   0.574   4.353  0.3049  1.3566  0.3150
 1678TIP3    H226526   1.550   0.587   4.390  0.1573  0.6955 -0.0319
 1679TIP3   OH226527   1.494   3.471   4.761 -0.0836  0.2122  0.6061
 1679TIP3    H126528   1.466   3.382   4.736 -0.2655  0.5009 -0.2463
 1679TIP3    H226529   1.426   3.528   4.724  0.3767  0.7495  0.5930
 1680TIP3   OH226530   3.334   5.981  12.784 -0.2232 -0.0722  0.0658
 1680TIP3    H126531   3.251   5.974  12.736 -0.3260  0.0983  0.2166
 1680TIP3    H226532   3.313   5.950  12.872  1.1206 -5.1561 -1.2833
 1681TIP3   OH226533   0.543   5.371  16.105  0.0249 -0.3254 -0.2954
 1681TIP3    H126534   0.576   5.309  16.170  0.9040 -0.4388 -0.8478
 1681TIP3    H226535   0.613   5.435  16.096 -1.0206  0.9705  0.5403
 1682TIP3   OH226536   6.132   2.082  13.966  0.0579 -0.1839  0.1225
 1682TIP3    H126537   6.070   2.154  13.976 -0.5478 -0.7038  0.0959
 1682TIP3    H226538   6.097   2.029  13.895  0.2827 -0.7410  0.4254
 1683TIP3   OH226539   3.193   0.735   3.938  0.0662 -0.3753  0.0963
 1683TIP3    H126540   3.184   0.824   3.903  1.6274 -0.5668 -0.8454
 1683TIP3    H226541   3.235   0.747   4.023 -0.9838 -0.1253  0.5897
 1684TIP3   OH226542   3.309   0.604  15.671 -0.2117  0.4724  0.1219
 1684TIP3    H126543   3.279   0.574  15.585 -0.5354  1.8607 -0.2757
 1684TIP3    H226544   3.323   0.698  15.659  1.4902  0.3519  1.1040
 1685TIP3   OH226545   6.650   4.638   5.545 -0.1215 -0.1131 -0.2127
 1685TIP3    H126546   6.730   4.662   5.500  0.2449  0.3755  0.6818
 1685TIP3    H226547   6.662   4.670   5.635 -2.1654  1.8744 -0.5917
 1686TIP3   OH226548   1.187   3.929   1.856  0.0170  0.2658  0.5101
 1686TIP3    H126549   1.271   3.884   1.865 -0.1059  0.3184  2.2489
 1686TIP3    H226550   1.134   3.894   1.928 -2.5029 -1.9912 -2.3237
 1687TIP3   OH226551   3.533   0.510  12.444  0.1482  0.4949 -0.4517
 1687TIP3    H126552   3.463   0.469  12.495  1.0610  0.5420  0.8732
 1687TIP3    H226553   3.572   0.437  12.395 -0.5651  0.4039 -0.8967
 1688TIP3   OH226554   0.215   3.493   1.108 -0.1894  0.5286  0.4845
 1688TIP3    H126555   0.248   3.576   1.143  0.1316  0.4971  0.2545
 1688TIP3    H226556   0.141   3.472   1.165 -0.9565  1.5297 -0.1331
 1689TIP3   OH226557   1.305   1.617   2.421  0.4722  0.4257 -0.4520
 1689TIP3    H126558   1.219   1.583   2.445  0.1047  1.9214  0.4860
 1689TIP3    H226559   1.286   1.697   2.372  1.3163  0.3917 -0.8386
 1690TIP3   OH226560   4.890   6.320  13.651 -0.3744  0.2837 -0.0018
 1690TIP3    H126561   4.842   6.249  13.695 -0.4308  0.7960  0.7747
 1690TIP3    H226562   4.835   6.343  13.576 -1.0335  0.4241  0.5145
 1691TIP3   OH226563   4.629   2.081   0.743  0.2019  0.1506 -0.0294
 1691TIP3    H126564   4.548   2.130   0.761  0.0635 -0.6348  1.5125
 1691TIP3    H226565   4.602   1.989   0.744  1.0256 -0.0932 -0.0300
 1692TIP3   OH226566   5.284   3.315   0.755 -0.0326 -0.1134  0.0654
 1692TIP3    H126567   5.252   3.262   0.828  1.0000 -2.4186 -1.1073
 1692TIP3    H226568   5.247   3.273   0.677 -0.1110  1.5831 -0.8413
 1693TIP3   OH226569   2.248   2.962  10.774  0.4169 -0.3210 -0.0859
 1693TIP3    H126570   2.181   3.005  10.720  0.1406 -2.3419 -1.4181
 1693TIP3    H226571   2.330   3.003  10.748  0.3943 -1.8260 -2.7083
 1694TIP3   OH226572   0.349   0.565  11.956 -0.0878 -0.0597 -0.4023
 1694TIP3    H126573   0.289   0.504  11.999 -0.5343  0.2751 -0.5411
 1694TIP3    H226574   0.291   0.629  11.914  0.3937  1.1992  0.8261
 1695TIP3   OH226575   3.043   3.597  11.180  0.5612 -0.2529 -0.6035
 1695TIP3    H126576   3.065   3.545  11.102  1.8740  0.8687 -1.0047
 1695TIP3    H226577   3.011   3.680  11.145  0.2093 -0.1179  0.0421
 1696TIP3   OH226578   6.424   6.282   3.433  0.4406  0.4171  0.2227
 1696TIP3    H126579   6.435   6.275   3.528  0.2936  1.2483  0.3065
 1696TIP3    H226580   6.502   6.329   3.403 -1.1841  3.3483  0.3978
 1697TIP3   OH226581   4.130   2.496  10.851 -0.4068  0.0706  0.2134
 1697TIP3    H126582   4.136   2.500  10.755 -0.7023 -1.6023  0.1124
 1697TIP3    H226583   4.193   2.429  10.876  0.3331  1.1490  1.2892
 1698TIP3   OH226584   0.450   6.050  15.364 -0.0974  0.7551 -1.0214
 1698TIP3    H126585   0.479   6.062  15.274  0.7646  1.2962 -0.6801
 1698TIP3    H226586   0.444   6.139  15.400  1.4547  0.4578  0.0287
 1699TIP3   OH226587   1.077   6.762   2.473 -0.2452  0.1341  0.1368
 1699TIP3    H126588   1.031   6.736   2.553 -1.5384  2.0008  0.0143
 1699TIP3    H226589   1.167   6.778   2.502 -0.7739  1.0621  1.2692
 1700TIP3   OH226590   6.533   5.630   2.824 -0.2247 -0.3036  0.1851
 1700TIP3    H126591   6.504   5.704   2.877  0.2699  0.9042 -1.2227
 1700TIP3    H226592   6.463   5.616   2.761 -0.0051 -0.5795 -0.0007
 1701TIP3   OH226593   6.685   4.494  10.323 -0.2861 -0.0292 -0.4709
 1701TIP3    H126594   6.754   4.437  10.357 -0.0956  0.7814  0.5245
 1701TIP3    H226595   6.605   4.443  10.333  0.1680 -1.0175 -1.7269
 1702TIP3   OH226596   6.534   3.574   1.212 -0.2420 -0.7227  0.2634
 1702TIP3    H126597   6.464   3.525   1.254 -0.5685  0.2792  0.9161
 1702TIP3    H226598   6.506   3.666   1.217  0.6703 -0.3999 -0.3123
 1703TIP3   OH226599   2.758   1.284  11.883 -0.7034 -0.0712  0.0581
 1703TIP3    H126600   2.757   1.378  11.862 -1.2448  0.4135  2.1953
 1703TIP3    H226601   2.732   1.241  11.801 -0.6476  1.6518 -0.8811
 1704TIP3   OH226602   1.544   5.060   4.419  0.0213 -0.8253 -0.0963
 1704TIP3    H126603   1.512   5.067   4.508 -0.4943  0.2163 -0.3653
 1704TIP3    H226604   1.638   5.044   4.429  0.3380  1.3221  0.6158
 1705TIP3   OH226605   2.499   0.109   1.411  0.2347 -0.3608  0.2288
 1705TIP3    H126606   2.536   0.106   1.322  2.8892 -0.5617  1.2764
 1705TIP3    H226607   2.464   0.021   1.425 -0.2080 -0.3243 -0.6283
 1706TIP3   OH226608   5.187   5.380   0.184  0.2392 -0.0958  0.4745
 1706TIP3    H126609   5.217   5.469   0.205  1.1637 -0.0103 -1.1531
 1706TIP3    H226610   5.159   5.385   0.093 -1.5348 -1.0191  0.9624
 1707TIP3   OH226611   4.432   5.032  10.773  0.2779  0.9341  0.9227
 1707TIP3    H126612   4.476   5.073  10.699  2.0647  1.8917  2.4846
 1707TIP3    H226613   4.366   5.095  10.800  0.8153  1.3595  1.2501
 1708TIP3   OH226614   1.557   0.864  13.109  0.3000 -0.8330  0.0031
 1708TIP3    H126615   1.494   0.836  13.176 -1.1025  4.4183  1.0906
 1708TIP3    H226616   1.504   0.879  13.031  1.0443 -1.2890 -0.5989
 1709TIP3   OH226617   3.188   2.942   6.158  0.4673  0.2836  0.0741
 1709TIP3    H126618   3.221   3.022   6.200  2.3339  0.9610 -2.5622
 1709TIP3    H226619   3.265   2.886   6.149 -0.2747 -0.6295 -0.6983
 1710TIP3   OH226620   2.508   2.517   3.088 -0.5280  0.4231 -0.0467
 1710TIP3    H126621   2.473   2.575   3.020  2.2913  2.3028  0.0284
 1710TIP3    H226622   2.524   2.434   3.042 -0.3461  1.1180 -1.2669
 1711TIP3   OH226623   2.100   3.099  15.150 -0.3098  0.0543  0.1741
 1711TIP3    H126624   2.167   3.111  15.217 -0.0450 -1.3136  0.1644
 1711TIP3    H226625   2.146   3.055  15.078 -0.7961  0.7203 -0.5596
 1712TIP3   OH226626   1.508   2.431  13.522 -0.1041  0.2035  0.0318
 1712TIP3    H126627   1.483   2.356  13.577  0.2355 -0.0383 -0.1400
 1712TIP3    H226628   1.431   2.488  13.523 -0.1873  0.0851  0.5641
 1713TIP3   OH226629   5.706   3.103  17.036  0.4080 -0.7978 -0.8522
 1713TIP3    H126630   5.667   3.073  17.119  0.0627  0.3906 -0.5741
 1713TIP3    H226631   5.734   3.193  17.054 -0.0872 -0.3642 -2.1618
 1714TIP3   OH226632   3.249   1.624   4.986  0.2311  0.0309 -0.1221
 1714TIP3    H126633   3.320   1.673   5.029  0.3834  2.2196 -2.7344
 1714TIP3    H226634   3.182   1.691   4.969 -1.3877 -1.5304  0.0412
 1715TIP3   OH226635   6.221   2.526   5.750  0.7596  0.0548 -0.3682
 1715TIP3    H126636   6.153   2.508   5.816  1.4710  0.5935  0.5359
 1715TIP3    H226637   6.184   2.597   5.697 -0.1425 -0.9167 -1.0476
 1716TIP3   OH226638   0.111   4.538  13.039  0.6814  0.5777 -0.1355
 1716TIP3    H126639   0.084   4.613  13.093  0.4561  1.6954 -1.7730
 1716TIP3    H226640   0.148   4.578  12.960 -2.6591 -1.0352 -2.6444
 1717TIP3   OH226641   0.709   5.227   1.284  0.0514  0.3814  0.1141
 1717TIP3    H126642   0.756   5.144   1.291 -1.8372 -0.6183  1.6925
 1717TIP3    H226643   0.691   5.238   1.191 -1.1662 -1.8864  0.0438
 1718TIP3   OH226644   1.589   0.141   2.537  0.7049 -0.2290 -0.0004
 1718TIP3    H126645   1.581   0.230   2.569 -1.6558 -0.7307  0.8622
 1718TIP3    H226646   1.663   0.104   2.586  1.5228  1.1442 -0.1764
 1719TIP3   OH226647   6.206   5.638  12.003  0.9090  0.1375 -0.2040
 1719TIP3    H126648   6.189   5.731  12.018 -1.6115 -0.3970  0.4774
 1719TIP3    H226649   6.299   5.627  12.022  0.5320  1.9225  2.8724
 1720TIP3   OH226650   4.739   5.224  12.856 -0.1130 -0.1413  0.3151
 1720TIP3    H126651   4.817   5.231  12.911 -0.1134  0.3248  0.2608
 1720TIP3    H226652   4.769   5.182  12.776 -0.0918 -0.7315  0.6310
 1721TIP3   OH226653   1.622   1.583   4.637 -0.3064 -0.1858 -0.1050
 1721TIP3    H126654   1.610   1.646   4.708 -1.0989 -0.2488 -0.1885
 1721TIP3    H226655   1.697   1.530   4.666  0.1518  0.5632  0.1210
 1722TIP3   OH226656   6.784   2.037  14.668 -0.1066  0.3115 -0.5226
 1722TIP3    H126657   6.791   2.045  14.763 -1.5582  0.1273 -0.3823
 1722TIP3    H226658   6.690   2.044  14.651 -0.0268 -1.4328 -1.7705
 1723TIP3   OH226659   6.746   5.476  12.191 -0.2562 -0.2071 -0.0174
 1723TIP3    H126660   6.831   5.519  12.183 -0.3865  0.0376 -0.0732
 1723TIP3    H226661   6.765   5.383  12.175  0.1688 -0.2986  0.9284
 1724TIP3   OH226662   1.809   0.508   4.235 -0.2600  0.1980  0.1226
 1724TIP3    H126663   1.904   0.494   4.241 -0.6178 -1.8837  1.4182
 1724TIP3    H226664   1.793   0.516   4.141  1.0077 -0.9690 -0.2179
 1725TIP3   OH226665   5.405   5.352   1.554 -0.7171 -0.6256  0.1368
 1725TIP3    H126666   5.389   5.260   1.576 -0.9307 -0.5667  0.2271
 1725TIP3    H226667   5.433   5.349   1.462 -0.5402 -0.7967  0.1947
 1726TIP3   OH226668   3.174   5.341   1.822 -0.0554 -0.1571 -0.4608
 1726TIP3    H126669   3.098   5.293   1.790 -0.0581 -0.5737  0.1743
 1726TIP3    H226670   3.226   5.276   1.869 -0.6451  0.6865  1.4083
 1727TIP3   OH226671   0.670   1.158   0.113 -0.1486 -0.2566  0.2123
 1727TIP3    H126672   0.741   1.093   0.108 -1.3874 -1.5949 -0.4254
 1727TIP3    H226673   0.625   1.138   0.196 -1.1777 -0.9152 -0.4906
 1728TIP3   OH226674   3.344   1.822  16.426  0.1410  0.5220  0.3536
 1728TIP3    H126675   3.340   1.765  16.503 -0.2001  0.7175  0.4822
 1728TIP3    H226676   3.353   1.910  16.462  1.8908  0.4459  0.1310
 1729TIP3   OH226677   0.515   5.393   4.427 -0.8160  0.1442  0.1772
 1729TIP3    H126678   0.544   5.484   4.434  0.0686 -0.0736 -0.5136
 1729TIP3    H226679   0.463   5.391   4.347  1.4117 -0.5148 -1.3035
 1730TIP3   OH226680   1.395   0.878   1.984  0.1464 -0.3915 -0.0880
 1730TIP3    H126681   1.392   0.846   1.894 -0.2903 -0.6012  0.0020
 1730TIP3    H226682   1.476   0.841   2.020  1.2787  1.1497 -0.9415
 1731TIP3   OH226683   2.797   6.270   2.754 -0.1603  0.1156 -0.4486
 1731TIP3    H126684   2.885   6.307   2.749 -0.1935  0.4521  1.1428
 1731TIP3    H226685   2.743   6.329   2.702  0.3973  0.4243 -0.6718
 1732TIP3   OH226686   5.027   1.228   3.138 -0.2556  0.6942 -0.4524
 1732TIP3    H126687   5.028   1.133   3.144 -0.9543  0.7550  0.6852
 1732TIP3    H226688   5.119   1.252   3.127  0.0807 -0.0107  0.8143
 1733TIP3   OH226689   1.056   6.195  16.630  0.2642 -0.4550 -0.0122
 1733TIP3    H126690   1.111   6.157  16.562  0.8184  2.4214 -1.2572
 1733TIP3    H226691   1.001   6.123  16.660  1.0627 -2.1349 -2.4433
 1734TIP3   OH226692   4.964   5.279  12.992  0.0220  0.0277 -0.3649
 1734TIP3    H126693   5.040   5.301  12.938  0.2059  2.2793  0.7576
 1734TIP3    H226694   4.981   5.323  13.076 -1.7106 -0.8770  0.4823
 1735TIP3   OH226695   6.406   6.535   5.233  0.4535 -0.2672 -0.0062
 1735TIP3    H126696   6.445   6.473   5.293  0.6517  0.1871  0.3381
 1735TIP3    H226697   6.413   6.620   5.278 -0.2388 -0.0697 -0.2649
 1736TIP3   OH226698   1.650   5.538   6.594  0.1116 -0.3594  0.1329
 1736TIP3    H126699   1.600   5.601   6.542  0.8654 -1.5593 -2.1023
 1736TIP3    H226700   1.740   5.549   6.564  0.7652 -0.1917  2.1207
 1737TIP3   OH226701   1.442   4.953  11.795  0.5596  0.4588  0.0036
 1737TIP3    H126702   1.471   5.043  11.813  1.3450  0.6663 -2.0931
 1737TIP3    H226703   1.517   4.913  11.750 -0.5489 -0.5841 -0.9541
 1738TIP3   OH226704   0.066   1.289  16.918  0.1565 -0.6467  0.3265
 1738TIP3    H126705  -0.003   1.284  16.984 -1.8141 -0.7925 -1.7005
 1738TIP3    H226706   0.020   1.291  16.835  2.5938  0.0223 -1.0538
 1739TIP3   OH226707   4.695   5.607   1.340 -0.1030  0.2370 -0.2983
 1739TIP3    H126708   4.782   5.598   1.378  0.3368  3.3971 -0.4279
 1739TIP3    H226709   4.643   5.538   1.382  1.7750  0.0868  1.8556
 1740TIP3   OH226710   2.780   0.551  13.019  1.3702 -0.1668 -0.3693
 1740TIP3    H126711   2.763   0.645  13.011  1.4375 -0.2264 -1.1884
 1740TIP3    H226712   2.757   0.531  13.110  0.6259  0.4893 -0.4058
 1741TIP3   OH226713   1.398   1.381  13.240 -0.0208 -0.2568  0.2802
 1741TIP3    H126714   1.465   1.321  13.209 -0.5592 -0.7321  0.0328
 1741TIP3    H226715   1.350   1.333  13.307 -0.3229 -0.0412  0.2243
 1742TIP3   OH226716   5.288   1.850  15.825 -0.1328 -0.1050 -0.0376
 1742TIP3    H126717   5.255   1.891  15.744  1.0455 -1.5076 -1.2569
 1742TIP3    H226718   5.209   1.829  15.875 -0.9010  0.4179 -1.0027
 1743TIP3   OH226719   3.616   0.882   2.269 -0.2677  0.8371 -0.2638
 1743TIP3    H126720   3.669   0.905   2.192  0.5291 -0.9988 -0.3025
 1743TIP3    H226721   3.566   0.806   2.242  1.0340 -0.6826  1.4296
 1744TIP3   OH226722   3.721   3.186  16.004  0.3219  0.0483  0.6872
 1744TIP3    H126723   3.790   3.230  15.954  0.5377  0.0113  0.9515
 1744TIP3    H226724   3.729   3.094  15.981 -0.3843  0.1932 -0.1720
 1745TIP3   OH226725   2.929   0.147   1.978  0.1523 -0.3698 -0.5360
 1745TIP3    H126726   2.990   0.219   1.962  0.6062 -0.5355  0.4461
 1745TIP3    H226727   2.844   0.189   1.985  0.4828  0.1242  0.5219
 1746TIP3   OH226728   5.443   2.803  12.854  0.4205  0.3374  0.0736
 1746TIP3    H126729   5.507   2.757  12.799  0.3715 -0.7872  0.9521
 1746TIP3    H226730   5.470   2.895  12.850  0.1243  0.3536 -2.2432
 1747TIP3   OH226731   0.987   2.572   3.231 -0.6714 -0.3955  0.0544
 1747TIP3    H126732   1.011   2.664   3.218 -1.5954 -0.1659 -0.0773
 1747TIP3    H226733   0.924   2.574   3.303  1.1011 -1.1881  1.6817
 1748TIP3   OH226734   3.526   6.591   0.289 -0.0584  0.1633  0.0902
 1748TIP3    H126735   3.515   6.599   0.195 -1.3237  0.7422  0.2764
 1748TIP3    H226736   3.499   6.676   0.324  0.9313  0.1403  0.9312
 1749TIP3   OH226737   5.504   5.458   2.895  0.1628 -0.2643  0.1004
 1749TIP3    H126738   5.538   5.543   2.866  1.4389 -0.6019  0.5782
 1749TIP3    H226739   5.574   5.396   2.875 -1.1869 -1.3966 -1.2429
 1750TIP3   OH226740   1.334   6.029  16.936  0.0860 -0.2524  0.3803
 1750TIP3    H126741   1.407   5.970  16.955  0.6838 -0.4806 -2.3715
 1750TIP3    H226742   1.268   6.007  17.000  2.1862 -0.4847  2.5444
 1751TIP3   OH226743   2.446   5.355  14.778  0.2667 -0.2369  0.5143
 1751TIP3    H126744   2.500   5.424  14.739  0.5513 -1.2702 -0.9726
 1751TIP3    H226745   2.493   5.328  14.856  0.7114  0.4854  0.5023
 1752TIP3   OH226746   2.026   0.392  14.008 -0.6832 -0.2104  0.1169
 1752TIP3    H126747   1.940   0.366  13.974 -1.1883  0.3148  0.9832
 1752TIP3    H226748   2.058   0.315  14.056 -1.2034  0.0110  0.8181
 1753TIP3   OH226749   6.430   5.230  13.456  1.1037 -0.1919  0.5641
 1753TIP3    H126750   6.341   5.231  13.491  1.2818  1.0425  1.0007
 1753TIP3    H226751   6.447   5.320  13.429  2.4029 -0.3072  0.9357
 1754TIP3   OH226752   1.729   1.542  12.058 -0.0541 -0.1017 -0.4495
 1754TIP3    H126753   1.668   1.539  12.132 -1.0669  1.3533 -1.1987
 1754TIP3    H226754   1.800   1.483  12.083 -0.7709 -0.2366  1.3307
 1755TIP3   OH226755   6.402   3.382  11.278 -0.1888 -0.3271  0.3119
 1755TIP3    H126756   6.390   3.293  11.311  3.0052 -0.5288  1.1216
 1755TIP3    H226757   6.324   3.399  11.226 -1.0447 -3.4491  0.4598
 1756TIP3   OH226758   3.076   2.962   1.600  0.2641  0.2029 -0.5787
 1756TIP3    H126759   2.986   2.956   1.632  0.9678 -1.0580  1.2193
 1756TIP3    H226760   3.119   2.883   1.632  1.8399  0.4362 -2.0283
 1757TIP3   OH226761   6.384   3.128  13.069 -0.0595  0.6088  0.1218
 1757TIP3    H126762   6.344   3.106  13.153  2.0595 -0.9898  0.7761
 1757TIP3    H226763   6.477   3.107  13.081  0.0420 -1.0714 -3.0866
 1758TIP3   OH226764   5.881   2.801  13.018  0.3795  0.4264 -0.0571
 1758TIP3    H126765   5.842   2.752  13.089  1.5107  0.2440  0.4416
 1758TIP3    H226766   5.846   2.760  12.938 -0.8507  0.6108  0.3793
 1759TIP3   OH226767   3.870   6.398  14.157  0.0458 -1.0664  0.2889
 1759TIP3    H126768   3.836   6.451  14.229  2.3757 -0.5222  1.0090
 1759TIP3    H226769   3.948   6.357  14.192  1.4510 -0.4562 -2.0463
 1760TIP3   OH226770   3.146   4.730  15.746 -0.1008  0.5335 -0.7372
 1760TIP3    H126771   3.136   4.696  15.657  0.4047  0.0076 -0.5995
 1760TIP3    H226772   3.064   4.707  15.790 -0.7547  1.6688 -1.3449
 1761TIP3   OH226773   1.508   4.363  16.804 -0.9290  0.2157 -0.1564
 1761TIP3    H126774   1.446   4.427  16.838  0.3817  1.9460 -0.9873
 1761TIP3    H226775   1.587   4.375  16.857 -0.2580  0.1339 -1.1249
 1762TIP3   OH226776   2.600   5.775  16.220  0.1962 -0.1687 -0.3089
 1762TIP3    H126777   2.645   5.802  16.140  0.3874 -1.7984 -0.7785
 1762TIP3    H226778   2.514   5.746  16.190  0.0965 -0.3392  0.1410
 1763TIP3   OH226779   5.942   4.609   5.857  0.8165  0.0275 -0.1359
 1763TIP3    H126780   5.924   4.645   5.944  0.5934 -0.4238  0.0060
 1763TIP3    H226781   5.861   4.621   5.809  0.9559  0.3232 -0.3006
 1764TIP3   OH226782   3.100   3.096  11.752  0.2626 -0.5326 -0.0292
 1764TIP3    H126783   3.077   3.176  11.705  0.3109 -0.6062 -0.1781
 1764TIP3    H226784   3.034   3.089  11.821  1.1306  0.4262  0.9033
 1765TIP3   OH226785   2.476   6.721  15.395 -0.0319 -0.2705  0.4690
 1765TIP3    H126786   2.430   6.658  15.451 -0.0311 -0.2095  0.5387
 1765TIP3    H226787   2.527   6.773  15.457  0.2356 -0.4256  0.3800
 1766TIP3   OH226788   5.772   0.722   3.476 -0.0324  0.0432  0.1210
 1766TIP3    H126789   5.811   0.682   3.554  0.0436  0.2720  0.1998
 1766TIP3    H226790   5.790   0.815   3.485  0.6688 -0.0197 -0.5593
 1767TIP3   OH226791   6.574   3.250  12.720  0.6683  0.1269 -0.1887
 1767TIP3    H126792   6.559   3.266  12.813  3.2671  0.5855  0.2027
 1767TIP3    H226793   6.568   3.155  12.711 -0.5269  0.1500  0.2490
 1768TIP3   OH226794   1.347   0.098  15.565  0.2527  0.4602 -0.2913
 1768TIP3    H126795   1.404   0.026  15.595  1.1467  2.6825  3.6284
 1768TIP3    H226796   1.263   0.056  15.548  1.1490 -1.7414  0.4653
 1769TIP3   OH226797   5.366   5.660  14.447  0.0741  0.1100  0.2194
 1769TIP3    H126798   5.297   5.650  14.381 -0.9196 -0.0421  1.2527
 1769TIP3    H226799   5.325   5.712  14.517  0.2717 -1.8782  1.8594
 1770TIP3   OH226800   2.747   2.348  16.019  0.6613  0.0714 -0.6432
 1770TIP3    H126801   2.769   2.404  16.093  0.6285 -0.8502  0.0645
 1770TIP3    H226802   2.819   2.361  15.957  0.1889  1.6075 -0.8995
 1771TIP3   OH226803   5.235   2.467  16.691 -0.2437 -0.4453 -0.2000
 1771TIP3    H126804   5.210   2.516  16.769  0.6178  1.3242 -1.0186
 1771TIP3    H226805   5.245   2.533  16.623  0.7714 -1.7785 -1.3695
 1772TIP3   OH226806   4.224   6.447  11.570  0.1830  0.4701  0.8309
 1772TIP3    H126807   4.156   6.394  11.612  1.4432 -0.9692  1.1163
 1772TIP3    H226808   4.205   6.537  11.596 -0.5037 -0.1282  2.4389
 1773TIP3   OH226809   0.411   6.099  16.139 -0.8093 -0.0707  0.0837
 1773TIP3    H126810   0.408   6.193  16.159  3.2621  0.2344 -0.4000
 1773TIP3    H226811   0.440   6.058  16.220  0.8692 -0.5180 -0.7355
 1774TIP3   OH226812   3.751   0.763   4.638  0.4349 -0.1791 -0.2314
 1774TIP3    H126813   3.785   0.683   4.678  1.9132  0.7119  0.3334
 1774TIP3    H226814   3.786   0.834   4.692  0.2784  0.9099 -1.5355
 1775TIP3   OH226815   1.857   0.760   0.560 -0.2746  0.0224  0.2873
 1775TIP3    H126816   1.901   0.676   0.546  2.0000  1.2551 -0.1485
 1775TIP3    H226817   1.866   0.776   0.654 -0.9632 -0.3297  0.4213
 1776TIP3   OH226818   3.244   0.388   4.246  0.0090  0.1837  0.1172
 1776TIP3    H126819   3.326   0.357   4.285  0.1661  0.8595  0.3267
 1776TIP3    H226820   3.266   0.473   4.208 -0.2464 -0.2742 -1.0774
 1777TIP3   OH226821   4.542   2.629  11.820  0.3036 -0.0463 -0.0209
 1777TIP3    H126822   4.603   2.591  11.757  1.6125  0.4627  0.9258
 1777TIP3    H226823   4.526   2.717  11.787 -1.0023 -0.6379 -1.0104
 1778TIP3   OH226824   3.537   3.376  11.116  0.5423  0.0376  0.5584
 1778TIP3    H126825   3.441   3.381  11.106  0.7723  1.6827 -1.2281
 1778TIP3    H226826   3.568   3.349  11.030  1.7883  1.1011  0.6577
 1779TIP3   OH226827   2.434   3.589  15.410  0.8110  0.4897  0.4212
 1779TIP3    H126828   2.434   3.567  15.317 -1.0670  1.0993  0.2438
 1779TIP3    H226829   2.482   3.671  15.415 -1.7240  2.0963 -0.4824
 1780TIP3   OH226830   2.294   5.188   3.035 -0.4770  0.2898  0.0345
 1780TIP3    H126831   2.294   5.268   2.982 -0.3332  1.4814  1.7706
 1780TIP3    H226832   2.202   5.172   3.053 -0.4355  0.8323  0.7721
 1781TIP3   OH226833   3.502   1.158  15.954 -0.2480  0.1192  0.1811
 1781TIP3    H126834   3.517   1.171  15.860 -0.0696 -0.9548  0.0506
 1781TIP3    H226835   3.436   1.089  15.958  0.4944 -0.5650  0.8471
 1782TIP3   OH226836   5.929   4.809  12.243  0.4230  0.4600  0.2894
 1782TIP3    H126837   5.918   4.715  12.261  0.1975  0.3137 -0.5935
 1782TIP3    H226838   5.880   4.852  12.313 -0.5112 -0.0994 -0.0137
 1783TIP3   OH226839   0.508   1.682   4.236 -0.0816 -0.2627 -0.3353
 1783TIP3    H126840   0.532   1.607   4.183  0.0523 -1.8400  1.8685
 1783TIP3    H226841   0.571   1.681   4.309 -1.0071  1.0992  0.5063
 1784TIP3   OH226842   1.944   6.321  13.937  0.0645 -0.2565 -0.3841
 1784TIP3    H126843   1.954   6.314  13.842 -1.9362 -0.8096 -0.5830
 1784TIP3    H226844   2.027   6.357  13.968  0.3218  0.9716 -2.4559
 1785TIP3   OH226845   2.485   4.611  12.396 -0.6657 -0.2383  0.5004
 1785TIP3    H126846   2.406   4.664  12.384 -1.3028 -1.3094 -0.1768
 1785TIP3    H226847   2.461   4.550  12.466 -1.3591 -2.2409 -1.4305
 1786TIP3   OH226848   1.778   2.748  16.296  0.0991  0.7736  0.1164
 1786TIP3    H126849   1.702   2.806  16.306  0.2031  0.8648  0.3765
 1786TIP3    H226850   1.838   2.796  16.240 -0.2563  0.4853 -0.5127
 1787TIP3   OH226851   3.763   6.283  11.370  0.3352  0.5254  0.8095
 1787TIP3    H126852   3.721   6.341  11.432  0.2487  1.2606  0.0713
 1787TIP3    H226853   3.763   6.331  11.287  0.8540 -0.2518  0.3426
 1788TIP3   OH226854   4.654   5.982   3.915 -0.2183  0.7783 -0.0624
 1788TIP3    H126855   4.586   6.034   3.958 -0.8332  0.3309 -0.4782
 1788TIP3    H226856   4.733   6.034   3.924 -0.5897  1.2486  0.5462
 1789TIP3   OH226857   3.556   4.689  16.477  0.0299  0.0783  0.0818
 1789TIP3    H126858   3.480   4.650  16.434  0.1080  0.2356 -0.1980
 1789TIP3    H226859   3.554   4.781  16.451  0.1861  0.1315  0.2595
 1790TIP3   OH226860   3.212   5.071  10.995  0.0619 -0.2081  0.1357
 1790TIP3    H126861   3.182   4.999  10.939 -1.1154  1.8146 -1.8860
 1790TIP3    H226862   3.213   5.033  11.083 -2.4553 -2.1588 -0.6055
 1791TIP3   OH226863   3.047   6.037  12.773 -0.0541 -0.6129  0.7965
 1791TIP3    H126864   3.014   6.102  12.835 -0.7858 -0.1665 -0.0572
 1791TIP3    H226865   2.993   6.048  12.695  0.1124 -1.9472  0.4822
 1792TIP3   OH226866   3.199   5.535   1.334  0.4583  0.0099  0.2575
 1792TIP3    H126867   3.198   5.453   1.383 -0.3546  0.5099  1.0934
 1792TIP3    H226868   3.154   5.515   1.252  0.5937 -0.4773  0.3031
 1793TIP3   OH226869   5.413   6.241   3.313  0.1499  0.6902 -0.1909
 1793TIP3    H126870   5.382   6.163   3.359 -1.2833  0.5872 -1.2795
 1793TIP3    H226871   5.420   6.308   3.380  0.2876 -0.0701  0.5603
 1794TIP3   OH226872   0.825   1.376  16.586  0.3115 -0.3368 -0.5827
 1794TIP3    H126873   0.884   1.366  16.661 -0.1737 -0.8034 -0.2589
 1794TIP3    H226874   0.751   1.318  16.606  0.0212 -0.2025 -1.2635
 1795TIP3   OH226875   4.022   6.646   3.720 -0.0445 -0.1012  0.1171
 1795TIP3    H126876   4.068   6.665   3.638 -1.0610 -0.5658 -0.5767
 1795TIP3    H226877   3.956   6.581   3.696  0.5070 -1.2334  1.5746
 1796TIP3   OH226878   1.564   6.565  15.583 -0.0364 -0.4052 -0.1005
 1796TIP3    H126879   1.568   6.470  15.586  0.8443 -0.3304  1.5654
 1796TIP3    H226880   1.487   6.588  15.635 -1.7415 -0.2796 -2.5699
 1797TIP3   OH226881   5.825   0.731   1.816 -0.3055 -0.2351  0.0249
 1797TIP3    H126882   5.890   0.762   1.753 -0.8469 -1.1916 -1.0106
 1797TIP3    H226883   5.746   0.718   1.765 -1.1931  0.4548  1.1975
 1798TIP3   OH226884   0.539   6.180   5.963 -0.2181 -0.4195 -0.0099
 1798TIP3    H126885   0.599   6.154   5.893  0.4666 -0.5974  0.6394
 1798TIP3    H226886   0.514   6.098   6.005 -1.0736 -0.3630 -0.4055
 1799TIP3   OH226887   6.346   5.140  12.532  0.2072  0.2524 -0.0169
 1799TIP3    H126888   6.319   5.055  12.567  2.2156 -0.4104  0.0097
 1799TIP3    H226889   6.274   5.199  12.554 -0.0957 -0.8931  2.2242
 1800TIP3   OH226890   2.241   2.413   1.570  0.3113  0.5030  0.7596
 1800TIP3    H126891   2.172   2.359   1.531 -2.4969  3.6175  1.2536
 1800TIP3    H226892   2.292   2.444   1.496  0.1216 -0.3676  0.2526
 1801TIP3   OH226893   3.793   0.831   3.065  0.6555  0.0840  0.2109
 1801TIP3    H126894   3.844   0.865   2.991 -0.0774  0.5066 -0.1016
 1801TIP3    H226895   3.703   0.855   3.045  0.5366  0.8916  1.6209
 1802TIP3   OH226896   3.422   4.095   1.542  0.3809  0.1271 -0.1215
 1802TIP3    H126897   3.409   4.087   1.636  0.6180 -2.1057 -0.2428
 1802TIP3    H226898   3.517   4.095   1.530  0.3601  1.1074 -0.3189
 1803TIP3   OH226899   3.068   2.238   0.722 -0.7364  0.4272  0.8770
 1803TIP3    H126900   3.080   2.144   0.709  2.2289  0.6781  1.4057
 1803TIP3    H226901   3.002   2.245   0.790 -2.0550 -1.2326 -0.1835
 1804TIP3   OH226902   6.772   1.383   2.204  0.0551 -0.5049 -0.0502
 1804TIP3    H126903   6.754   1.293   2.175 -1.1688 -0.4505  0.4820
 1804TIP3    H226904   6.754   1.381   2.298 -0.1538  0.3394 -0.0692
 1805TIP3   OH226905   1.645   5.464   2.746 -0.1923  0.1226  0.1807
 1805TIP3    H126906   1.560   5.452   2.703 -0.3828 -1.8409  1.0532
 1805TIP3    H226907   1.677   5.375   2.760  1.4078  0.8280  1.0749
 1806TIP3   OH226908   2.671   4.212  15.246  0.1677  0.0345  0.3746
 1806TIP3    H126909   2.680   4.150  15.318  0.7024  0.8129  0.9988
 1806TIP3    H226910   2.600   4.270  15.273 -1.3395 -1.1964 -0.8858
 1807TIP3   OH226911   1.339   0.079  11.048 -0.2331 -0.5242 -0.2357
 1807TIP3    H126912   1.395   0.107  11.121  0.4023  1.6665 -1.5027
 1807TIP3    H226913   1.357  -0.014  11.038 -0.3401 -0.8559  2.3994
 1808TIP3   OH226914   5.238   3.086  13.716 -0.3987  0.2732 -0.1736
 1808TIP3    H126915   5.333   3.073  13.712 -0.5440 -0.8964 -0.0875
 1808TIP3    H226916   5.208   3.067  13.627 -0.5403  0.7779 -0.2345
 1809TIP3   OH226917   6.561   4.691   1.348  0.4567 -0.1196 -0.0771
 1809TIP3    H126918   6.601   4.604   1.348 -0.9649 -0.8054  1.6539
 1809TIP3    H226919   6.590   4.731   1.430 -2.3977 -0.6702  1.2600
 1810TIP3   OH226920   1.241   5.313   2.780  0.1463  0.0908 -0.2231
 1810TIP3    H126921   1.150   5.308   2.811 -0.4050 -1.5175 -1.9352
 1810TIP3    H226922   1.240   5.265   2.697  2.7884 -0.8514  0.2361
 1811TIP3   OH226923   0.022   1.337   0.522  0.1528  0.1159 -0.8326
 1811TIP3    H126924   0.109   1.366   0.550  0.1726  1.4592 -2.2147
 1811TIP3    H226925  -0.039   1.390   0.572  0.1698  1.0351 -1.7649
 1812TIP3   OH226926   3.697   0.682   0.061  0.0592  0.0119  0.1602
 1812TIP3    H126927   3.767   0.683  -0.004  0.5276  0.6529  0.6648
 1812TIP3    H226928   3.695   0.771   0.096 -2.6360  0.6884 -1.5501
 1813TIP3   OH226929   1.253   3.071  14.524 -0.0859 -0.1339 -0.4604
 1813TIP3    H126930   1.167   3.086  14.564  0.2430  1.4385 -0.3032
 1813TIP3    H226931   1.235   3.014  14.448 -1.0918 -0.7822  0.2528
 1814TIP3   OH226932   0.868   2.555   4.450 -0.3031 -0.8384  0.3091
 1814TIP3    H126933   0.859   2.503   4.530  0.3976 -1.0728  0.2346
 1814TIP3    H226934   0.875   2.491   4.380  2.6152 -0.6891  0.4310
 1815TIP3   OH226935   4.771   6.677  14.057  0.1324  0.5849  0.4830
 1815TIP3    H126936   4.704   6.672  14.125  0.2637 -0.6513  0.5243
 1815TIP3    H226937   4.785   6.771  14.044 -2.4640  0.9111 -0.3533
 1816TIP3   OH226938   0.479   1.421   1.736  0.1172 -0.2469  0.2315
 1816TIP3    H126939   0.422   1.450   1.665  0.0825  1.1919  0.8297
 1816TIP3    H226940   0.427   1.431   1.815  1.3873  1.7355  0.8661
 1817TIP3   OH226941   6.756   3.148   4.331 -0.0195 -0.1028  0.1297
 1817TIP3    H126942   6.819   3.114   4.267  0.5129 -1.0894  1.1529
 1817TIP3    H226943   6.809   3.193   4.396 -0.1547 -2.5909  2.0249
 1818TIP3   OH226944   6.280   4.241   6.754  0.1891  0.2230  0.0181
 1818TIP3    H126945   6.214   4.287   6.807  0.8463  0.1177  0.9277
 1818TIP3    H226946   6.258   4.148   6.765  0.3524  0.1995  0.1486
 1819TIP3   OH226947   4.295   3.212   4.097  0.1852  0.3489 -0.2081
 1819TIP3    H126948   4.238   3.284   4.070 -1.1778 -1.0861 -1.2916
 1819TIP3    H226949   4.382   3.238   4.069  0.1354  2.7724  1.8440
 1820TIP3   OH226950   3.713   0.118  14.037  0.2863  0.1954 -0.1913
 1820TIP3    H126951   3.799   0.090  14.069 -0.3320 -0.2051  1.1631
 1820TIP3    H226952   3.710   0.212  14.054  0.1150  0.0535  0.6129
 1821TIP3   OH226953   1.656   3.313  13.071 -0.2164  0.3818 -0.1240
 1821TIP3    H126954   1.748   3.304  13.098 -0.7046  0.3982  1.5930
 1821TIP3    H226955   1.628   3.223  13.055 -0.8603  0.0451  2.6867
 1822TIP3   OH226956   0.720   4.996   5.058 -0.3785  0.0899  0.0732
 1822TIP3    H126957   0.787   5.021   4.994  0.3465  0.1931  0.8670
 1822TIP3    H226958   0.637   5.013   5.013  0.1236 -1.1966 -1.3689
 1823TIP3   OH226959   0.126   4.546   2.269 -0.2299  0.6661  0.2840
 1823TIP3    H126960   0.094   4.569   2.356 -0.4748 -1.3684  0.7502
 1823TIP3    H226961   0.190   4.476   2.284 -2.4618 -1.8279 -1.3702
 1824TIP3   OH226962   3.258   0.689   1.226  0.0047  0.5191  0.1701
 1824TIP3    H126963   3.219   0.775   1.243  0.7221  0.8773  0.0073
 1824TIP3    H226964   3.352   0.704   1.230  0.1634  0.0709 -1.4702
 1825TIP3   OH226965   4.017   4.200  17.290 -0.2173 -0.0174  0.5622
 1825TIP3    H126966   3.967   4.119  17.299  0.6224 -0.3186  2.7591
 1825TIP3    H226967   4.101   4.182  17.333  0.2053  1.8222  0.5662
 1826TIP3   OH226968   2.929   3.439  11.337 -0.1422 -0.5948 -0.5191
 1826TIP3    H126969   2.991   3.503  11.303 -1.7109  1.1233 -0.2543
 1826TIP3    H226970   2.847   3.488  11.347 -0.6805 -1.9549  2.2712
 1827TIP3   OH226971   3.949   3.352  17.280 -0.0806 -0.0468 -0.0436
 1827TIP3    H126972   3.952   3.447  17.289 -0.0943 -0.2311  2.0201
 1827TIP3    H226973   3.974   3.336  17.189 -0.8360  1.9661 -0.6318
 1828TIP3   OH226974   6.638   4.928   0.051 -0.0469 -0.2359  0.0237
 1828TIP3    H126975   6.731   4.932   0.029  0.0328 -1.1437  0.1780
 1828TIP3    H226976   6.608   5.018   0.045  0.7908  0.0250 -0.2699
 1829TIP3   OH226977   0.350   3.976   1.277 -0.1338 -0.1089 -0.2365
 1829TIP3    H126978   0.347   3.984   1.372  0.4486 -0.0846 -0.2176
 1829TIP3    H226979   0.379   4.062   1.247  0.3969 -0.3438 -0.3948
 1830TIP3   OH226980   6.428   4.733   3.935  0.3031  0.5835 -0.1595
 1830TIP3    H126981   6.508   4.771   3.899  1.6932 -2.5053 -0.4290
 1830TIP3    H226982   6.374   4.713   3.859  0.9706 -0.9980 -0.2257
 1831TIP3   OH226983   2.259   3.184  13.373  0.3075 -0.0023 -0.3007
 1831TIP3    H126984   2.234   3.271  13.403  0.0695 -0.2051  0.0997
 1831TIP3    H226985   2.176   3.138  13.360  0.3926  0.2197 -1.7261
 1832TIP3   OH226986   0.595   5.754   3.332  0.0419  0.2431 -0.4773
 1832TIP3    H126987   0.587   5.708   3.248  0.7565 -0.2254 -0.2959
 1832TIP3    H226988   0.685   5.738   3.359 -0.8105 -1.5386  1.4684
 1833TIP3   OH226989   5.118   6.240   2.222  0.2476 -1.1869 -0.3400
 1833TIP3    H126990   5.128   6.189   2.303 -0.1792 -0.3560  0.2403
 1833TIP3    H226991   5.113   6.331   2.251 -0.0161 -0.8863 -1.2979
 1834TIP3   OH226992   3.148   0.185   1.312  0.0179 -0.2348 -1.0292
 1834TIP3    H126993   3.167   0.276   1.287 -4.1037  0.8310 -0.5642
 1834TIP3    H226994   3.096   0.150   1.240 -0.3844 -1.4793 -0.1444
 1835TIP3   OH226995   6.362   1.767   0.736 -0.6652 -0.0698 -0.2507
 1835TIP3    H126996   6.380   1.782   0.643  2.6981 -0.3091  0.3074
 1835TIP3    H226997   6.337   1.853   0.770 -1.8667  0.0278 -1.3372
 1836TIP3   OH226998   5.098   2.041   2.469 -0.3596 -0.1940 -0.0631
 1836TIP3    H126999   5.127   2.100   2.400  0.8293 -0.9499 -0.2276
 1836TIP3    H227000   5.105   1.954   2.431 -1.3068 -0.5040  0.4546
 1837TIP3   OH227001   6.424   1.668   4.199  0.2689  0.2839  0.0387
 1837TIP3    H127002   6.381   1.693   4.281  0.4621  0.9194 -0.0458
 1837TIP3    H227003   6.493   1.734   4.187  0.5064 -0.0448 -0.4226
 1838TIP3   OH227004   6.478   0.570   5.457  0.6169 -0.6561  0.1289
 1838TIP3    H127005   6.481   0.609   5.544 -0.0790 -0.8082  0.2260
 1838TIP3    H227006   6.509   0.480   5.469  1.4709 -0.3819  0.0403
 1839TIP3   OH227007   5.602   5.342   0.795  0.0143  0.0019 -0.2342
 1839TIP3    H127008   5.598   5.248   0.810  2.0661 -0.0218  0.2951
 1839TIP3    H227009   5.514   5.373   0.816 -1.3298 -2.0642 -2.4897
 1840TIP3   OH227010   4.067   2.768  12.122 -0.2953 -0.0387  0.0606
 1840TIP3    H127011   4.003   2.783  12.052 -0.6508  1.3288  0.6606
 1840TIP3    H227012   4.096   2.678  12.109  0.1269  0.3877 -2.2631
 1841TIP3   OH227013   5.491   3.454   3.243 -0.2102 -1.0659  0.3410
 1841TIP3    H127014   5.567   3.409   3.205  0.5055  0.2920  0.1294
 1841TIP3    H227015   5.472   3.405   3.323 -1.9284 -4.1673 -1.8562
 1842TIP3   OH227016   2.229   3.178  16.003  0.4545  0.4490 -0.0174
 1842TIP3    H127017   2.145   3.211  15.972 -0.3551 -2.5419 -1.1916
 1842TIP3    H227018   2.217   3.167  16.097 -0.6634 -0.4462 -0.2516
 1843TIP3   OH227019   1.754   6.399  14.091 -0.1420  0.5486 -0.0780
 1843TIP3    H127020   1.803   6.355  14.021 -1.3354  0.1919 -0.7021
 1843TIP3    H227021   1.678   6.343  14.105 -1.2602  1.9888 -0.3030
 1844TIP3   OH227022   3.122   5.494  14.009  0.5083 -0.4645  0.1030
 1844TIP3    H127023   3.079   5.494  13.924 -0.0805 -0.4208  0.3969
 1844TIP3    H227024   3.164   5.408  14.014  1.7337  0.0681 -0.8130
 1845TIP3   OH227025   2.771   0.266   3.028 -0.1649 -0.1538 -0.0132
 1845TIP3    H127026   2.782   0.318   2.949 -5.1470 -0.7575 -1.2945
 1845TIP3    H227027   2.762   0.331   3.098  2.9647  0.4025 -0.0608
 1846TIP3   OH227028   6.055   3.047  11.058  0.0147  0.1743  0.1373
 1846TIP3    H127029   6.051   3.044  11.154 -1.2484 -0.5297  0.0727
 1846TIP3    H227030   6.024   2.961  11.030  0.8394  0.2058 -0.8974
 1847TIP3   OH227031   0.947   4.208  13.578  0.0111 -0.5248 -0.4054
 1847TIP3    H127032   0.896   4.286  13.556 -0.6949 -1.3754 -1.8497
 1847TIP3    H227033   0.890   4.158  13.636  0.2818 -0.1985  0.1478
 1848TIP3   OH227034   6.161   2.163  15.828  0.2114 -0.0821 -0.3904
 1848TIP3    H127035   6.110   2.130  15.753 -0.6607 -0.4808  0.3670
 1848TIP3    H227036   6.203   2.242  15.795 -1.5227  0.6923 -0.8097
 1849TIP3   OH227037   5.044   2.769  16.359  0.0066 -0.0839 -0.0297
 1849TIP3    H127038   4.961   2.738  16.395 -0.0580 -0.5558 -0.5845
 1849TIP3    H227039   5.022   2.845  16.307 -0.2562 -0.9844 -1.2458
 1850TIP3   OH227040   2.535   5.803   5.981 -0.5756 -0.6417 -0.5516
 1850TIP3    H127041   2.512   5.713   5.960 -0.1994 -0.9490  0.3233
 1850TIP3    H227042   2.592   5.796   6.058  0.0653  0.2953 -0.9315
 1851TIP3   OH227043   4.193   2.625  16.967 -0.9036  0.2897 -0.0175
 1851TIP3    H127044   4.135   2.595  17.038  0.2987  1.1287  1.3412
 1851TIP3    H227045   4.133   2.653  16.898 -2.2342  3.5396  2.3480
 1852TIP3   OH227046   4.431   6.115  14.399  0.0918  0.4561  0.2356
 1852TIP3    H127047   4.391   6.040  14.356 -0.5742  0.6391  0.5216
 1852TIP3    H227048   4.431   6.093  14.492  3.0859 -0.6681  0.0157
 1853TIP3   OH227049   2.509   4.255   5.522 -0.0722  0.0547 -0.3594
 1853TIP3    H127050   2.510   4.316   5.595 -1.6200 -1.3035  0.8176
 1853TIP3    H227051   2.454   4.297   5.456 -0.5091  0.2599  0.1411
 1854TIP3   OH227052   4.169   5.054   2.841 -0.1680 -0.4690  0.2238
 1854TIP3    H127053   4.080   5.040   2.807 -0.0689 -0.9657  0.1653
 1854TIP3    H227054   4.160   5.043   2.935  0.2204 -2.6350  0.0345
 1855TIP3   OH227055   1.681   2.951   5.640  0.5374  0.2387  0.1453
 1855TIP3    H127056   1.634   2.869   5.658 -0.4666  0.7554 -0.0723
 1855TIP3    H227057   1.773   2.928   5.650  0.2776 -0.9630 -0.0501
 1856TIP3   OH227058   1.350   1.274   2.592 -0.2211 -0.2424 -0.2107
 1856TIP3    H127059   1.385   1.336   2.656 -0.4081 -0.3477 -0.0034
 1856TIP3    H227060   1.303   1.209   2.645 -0.0854 -0.5223 -0.4319
 1857TIP3   OH227061   4.859   2.845  13.351  0.1962  0.4379  0.6000
 1857TIP3    H127062   4.865   2.912  13.283  0.3051  0.3989  0.5712
 1857TIP3    H227063   4.771   2.856  13.388  1.0754  2.1708  2.2273
 1858TIP3   OH227064   4.451   0.204  17.233  0.0866 -0.4703 -0.3979
 1858TIP3    H127065   4.411   0.281  17.193  0.9168 -0.6090 -1.5086
 1858TIP3    H227066   4.511   0.239  17.299  0.2459 -0.1760 -0.7001
 1859TIP3   OH227067   5.534   0.531   4.928 -0.8343  0.3832  0.2844
 1859TIP3    H127068   5.472   0.482   4.983 -1.1964  0.9772  0.4169
 1859TIP3    H227069   5.551   0.474   4.854  1.4800 -1.4378  2.1520
 1860TIP3   OH227070   0.757   4.650  14.100 -0.1042 -0.5010 -0.2307
 1860TIP3    H127071   0.696   4.624  14.031  0.1514 -1.4665 -0.1057
 1860TIP3    H227072   0.718   4.615  14.180 -0.1317  0.1635  0.0486
 1861TIP3   OH227073   5.577   2.549   4.203  0.3406 -0.2897 -0.2723
 1861TIP3    H127074   5.631   2.470   4.210 -2.0867 -1.9618  0.2237
 1861TIP3    H227075   5.523   2.548   4.281  0.6828  2.2321  0.0287
 1862TIP3   OH227076   0.377   1.707   2.862 -0.0619 -0.9499  0.1142
 1862TIP3    H127077   0.445   1.657   2.818  1.2473 -0.2241  1.2882
 1862TIP3    H227078   0.386   1.683   2.954  0.3594  1.1727  0.6385
 1863TIP3   OH227079   6.036   1.006  14.717 -0.2751 -0.3146  0.4746
 1863TIP3    H127080   6.092   0.983  14.643 -0.4903 -0.3182  0.3112
 1863TIP3    H227081   5.947   0.985  14.687 -0.3831 -0.1153  0.6543
 1864TIP3   OH227082   6.413   6.171   0.823 -0.3426  0.1147 -0.1020
 1864TIP3    H127083   6.417   6.262   0.852  1.8681 -0.1607  0.5860
 1864TIP3    H227084   6.388   6.176   0.731  0.5428  1.4887 -0.2929
 1865TIP3   OH227085   0.409   6.252   0.610 -0.0431  0.6379 -1.1428
 1865TIP3    H127086   0.435   6.170   0.568  1.9158  0.8488 -0.3857
 1865TIP3    H227087   0.490   6.300   0.622 -0.7424  1.2731  1.4306
 1866TIP3   OH227088   5.823   4.030  10.987 -0.4210 -0.4312 -0.7316
 1866TIP3    H127089   5.876   4.023  10.907 -0.5170 -1.9915 -0.6684
 1866TIP3    H227090   5.865   3.969  11.048 -0.2728  0.8439  0.4601
 1867TIP3   OH227091   0.078   4.596   6.714  0.0314  0.1090 -0.3512
 1867TIP3    H127092   0.001   4.546   6.741 -1.0867  0.9580 -1.8634
 1867TIP3    H227093   0.135   4.532   6.672 -0.2340 -0.3671  0.0180
 1868TIP3   OH227094   6.590   1.546   0.747  0.3108  0.0205 -0.0925
 1868TIP3    H127095   6.588   1.632   0.791  2.7956  0.2408 -0.2958
 1868TIP3    H227096   6.583   1.483   0.819  1.0574  0.3986  0.3276
 1869TIP3   OH227097   0.110   5.009  10.536 -0.2037  0.7412 -0.1818
 1869TIP3    H127098   0.109   5.066  10.459 -1.2051  0.6327 -0.2569
 1869TIP3    H227099   0.131   4.923  10.501 -1.5711  0.5091 -0.4787
 1870TIP3   OH227100   4.234   2.919  14.466  0.1945  0.3243  0.0689
 1870TIP3    H127101   4.187   2.836  14.473  1.2580 -0.1744  1.4751
 1870TIP3    H227102   4.165   2.984  14.450 -0.5448 -0.9190 -1.9771
 1871TIP3   OH227103   0.537   5.803   6.374  0.1849 -0.5435  0.3103
 1871TIP3    H127104   0.566   5.894   6.387  1.4435 -0.7660 -0.9029
 1871TIP3    H227105   0.587   5.753   6.438  2.7278 -0.9552 -1.9108
 1872TIP3   OH227106   6.384   2.560   0.990 -0.0163  0.1333 -0.3831
 1872TIP3    H127107   6.324   2.509   0.936  0.0289 -0.4541  0.1158
 1872TIP3    H227108   6.471   2.534   0.960  0.0249 -0.9111  0.6193
 1873TIP3   OH227109   2.447   5.260  13.544 -0.4873 -0.4909  0.0219
 1873TIP3    H127110   2.460   5.169  13.572 -1.8252 -0.9195 -0.7241
 1873TIP3    H227111   2.429   5.254  13.450 -1.6546  0.4504  0.1797
 1874TIP3   OH227112   4.608   1.771   5.638 -0.4605 -0.4096  0.1581
 1874TIP3    H127113   4.546   1.704   5.667  1.1429 -2.1641 -0.3849
 1874TIP3    H227114   4.664   1.787   5.714  0.6338 -1.4178 -0.4190
 1875TIP3   OH227115   5.969   3.227   4.178 -0.4897  0.5193 -0.7706
 1875TIP3    H127116   6.054   3.184   4.173 -1.5235 -1.8840  1.2245
 1875TIP3    H227117   5.923   3.200   4.099 -0.6613 -1.0411 -0.1493
 1876TIP3   OH227118   2.198   6.140  12.916 -0.0499 -0.1689  0.3054
 1876TIP3    H127119   2.207   6.095  12.832 -2.3443  1.1986 -0.7108
 1876TIP3    H227120   2.190   6.070  12.980 -0.8374 -1.2256 -0.9319
 1877TIP3   OH227121   5.797   4.282  11.028 -0.0776  0.0663 -0.2499
 1877TIP3    H127122   5.816   4.190  11.013 -1.4618  0.0192 -1.8208
 1877TIP3    H227123   5.843   4.328  10.957 -0.1258  0.5032  0.0014
 1878TIP3   OH227124   6.563   4.233   2.899 -0.0885  0.5347  0.1083
 1878TIP3    H127125   6.480   4.240   2.946 -0.2169 -0.1961 -0.0046
 1878TIP3    H227126   6.546   4.170   2.829  1.5973 -2.5380  2.3760
 1879TIP3   OH227127   4.524   1.636  13.489  0.0682  0.5233  0.9116
 1879TIP3    H127128   4.590   1.682  13.438 -0.9573 -1.2857 -2.2125
 1879TIP3    H227129   4.451   1.697  13.494  0.9232  1.4791  1.9992
 1880TIP3   OH227130   4.968   2.138  13.226  0.1555 -0.6505  0.4590
 1880TIP3    H127131   4.992   2.105  13.140  1.3751  2.6675 -0.5855
 1880TIP3    H227132   5.041   2.111  13.283  0.1885 -1.3915  0.0658
 1881TIP3   OH227133   4.788   0.947   1.677 -0.4651  0.0375  0.2672
 1881TIP3    H127134   4.701   0.921   1.707 -0.6059  0.6926  0.4466
 1881TIP3    H227135   4.834   0.974   1.757 -0.1328 -0.2126  0.1601
 1882TIP3   OH227136   4.662   4.321   2.605 -0.0919 -0.2361 -0.1447
 1882TIP3    H127137   4.649   4.382   2.678 -0.5611  1.6668 -1.7939
 1882TIP3    H227138   4.756   4.324   2.587 -0.3689  1.3625 -1.3745
 1883TIP3   OH227139   2.282   1.543  16.295 -0.1676 -0.2271  0.6713
 1883TIP3    H127140   2.193   1.574  16.311 -0.6638 -1.6315  0.6979
 1883TIP3    H227141   2.280   1.451  16.321  1.0234 -0.5397 -0.3145
 1884TIP3   OH227142   5.084   6.586  16.374 -0.3842  0.3613 -0.4658
 1884TIP3    H127143   5.109   6.583  16.282  0.4420 -2.2461 -0.2093
 1884TIP3    H227144   5.001   6.634  16.376 -0.1278  0.9145 -2.4761
 1885TIP3   OH227145   3.101   6.578   2.592  0.0313 -0.4251 -0.3516
 1885TIP3    H127146   3.105   6.659   2.642 -1.1369 -0.2202 -0.5715
 1885TIP3    H227147   3.141   6.600   2.508 -0.8605  0.1091 -0.6436
 1886TIP3   OH227148   1.878   3.318   3.235 -0.4934  0.3599 -0.6879
 1886TIP3    H127149   1.877   3.274   3.151 -0.0858  2.2839 -1.7416
 1886TIP3    H227150   1.795   3.293   3.277 -0.8395 -0.3540 -1.7894
 1887TIP3   OH227151   5.893   6.093  15.429  0.0556 -0.7883  0.3294
 1887TIP3    H127152   5.941   6.021  15.471  1.0989  0.0408  0.5775
 1887TIP3    H227153   5.835   6.126  15.497  0.7123 -0.3782  0.6983
 1888TIP3   OH227154   0.736   5.378   3.129  0.6134 -0.4210  0.0897
 1888TIP3    H127155   0.800   5.308   3.119  0.8371 -0.0412 -1.3347
 1888TIP3    H227156   0.768   5.430   3.203  2.0311 -0.1563 -0.7014
 1889TIP3   OH227157   2.278   4.037  14.731  0.4017  0.0478 -0.0626
 1889TIP3    H127158   2.308   3.968  14.671 -0.2960  0.8917 -1.4272
 1889TIP3    H227159   2.256   3.991  14.812  0.4967 -1.2459 -0.7542
 1890TIP3   OH227160   4.717   2.947  14.064 -0.1795  0.2415  0.1096
 1890TIP3    H127161   4.693   2.867  14.112  2.4222 -1.5287 -1.4044
 1890TIP3    H227162   4.689   2.930  13.974  3.0158 -0.2337 -0.8395
 1891TIP3   OH227163   3.106   3.208  14.268  0.5599  0.9733  0.9059
 1891TIP3    H127164   3.117   3.206  14.173  0.4350  0.5566  0.8965
 1891TIP3    H227165   3.183   3.253  14.301  0.1667  1.9136  0.5430
 1892TIP3   OH227166   5.515   5.333   6.309  0.2849  0.2534  0.1595
 1892TIP3    H127167   5.518   5.394   6.383  0.1177 -0.6679  0.9313
 1892TIP3    H227168   5.437   5.359   6.260 -0.5607 -0.1731  1.2335
 1893TIP3   OH227169   1.648   2.173   0.727  0.0642 -0.2804 -0.0683
 1893TIP3    H127170   1.670   2.132   0.811 -0.8202  1.2531  0.9102
 1893TIP3    H227171   1.553   2.167   0.721 -0.0222  1.2204 -0.1512
 1894TIP3   OH227172   2.434   3.982   3.087 -0.2119  0.6193  0.2339
 1894TIP3    H127173   2.346   3.946   3.078  0.5935 -1.7522  1.5237
 1894TIP3    H227174   2.422   4.061   3.139 -1.9388  2.0656 -2.1912
 1895TIP3   OH227175   2.005   2.357   0.854 -0.1903 -0.0966  0.2555
 1895TIP3    H127176   2.059   2.293   0.807  1.3592 -0.2069  2.1585
 1895TIP3    H227177   1.966   2.308   0.926 -0.0490  0.7960  0.9449
 1896TIP3   OH227178   5.895   5.233  17.137  0.3441 -0.3670  0.4362
 1896TIP3    H127179   5.892   5.239  17.232  1.3433  0.7651  0.4167
 1896TIP3    H227180   5.865   5.319  17.107  1.8272 -0.0751 -0.2359
 1897TIP3   OH227181   5.337   1.619  14.771  0.0267 -0.1308  0.1000
 1897TIP3    H127182   5.391   1.539  14.771  0.8616  0.3910 -1.4530
 1897TIP3    H227183   5.348   1.654  14.682 -3.2446 -0.2273 -0.3919
 1898TIP3   OH227184   6.500   5.004  14.060 -0.0760  0.0583 -0.2012
 1898TIP3    H127185   6.408   4.981  14.071  0.6677 -3.0355  0.1439
 1898TIP3    H227186   6.515   5.001  13.966 -0.7754  2.5605 -0.4123
 1899TIP3   OH227187   4.197   2.988  15.519 -0.0136 -0.1748  0.0117
 1899TIP3    H127188   4.139   3.011  15.446  1.1058  2.2986 -0.1808
 1899TIP3    H227189   4.248   2.914  15.487 -1.1213 -0.5727 -0.8621
 1900TIP3   OH227190   1.933   0.578  12.242 -0.2587 -0.2010  0.2190
 1900TIP3    H127191   1.854   0.591  12.190 -0.9105 -0.4696  1.1331
 1900TIP3    H227192   1.908   0.515  12.309  0.8283 -0.5463  0.3193
 1901TIP3   OH227193   4.733   1.438   2.647 -0.5149 -0.2279  0.2908
 1901TIP3    H127194   4.806   1.417   2.705  0.5748  1.8021 -0.2789
 1901TIP3    H227195   4.749   1.385   2.568 -0.3834 -0.7935  0.6975
 1902TIP3   OH227196   4.151   4.970  13.101  0.4949  0.3284  0.6579
 1902TIP3    H127197   4.065   5.004  13.123  0.3480 -0.1510  0.8424
 1902TIP3    H227198   4.212   5.040  13.125  0.1682  0.6145  0.6532
 1903TIP3   OH227199   6.541   4.659   3.092  0.0239  0.0125  0.2197
 1903TIP3    H127200   6.496   4.623   3.168 -0.3021  4.2754  2.1897
 1903TIP3    H227201   6.624   4.691   3.126  1.1667 -0.6745 -1.8359
 1904TIP3   OH227202   5.109   4.351   5.231  0.1362 -0.2680  0.5943
 1904TIP3    H127203   5.166   4.305   5.169 -0.3123  0.0620 -0.0777
 1904TIP3    H227204   5.053   4.405   5.175  0.8140  1.2619  1.3707
 1905TIP3   OH227205   5.721   4.216  16.757 -0.2751  0.5130 -0.3065
 1905TIP3    H127206   5.687   4.305  16.752  0.0348  0.5817 -1.3381
 1905TIP3    H227207   5.736   4.191  16.665  2.5026  0.5238  0.0833
 1906TIP3   OH227208   6.377   0.714  13.084  0.0592 -0.5161  0.6273
 1906TIP3    H127209   6.330   0.658  13.146  0.5026  0.7480  2.1547
 1906TIP3    H227210   6.344   0.688  12.998 -0.4699 -2.4104  1.3763
 1907TIP3   OH227211   3.138   0.443   1.303  0.1141 -0.3423 -0.1030
 1907TIP3    H127212   3.122   0.467   1.394 -1.3481  0.2991 -0.5075
 1907TIP3    H227213   3.159   0.526   1.260 -1.1597 -0.3307 -0.7332
 1908TIP3   OH227214   2.029   3.554   3.333 -0.0492  0.0649  0.1121
 1908TIP3    H127215   1.933   3.559   3.332 -0.2529 -2.6642  1.3588
 1908TIP3    H227216   2.049   3.464   3.307  2.1603  0.4575  0.3417
 1909TIP3   OH227217   2.747   3.820  12.882  0.1504 -0.1281  0.1773
 1909TIP3    H127218   2.765   3.735  12.924 -0.5667 -0.3289  0.0868
 1909TIP3    H227219   2.652   3.819  12.867  0.1858  0.5759 -0.0781
 1910TIP3   OH227220   2.849   0.244   1.234 -0.8039 -0.6730  0.1940
 1910TIP3    H127221   2.799   0.320   1.263  0.0086  0.2882 -0.8981
 1910TIP3    H227222   2.894   0.273   1.155 -0.9012 -2.4570 -0.5452
 1911TIP3   OH227223   2.183   2.154   2.540  0.4462 -0.4560 -0.3472
 1911TIP3    H127224   2.195   2.110   2.456 -0.7207 -0.0229 -0.7546
 1911TIP3    H227225   2.125   2.095   2.589 -3.3420  1.8181 -1.8883
 1912TIP3   OH227226   4.758   2.247  15.208  0.2166 -0.7104 -0.6935
 1912TIP3    H127227   4.684   2.262  15.149  2.4812  0.6697 -3.3542
 1912TIP3    H227228   4.829   2.218  15.150  1.7584 -2.0671  1.7698
 1913TIP3   OH227229   0.742   4.296   2.767  0.1276 -0.2029  0.4241
 1913TIP3    H127230   0.694   4.306   2.850 -2.7226 -2.8509 -0.7961
 1913TIP3    H227231   0.703   4.362   2.710  0.5322  0.1286  0.5307
 1914TIP3   OH227232   1.244   0.363  12.916 -0.7648  0.7636  0.1111
 1914TIP3    H127233   1.212   0.433  12.974  0.0948  0.8878  0.4463
 1914TIP3    H227234   1.245   0.285  12.971  0.7280  1.0264  0.4876
 1915TIP3   OH227235   3.600   6.719   3.963  0.0856 -0.2242  0.1202
 1915TIP3    H127236   3.532   6.658   3.937  0.9630 -1.2738  0.2478
 1915TIP3    H227237   3.677   6.664   3.979  0.6043  0.7989  1.2194
 1916TIP3   OH227238   1.579   6.161   3.903 -0.3313 -0.7699 -0.5943
 1916TIP3    H127239   1.550   6.176   3.813 -0.3317  0.5619 -0.3871
 1916TIP3    H227240   1.521   6.093   3.936 -2.2725  0.8134 -0.6556
 1917TIP3   OH227241   5.925   1.307  15.115  0.3258  0.2139  0.2917
 1917TIP3    H127242   5.909   1.235  15.054  0.7694  0.1115  0.3005
 1917TIP3    H227243   5.849   1.306  15.173  0.2826 -0.1820  0.2286
 1918TIP3   OH227244   1.771   6.619  12.674  0.8406 -0.3961  0.5525
 1918TIP3    H127245   1.785   6.591  12.584  0.6567 -0.8904  0.6774
 1918TIP3    H227246   1.711   6.693  12.667  0.9631 -0.3230  0.2553
 1919TIP3   OH227247   5.155   6.059  10.754 -0.7853 -0.4203  0.0954
 1919TIP3    H127248   5.078   6.072  10.700  0.6559 -0.0583 -1.9319
 1919TIP3    H227249   5.207   5.994  10.708  1.7801  1.9152 -0.4844
 1920TIP3   OH227250   1.058   3.501   2.721 -0.1369  0.2804 -0.2916
 1920TIP3    H127251   1.065   3.479   2.628 -0.2361  1.7188 -0.6402
 1920TIP3    H227252   0.996   3.573   2.724  0.8283  1.0764  0.7649
 1921TIP3   OH227253   3.219   2.885  13.750 -0.7725  0.5431 -0.1738
 1921TIP3    H127254   3.163   2.944  13.801 -0.7275  1.3605 -1.0519
 1921TIP3    H227255   3.267   2.835  13.816 -0.4208  1.8701  0.5997
 1922TIP3   OH227256   1.116   3.390  15.505  0.0497  0.1050 -0.3032
 1922TIP3    H127257   1.069   3.373  15.587 -0.5955  1.6766 -0.3206
 1922TIP3    H227258   1.198   3.342  15.513 -0.8986 -1.4581  0.3745
 1923TIP3   OH227259   6.382   2.733  13.666  0.6707 -0.1863  0.0660
 1923TIP3    H127260   6.393   2.790  13.742 -2.0123 -0.4628  0.6901
 1923TIP3    H227261   6.314   2.671  13.691  0.9742 -1.3861 -1.9432
 1924TIP3   OH227262   1.025   6.804   0.103  0.4963 -0.0232  0.0756
 1924TIP3    H127263   0.967   6.786   0.029  1.4304 -0.9093 -0.4619
 1924TIP3    H227264   1.083   6.729   0.106  0.3769 -0.0607  1.8185
 1925TIP3   OH227265   0.925   4.422  14.413 -0.2868 -0.2409  0.1859
 1925TIP3    H127266   0.839   4.454  14.387 -0.8730 -1.0864  1.0404
 1925TIP3    H227267   0.977   4.423  14.333 -1.3899 -0.6816 -0.5420
 1926TIP3   OH227268   3.963   2.705  16.768  0.0139  0.0121  1.3901
 1926TIP3    H127269   3.891   2.662  16.721  0.7852 -0.5406  0.7051
 1926TIP3    H227270   3.950   2.798  16.752  0.2617 -0.1649  0.0863
 1927TIP3   OH227271   6.142   5.601  11.737 -0.2907 -0.3983  0.3210
 1927TIP3    H127272   6.144   5.617  11.831 -1.0588  0.3613  0.2149
 1927TIP3    H227273   6.082   5.528  11.726  0.3136 -0.9223  0.4756
 1928TIP3   OH227274   4.585   3.218   5.338  0.0823  0.3840 -0.1691
 1928TIP3    H127275   4.613   3.138   5.294  0.2850 -0.1127  0.8677
 1928TIP3    H227276   4.506   3.193   5.387  2.2412 -0.1369  3.1867
 1929TIP3   OH227277   6.379   1.445   5.252  0.2814  0.4748 -0.1282
 1929TIP3    H127278   6.409   1.532   5.280  0.3614  0.3813  0.0787
 1929TIP3    H227279   6.284   1.446   5.268  0.3953  0.2528  0.6122
 1930TIP3   OH227280   2.442   2.555  12.519  0.1075  0.7213 -0.6911
 1930TIP3    H127281   2.416   2.542  12.428 -1.8671  2.2153 -0.3564
 1930TIP3    H227282   2.418   2.645  12.539  1.3605  0.7010  1.0520
 1931TIP3   OH227283   1.637   2.851   2.983 -0.3351 -0.1343  0.5723
 1931TIP3    H127284   1.720   2.883   3.016 -1.1435  1.3551  1.2039
 1931TIP3    H227285   1.642   2.756   2.992  2.0238 -0.2166 -1.1792
 1932TIP3   OH227286   4.458   1.965   5.433  0.4005 -0.1327 -0.3319
 1932TIP3    H127287   4.498   1.878   5.429 -2.0142 -1.3225  0.1016
 1932TIP3    H227288   4.389   1.963   5.366 -0.1607  1.1700  0.1875
 1933TIP3   OH227289   4.541   6.192   0.473  0.1823  0.0751 -0.2597
 1933TIP3    H127290   4.502   6.151   0.396  0.6990  0.8383 -0.9292
 1933TIP3    H227291   4.469   6.198   0.536 -0.3649 -0.0932 -0.8649
 1934TIP3   OH227292   0.482   1.861   4.936 -0.4566 -0.1377  0.2261
 1934TIP3    H127293   0.464   1.923   5.006 -1.8888 -0.5162  0.2098
 1934TIP3    H227294   0.456   1.906   4.856  1.2776  0.3341 -0.0835
 1935TIP3   OH227295   4.043   5.386   1.399  0.3653  0.0313  0.0346
 1935TIP3    H127296   4.094   5.305   1.397  0.6373  0.1206  2.0358
 1935TIP3    H227297   4.042   5.411   1.492 -1.6751  1.0764 -0.2450
 1936TIP3   OH227298   6.264   1.429  11.954  0.1503 -0.4410 -0.3980
 1936TIP3    H127299   6.237   1.430  11.862  0.7078 -2.5077 -0.5980
 1936TIP3    H227300   6.353   1.465  11.953 -0.1420  0.3052 -0.5371
 1937TIP3   OH227301   2.998   0.410   2.373 -0.2194 -0.5446 -0.4359
 1937TIP3    H127302   2.938   0.437   2.442  0.1851  2.0098 -0.9997
 1937TIP3    H227303   3.084   0.442   2.402  0.3513 -1.5551 -1.0011
 1938TIP3   OH227304   5.842   6.532  16.670 -0.0138 -0.2222 -0.5021
 1938TIP3    H127305   5.838   6.621  16.706  1.5965 -0.0619 -0.6440
 1938TIP3    H227306   5.810   6.476  16.741 -0.9578  0.4565 -0.3816
 1939TIP3   OH227307   2.124   4.879   1.751  0.0279  0.1908 -0.4893
 1939TIP3    H127308   2.103   4.793   1.788 -1.6066  0.6668 -0.2715
 1939TIP3    H227309   2.067   4.886   1.674 -0.8856  1.6704  0.3123
 1940TIP3   OH227310   2.188   0.232   1.422 -0.2476 -0.0283  0.2875
 1940TIP3    H127311   2.282   0.234   1.403 -0.4684  0.2748 -0.7572
 1940TIP3    H227312   2.147   0.209   1.339 -1.1531  0.4739  0.5922
 1941TIP3   OH227313   3.030   1.524   1.486  0.5645  0.1895  0.7672
 1941TIP3    H127314   3.062   1.604   1.445 -0.0791  0.8955  1.6399
 1941TIP3    H227315   3.109   1.476   1.512  0.9729  0.0425 -0.6760
 1942TIP3   OH227316   0.721   4.416  15.511  0.0936  0.1430  0.1381
 1942TIP3    H127317   0.725   4.336  15.459  1.9599  1.7775 -2.3223
 1942TIP3    H227318   0.631   4.418  15.544 -0.9392 -1.2925 -2.4561
 1943TIP3   OH227319   4.746   6.671   0.637 -0.4172  0.4305 -0.1852
 1943TIP3    H127320   4.756   6.749   0.583  1.2076  0.6049  0.3439
 1943TIP3    H227321   4.688   6.614   0.587 -1.1066  1.7004 -0.8644
 1944TIP3   OH227322   3.858   2.855  14.182 -0.1677 -0.3892 -0.2694
 1944TIP3    H127323   3.808   2.897  14.252 -1.7494 -0.4342 -1.3256
 1944TIP3    H227324   3.836   2.762  14.188  2.2084 -0.8742  1.1710
 1945TIP3   OH227325   4.023   6.729  13.519  0.0310 -0.3163 -0.2347
 1945TIP3    H127326   4.110   6.691  13.501 -0.0717 -0.0298 -1.3784
 1945TIP3    H227327   3.999   6.772  13.437 -0.8082  0.3699  0.3740
 1946TIP3   OH227328   2.089   1.314   4.168  0.6627  0.1693  0.0055
 1946TIP3    H127329   2.039   1.268   4.236  1.5851 -0.2991  0.3678
 1946TIP3    H227330   2.174   1.272   4.168  1.6432  2.0767  0.5501
 1947TIP3   OH227331   3.120   4.698  16.389  0.6190  0.3514  0.3211
 1947TIP3    H127332   3.109   4.723  16.297 -1.6034 -0.2153  0.4007
 1947TIP3    H227333   3.136   4.781  16.435  1.5729  0.6534 -0.5356
 1948TIP3   OH227334   5.399   3.723   0.220  0.1222  0.6817  0.6218
 1948TIP3    H127335   5.343   3.696   0.293 -3.2673  0.9313 -1.7847
 1948TIP3    H227336   5.413   3.816   0.234 -1.1760  0.8951  0.5633
 1949TIP3   OH227337   3.503   1.407  10.571  0.8746  0.1733  0.3664
 1949TIP3    H127338   3.555   1.344  10.521 -2.4923 -1.3627 -1.3524
 1949TIP3    H227339   3.514   1.490  10.524  0.3889 -0.5222 -0.9867
 1950TIP3   OH227340   5.314   4.821   3.339  0.3787  0.0760 -0.6412
 1950TIP3    H127341   5.362   4.850   3.416  1.0226 -2.1159 -0.1801
 1950TIP3    H227342   5.284   4.902   3.297  2.5098  1.3890  0.3157
 1951TIP3   OH227343   4.193   2.793  12.468  0.6794 -0.8532 -0.0387
 1951TIP3    H127344   4.137   2.832  12.401 -1.8014 -1.0917  1.7737
 1951TIP3    H227345   4.137   2.727  12.510  2.3069 -1.0707  1.9016
 1952TIP3   OH227346   4.216   3.885  15.982  0.3334  0.0574  0.3326
 1952TIP3    H127347   4.149   3.895  16.050  0.7294  2.0021  0.4769
 1952TIP3    H227348   4.193   3.951  15.917 -0.3278 -2.1142 -1.6888
 1953TIP3   OH227349   2.466   2.578  15.322 -0.2789 -0.5230  0.1141
 1953TIP3    H127350   2.498   2.507  15.267 -0.8107  0.2263 -1.1804
 1953TIP3    H227351   2.424   2.534  15.396  0.6205 -1.5358  0.0282
 1954TIP3   OH227352   0.371   1.145  13.277 -0.0527  0.1512  0.3320
 1954TIP3    H127353   0.299   1.203  13.303 -1.5791 -1.5083 -0.0948
 1954TIP3    H227354   0.441   1.165  13.338 -1.4272  0.6815  1.7845
 1955TIP3   OH227355   3.749   5.955  16.054 -0.2820  0.1759 -0.4711
 1955TIP3    H127356   3.836   5.976  16.018 -0.7088  1.8533 -0.5857
 1955TIP3    H227357   3.766   5.890  16.121  0.9255 -0.4789 -1.3814
 1956TIP3   OH227358   1.187   3.183   1.388 -0.0680  0.2321 -0.0358
 1956TIP3    H127359   1.270   3.230   1.385  0.4167 -0.4221  2.3109
 1956TIP3    H227360   1.121   3.252   1.400  0.3712  0.5589  0.5257
 1957TIP3   OH227361   1.742   0.982  12.241 -0.3695 -0.5513  0.0130
 1957TIP3    H127362   1.809   0.983  12.309 -0.4773 -2.8971  0.1832
 1957TIP3    H227363   1.685   1.055  12.263  0.3880 -0.4290  1.6379
 1958TIP3   OH227364   1.610   5.672   4.044  0.2936 -0.6510  0.5407
 1958TIP3    H127365   1.695   5.657   4.001  0.2139 -1.0365  0.5191
 1958TIP3    H227366   1.570   5.585   4.049  1.1968 -0.9363  3.2877
 1959TIP3   OH227367   1.799   1.309   3.917  0.1666  0.0721  0.4821
 1959TIP3    H127368   1.851   1.384   3.887 -0.6289 -0.1859 -1.5860
 1959TIP3    H227369   1.781   1.259   3.838 -3.1129  0.0579  1.1676
 1960TIP3   OH227370   1.669   5.603  16.804  0.0332 -0.2811  0.0148
 1960TIP3    H127371   1.589   5.551  16.801  0.4340 -0.8296 -1.7550
 1960TIP3    H227372   1.682   5.622  16.897 -2.5141  0.4264  0.2629
 1961TIP3   OH227373   0.582   0.777   4.129  0.4832 -0.1685  0.2973
 1961TIP3    H127374   0.574   0.788   4.224  1.8333  0.0869  0.3945
 1961TIP3    H227375   0.617   0.689   4.119  1.2769  0.1731  0.0808
 1962TIP3   OH227376   3.196   5.950  15.297 -0.0933 -0.4960  0.0070
 1962TIP3    H127377   3.177   5.876  15.240 -0.9036  0.5081 -1.0503
 1962TIP3    H227378   3.111   5.976  15.333  0.0050  0.6406 -0.5492
 1963TIP3   OH227379   1.983   0.068   1.757  0.0871 -0.4254  0.3795
 1963TIP3    H127380   2.009   0.160   1.754 -1.5985  0.1193  1.7309
 1963TIP3    H227381   1.959   0.047   1.666 -0.2535  0.6841  0.2061
 1964TIP3   OH227382   3.643   5.564   4.393 -0.4949 -0.4118 -0.2412
 1964TIP3    H127383   3.579   5.600   4.454 -0.9850 -1.7843  0.0706
 1964TIP3    H227384   3.603   5.574   4.307 -0.7467 -0.4812 -0.1302
 1965TIP3   OH227385   2.194   1.306   1.478 -0.1787  0.1811 -0.2773
 1965TIP3    H127386   2.249   1.251   1.422  0.3064 -0.0252  0.3869
 1965TIP3    H227387   2.135   1.244   1.522 -1.2377  0.4427 -1.2967
 1966TIP3   OH227388   2.245   5.196   4.302 -0.1382 -0.5551  0.4544
 1966TIP3    H127389   2.337   5.183   4.280 -0.4922  0.3694 -1.6830
 1966TIP3    H227390   2.202   5.211   4.218 -2.0104  0.3832  1.5460
 1967TIP3   OH227391   6.626   4.618  11.047  0.0110 -0.0050 -0.5778
 1967TIP3    H127392   6.563   4.580  10.985 -0.7914  0.4514 -0.0531
 1967TIP3    H227393   6.638   4.708  11.016 -0.3599  0.2105 -0.1019
 1968TIP3   OH227394   3.763   4.134   4.324  0.0270 -0.5316  0.4015
 1968TIP3    H127395   3.840   4.090   4.289 -0.5443 -1.4734  0.3073
 1968TIP3    H227396   3.756   4.103   4.414  0.9073  1.1044  1.0448
 1969TIP3   OH227397   3.800   0.010  14.365 -0.0703 -0.4636  0.3917
 1969TIP3    H127398   3.852  -0.005  14.285 -0.7280 -1.7504  0.1966
 1969TIP3    H227399   3.709   0.009  14.335 -0.3573 -1.7212  1.2713
 1970TIP3   OH227400   1.621   2.696   3.448 -0.1644 -0.2876  0.7027
 1970TIP3    H127401   1.660   2.626   3.394 -0.1544  0.2380  0.0238
 1970TIP3    H227402   1.684   2.767   3.444 -0.0813 -0.3069  1.5644
 1971TIP3   OH227403   6.207   6.266  14.213 -0.5576  0.2366  0.4835
 1971TIP3    H127404   6.135   6.211  14.246 -0.7328  0.7797  1.0028
 1971TIP3    H227405   6.271   6.267  14.284  0.8047 -1.7276 -0.6539
 1972TIP3   OH227406   5.700   1.856   1.247 -0.6178  0.0347  0.2103
 1972TIP3    H127407   5.634   1.787   1.237  0.0587 -0.5676 -0.1651
 1972TIP3    H227408   5.723   1.881   1.158 -1.1597  1.0472  0.3491
 1973TIP3   OH227409   1.714   3.692   0.021  0.7515  0.2466 -0.7191
 1973TIP3    H127410   1.655   3.663   0.090 -0.8163  1.2915 -1.5604
 1973TIP3    H227411   1.782   3.625   0.016  1.0656  0.3320  2.0242
 1974TIP3   OH227412   2.066   2.056  11.280 -0.3661 -0.3690 -0.4242
 1974TIP3    H127413   2.085   2.137  11.326  0.3652 -0.3883 -0.6867
 1974TIP3    H227414   2.069   1.988  11.347 -1.5359 -0.1144 -0.1039
 1975TIP3   OH227415   2.558   3.533   1.945 -0.3632  0.1214 -0.2897
 1975TIP3    H127416   2.585   3.482   1.869 -0.7091 -1.5263  0.6600
 1975TIP3    H227417   2.467   3.507   1.959  0.0333 -0.4533  1.3397
 1976TIP3   OH227418   2.056   6.172   3.396  0.7279  0.1701 -0.0594
 1976TIP3    H127419   2.098   6.164   3.310  2.3775  0.5363  0.6873
 1976TIP3    H227420   2.127   6.158   3.459 -0.8396 -2.0155  1.2777
 1977TIP3   OH227421   6.751   4.086   2.261  0.2985 -1.0925 -0.2807
 1977TIP3    H127422   6.764   4.173   2.299 -0.4875 -1.3106  0.4964
 1977TIP3    H227423   6.694   4.041   2.324  0.1409 -1.9309 -1.0261
 1978TIP3   OH227424   4.689   6.190  14.008 -0.3413 -0.4249 -0.3801
 1978TIP3    H127425   4.685   6.283  13.987  1.2344 -0.4852 -1.0371
 1978TIP3    H227426   4.627   6.149  13.948 -1.5663  0.2650  0.3958
 1979TIP3   OH227427   0.551   0.757   2.582  0.2481  0.1486 -0.0613
 1979TIP3    H127428   0.505   0.676   2.558  0.0319  0.2028  0.1609
 1979TIP3    H227429   0.505   0.826   2.534  1.6877 -0.0896 -1.8125
 1980TIP3   OH227430   1.058   3.488  12.946  0.4349  0.0584 -0.1569
 1980TIP3    H127431   1.033   3.458  13.033  0.9014 -0.4718 -0.2056
 1980TIP3    H227432   1.051   3.583  12.951  0.9327  0.0548  0.6029
 1981TIP3   OH227433   0.294   2.732  14.029  0.3966 -0.0933  0.4410
 1981TIP3    H127434   0.255   2.646  14.019  1.4257 -0.2960 -2.4628
 1981TIP3    H227435   0.263   2.764  14.113 -1.0354 -2.7551  0.9555
 1982TIP3   OH227436   1.300   4.113   3.853 -0.2898  0.2636  0.1877
 1982TIP3    H127437   1.223   4.170   3.856 -1.6382 -1.5752  1.1171
 1982TIP3    H227438   1.288   4.062   3.773 -0.5604 -0.7408  0.8660
 1983TIP3   OH227439   4.926   5.752   5.859 -0.9947  0.0566 -0.6894
 1983TIP3    H127440   5.009   5.709   5.836 -1.6810 -0.7806 -1.6326
 1983TIP3    H227441   4.934   5.840   5.820 -0.7692 -0.2026 -1.2433
 1984TIP3   OH227442   5.973   5.470   2.891  0.1034  0.1001 -0.4713
 1984TIP3    H127443   6.066   5.451   2.892  0.4871  1.9183  0.2043
 1984TIP3    H227444   5.959   5.527   2.967 -1.9659 -1.9864  0.7622
 1985TIP3   OH227445   0.174   4.843   6.199 -0.4725  0.0799  0.1452
 1985TIP3    H127446   0.241   4.894   6.245 -0.7786  1.1083 -0.5355
 1985TIP3    H227447   0.160   4.767   6.255  0.5212  0.3693  0.8125
 1986TIP3   OH227448   5.118   6.663  15.300 -0.1823  0.0673  0.1802
 1986TIP3    H127449   5.160   6.686  15.217  0.9380  1.4819  1.1204
 1986TIP3    H227450   5.050   6.600  15.275  0.1911  0.3972 -1.7999
 1987TIP3   OH227451   0.281   3.996  10.775  0.7460 -0.1477 -0.2933
 1987TIP3    H127452   0.278   4.023  10.683  0.5117  1.4789  0.1843
 1987TIP3    H227453   0.368   4.024  10.805  0.0431  1.1662  0.5315
 1988TIP3   OH227454   2.168   1.979   5.956 -0.0208  0.3435  0.4971
 1988TIP3    H127455   2.148   2.072   5.969  1.0531  0.8246 -1.2497
 1988TIP3    H227456   2.230   1.957   6.026 -1.1245  0.6310  1.5919
 1989TIP3   OH227457   4.679   1.702  15.299  0.6955 -0.1267 -0.4712
 1989TIP3    H127458   4.721   1.670  15.219 -2.9876  0.3000 -2.7188
 1989TIP3    H227459   4.634   1.626  15.334  2.0321 -0.2295  1.0417
 1990TIP3   OH227460   3.349   6.039   3.452  0.0352 -0.3444 -0.3499
 1990TIP3    H127461   3.388   5.977   3.391  0.6739 -0.2092 -0.0897
 1990TIP3    H227462   3.339   5.989   3.533 -0.3607 -0.3861 -0.4247
 1991TIP3   OH227463   2.049   3.425  12.146  0.1029  0.2205 -1.3323
 1991TIP3    H127464   1.985   3.488  12.112 -0.7717  0.1139  0.1016
 1991TIP3    H227465   2.108   3.478  12.200  0.8016  0.1950 -2.0575
 1992TIP3   OH227466   1.901   0.142  15.912  1.1292  0.7302 -0.3129
 1992TIP3    H127467   1.929   0.182  15.995  0.9801  0.1803  0.0056
 1992TIP3    H227468   1.838   0.204  15.876 -0.0509  0.2086  0.7899
 1993TIP3   OH227469   1.682   0.154   0.196 -0.7298 -0.1430 -0.5095
 1993TIP3    H127470   1.766   0.156   0.242 -1.4029 -0.7063  0.7808
 1993TIP3    H227471   1.705   0.148   0.103  0.6477 -2.4262 -0.0519
 1994TIP3   OH227472   2.656   5.390  13.763 -0.4920 -0.0449 -0.1534
 1994TIP3    H127473   2.631   5.413  13.853 -0.8528  0.6952 -0.4400
 1994TIP3    H227474   2.617   5.458  13.709  0.2591 -0.1266 -0.8174
 1995TIP3   OH227475   3.344   4.332   5.194  0.2448  0.3290 -0.2543
 1995TIP3    H127476   3.418   4.357   5.249 -0.2553  0.3669  0.4053
 1995TIP3    H227477   3.377   4.340   5.105  0.5303  1.9408 -0.0120
 1996TIP3   OH227478   2.210   4.247   5.495  0.2322 -0.0556 -0.0240
 1996TIP3    H127479   2.241   4.310   5.430 -0.0828 -2.1802 -2.2525
 1996TIP3    H227480   2.141   4.199   5.451  1.4561 -2.9794  1.1393
 1997TIP3   OH227481   4.160   5.765  13.307 -0.0980  0.3823  0.2688
 1997TIP3    H127482   4.248   5.769  13.269 -1.0432  1.6679 -1.8095
 1997TIP3    H227483   4.157   5.839  13.368  0.1736  0.4747  0.1721
 1998TIP3   OH227484   6.503   2.337  13.591 -0.1313 -0.3875  0.1948
 1998TIP3    H127485   6.495   2.398  13.518  1.1955  0.2632  0.5741
 1998TIP3    H227486   6.564   2.270  13.559  0.3235 -0.1901  0.6578
 1999TIP3   OH227487   2.006   6.279   1.597  0.1127  0.4825  0.6027
 1999TIP3    H127488   1.964   6.281   1.511  1.7449 -1.0813 -0.2540
 1999TIP3    H227489   1.953   6.217   1.647  0.3181 -0.1168  0.0887
 2000TIP3   OH227490   1.523   4.574  14.632 -0.5962  0.2083 -0.7182
 2000TIP3    H127491   1.484   4.642  14.578 -1.3449 -0.7513 -1.4145
 2000TIP3    H227492   1.545   4.504  14.571 -2.1419 -1.1872  0.2835
 2001TIP3   OH227493   4.616   5.701   1.090 -0.1382  0.1836  1.1412
 2001TIP3    H127494   4.638   5.662   1.174 -0.1375 -1.3225  0.4496
 2001TIP3    H227495   4.644   5.637   1.025 -0.9804  0.9196  0.0248
 2002TIP3   OH227496   2.331   1.431   2.262  0.1822 -0.8535 -0.8601
 2002TIP3    H127497   2.371   1.451   2.177 -0.4029 -0.3120 -1.0118
 2002TIP3    H227498   2.334   1.335   2.267 -0.1603 -0.9146 -1.6835
 2003TIP3   OH227499   0.808   4.882   1.673  0.0747 -0.3756  0.2898
 2003TIP3    H127500   0.845   4.824   1.739 -1.0721 -1.4381  0.0355
 2003TIP3    H227501   0.848   4.967   1.689  0.4503 -0.8318  1.7929
 2004TIP3   OH227502   6.248   0.264  14.783  0.4469 -0.6128  0.1032
 2004TIP3    H127503   6.184   0.328  14.815  0.4653  0.2166 -1.5118
 2004TIP3    H227504   6.324   0.276  14.840 -0.7237 -1.4770  1.9243
 2005TIP3   OH227505   5.239   0.866   3.810 -0.5041 -0.5377 -0.2777
 2005TIP3    H127506   5.268   0.784   3.769 -0.0346 -0.7377  0.4609
 2005TIP3    H227507   5.199   0.839   3.892  1.4174  0.1371  0.9066
 2006TIP3   OH227508   2.452   2.084   5.808  0.1517  0.6688  0.2023
 2006TIP3    H127509   2.376   2.128   5.770 -0.5950  1.1848  2.2141
 2006TIP3    H227510   2.513   2.155   5.829  0.3323  0.4498  0.4295
 2007TIP3   OH227511   6.262   4.261   5.066 -0.3430  0.0576  0.3710
 2007TIP3    H127512   6.312   4.284   4.987 -1.9620 -2.8255 -1.5609
 2007TIP3    H227513   6.184   4.316   5.061  0.3962  1.1914  0.9584
 2008TIP3   OH227514   0.596   1.257   3.385 -0.5287 -0.1169 -0.3784
 2008TIP3    H127515   0.604   1.180   3.442 -1.0674  0.5210  0.5702
 2008TIP3    H227516   0.578   1.220   3.299 -1.7504 -1.0351  0.2542
 2009TIP3   OH227517   0.338   0.695  11.227  0.4834  0.1377  0.0291
 2009TIP3    H127518   0.348   0.601  11.209  0.7871  0.3131 -0.7545
 2009TIP3    H227519   0.245   0.705  11.249  0.0648 -0.0896 -1.5518
 2010TIP3   OH227520   5.502   5.907   0.276  0.5084 -0.5583  0.0494
 2010TIP3    H127521   5.564   5.963   0.321  1.5121 -1.4767 -0.1701
 2010TIP3    H227522   5.457   5.859   0.345  1.2856 -1.1766  0.1286
 2011TIP3   OH227523   1.041   5.646   1.371 -0.4886 -0.3598  0.1134
 2011TIP3    H127524   1.025   5.623   1.279 -0.4961 -1.0440  0.2832
 2011TIP3    H227525   0.953   5.657   1.408 -0.5134 -1.5329  0.4007
 2012TIP3   OH227526   4.436   2.101  13.094  0.0348  0.0111  0.0496
 2012TIP3    H127527   4.439   2.170  13.027 -2.5091  0.3196  0.1858
 2012TIP3    H227528   4.479   2.026  13.054  0.6150  0.9229 -1.0472
 2013TIP3   OH227529   4.837   2.700  11.741 -0.0586  0.1969  0.1577
 2013TIP3    H127530   4.877   2.661  11.663  1.6384  0.1737  1.0250
 2013TIP3    H227531   4.810   2.788  11.713  0.8145  0.2989 -0.3731
 2014TIP3   OH227532   6.555   6.542   0.164  0.4861  0.6517 -0.0787
 2014TIP3    H127533   6.476   6.524   0.214  0.9226 -1.1031  0.0212
 2014TIP3    H227534   6.616   6.473   0.190  1.7083  1.3989 -0.8897
 2015TIP3   OH227535   1.510   2.616   3.935 -0.3142  0.3390 -0.2288
 2015TIP3    H127536   1.458   2.635   3.857 -0.8819 -1.4355 -0.2995
 2015TIP3    H227537   1.573   2.689   3.939 -1.1996  1.2118 -1.5155
 2016TIP3   OH227538   5.411   2.662   0.816  0.2242  0.7729  0.3558
 2016TIP3    H127539   5.401   2.756   0.800 -0.4260  0.3803 -1.5315
 2016TIP3    H227540   5.322   2.628   0.820  0.4630  0.1779  0.7264
 2017TIP3   OH227541   2.223   4.028  15.711  1.0566  0.1386 -0.0525
 2017TIP3    H127542   2.296   4.082  15.682  1.3051 -0.1407  0.0470
 2017TIP3    H227543   2.243   4.006  15.802  0.1844  1.1588  0.3897
 2018TIP3   OH227544   0.324   3.213  13.637  0.0166 -0.1488 -0.6449
 2018TIP3    H127545   0.305   3.296  13.681  1.8038 -0.6943  1.2486
 2018TIP3    H227546   0.251   3.201  13.577 -2.9770  0.2939  2.7027
 2019TIP3   OH227547   4.014   2.904  15.313 -0.2403  0.5006 -0.0840
 2019TIP3    H127548   3.919   2.895  15.313 -0.2465  0.3589 -2.5736
 2019TIP3    H227549   4.037   2.922  15.222  1.9998  1.9656  0.7362
 2020TIP3   OH227550   4.042   2.492   2.627  0.8991 -0.3618 -0.3635
 2020TIP3    H127551   4.042   2.487   2.722  0.3186 -1.5952 -0.4224
 2020TIP3    H227552   3.950   2.479   2.603  1.2184 -1.1868 -1.1471
 2021TIP3   OH227553   3.027   0.812  13.700  0.3878  0.0443 -0.2266
 2021TIP3    H127554   2.954   0.755  13.676  0.3524  0.2678 -0.6554
 2021TIP3    H227555   3.085   0.811  13.624  1.2907 -0.8529  0.4627
 2022TIP3   OH227556   1.107   2.769   0.807 -0.5371 -0.5826  0.2550
 2022TIP3    H127557   1.038   2.782   0.872 -0.6477  0.4841 -0.0637
 2022TIP3    H227558   1.137   2.857   0.786  1.2979 -1.0485  0.7704
 2023TIP3   OH227559   2.107   6.276   3.752  0.2539  0.8293  0.0113
 2023TIP3    H127560   2.068   6.258   3.837 -0.5055 -0.9241 -0.6703
 2023TIP3    H227561   2.192   6.231   3.754  0.2772  0.8665 -0.1151
 2024TIP3   OH227562   3.084   4.272   5.148 -0.3785 -0.2449  0.1861
 2024TIP3    H127563   3.050   4.201   5.203  0.6898 -0.3006  0.7752
 2024TIP3    H227564   3.178   4.274   5.166 -0.6984  2.6963  1.7345
 2025TIP3   OH227565   1.381   6.343  11.919 -0.2113 -0.1834 -0.2717
 2025TIP3    H127566   1.347   6.306  12.000 -0.1985 -0.2172 -0.2826
 2025TIP3    H227567   1.414   6.430  11.945  1.2953 -0.8545  0.0883
 2026TIP3   OH227568   5.107   5.070   1.313 -0.3073 -0.0866 -0.0240
 2026TIP3    H127569   5.038   5.055   1.378 -0.6201 -0.3118 -0.4084
 2026TIP3    H227570   5.186   5.032   1.353 -0.1243  1.3192  0.9673
 2027TIP3   OH227571   2.413   1.207  12.467 -0.4072 -0.4924 -0.3326
 2027TIP3    H127572   2.363   1.289  12.472 -0.2861 -0.4296 -0.1550
 2027TIP3    H227573   2.485   1.227  12.406 -0.7218 -0.6481 -0.7616
 2028TIP3   OH227574   1.028   5.825  14.318 -0.2178  0.0437  0.0610
 2028TIP3    H127575   1.000   5.734  14.322 -2.8265  0.8522  1.1168
 2028TIP3    H227576   0.948   5.876  14.328  1.3322  2.4626  0.7278
 2029TIP3   OH227577   0.325   0.496   0.710 -0.0175  0.4589 -0.4912
 2029TIP3    H127578   0.380   0.497   0.788 -0.5340 -0.0559 -0.1122
 2029TIP3    H227579   0.373   0.441   0.648 -0.1748 -0.1112 -0.1093
 2030TIP3   OH227580   6.669   0.214  11.833 -0.1181  0.1192 -0.8000
 2030TIP3    H127581   6.661   0.185  11.923 -0.3927 -0.1456 -0.9086
 2030TIP3    H227582   6.681   0.134  11.782 -0.4863  0.2219 -1.0537
 2031TIP3   OH227583   4.409   2.807  15.013 -1.0595 -0.3075 -0.2227
 2031TIP3    H127584   4.459   2.852  14.944  1.2757 -0.3959  1.3354
 2031TIP3    H227585   4.319   2.806  14.981 -0.5831  2.4384 -1.8540
 2032TIP3   OH227586   1.861   0.614   4.882 -0.3677  0.1629  0.1473
 2032TIP3    H127587   1.876   0.668   4.960  1.2716  0.3034 -0.2331
 2032TIP3    H227588   1.890   0.527   4.907 -2.1213 -0.3463  0.4540
 2033TIP3   OH227589   0.509   2.500  13.790 -0.7017 -0.1693  0.4996
 2033TIP3    H127590   0.533   2.505  13.883 -0.0835  0.1188  0.3192
 2033TIP3    H227591   0.503   2.591  13.762 -1.3692 -0.2453  0.3768
 2034TIP3   OH227592   1.997   2.416  11.090 -0.0319  0.2881 -0.0661
 2034TIP3    H127593   2.010   2.434  11.183 -2.2359 -3.5176  1.0971
 2034TIP3    H227594   1.917   2.464  11.068  0.5726  1.3117 -0.0290
 2035TIP3   OH227595   1.044   3.789  11.483 -0.2351  0.2250  0.7943
 2035TIP3    H127596   1.125   3.748  11.453 -0.3113  0.1569  0.6811
 2035TIP3    H227597   1.031   3.756  11.572 -0.6496 -0.5172  0.4585
 2036TIP3   OH227598   2.608   1.198   4.878  0.0324  0.1078  0.2775
 2036TIP3    H127599   2.688   1.195   4.930 -0.4349 -0.8071  0.9566
 2036TIP3    H227600   2.544   1.148   4.929 -0.2256 -1.4293 -1.5077
 2037TIP3   OH227601   5.690   3.970  12.197  0.0167  0.7394 -0.5713
 2037TIP3    H127602   5.737   4.036  12.248 -0.9974  0.6198  0.5393
 2037TIP3    H227603   5.755   3.937  12.135  0.9326  1.7461 -0.1676
 2038TIP3   OH227604   6.512   6.527   3.177 -0.0726 -0.1319  0.7583
 2038TIP3    H127605   6.554   6.543   3.092  1.3692 -2.1112  1.0596
 2038TIP3    H227606   6.578   6.553   3.241 -0.6345  0.0407  1.2711
 2039TIP3   OH227607   6.249   3.556  12.398 -0.2752 -0.1453  0.3574
 2039TIP3    H127608   6.275   3.466  12.376  0.0617  0.7713 -3.3653
 2039TIP3    H227609   6.307   3.611  12.345  1.0774  2.3940  4.2871
 2040TIP3   OH227610   3.586   2.756  15.487 -0.6878 -0.1155 -0.0271
 2040TIP3    H127611   3.575   2.742  15.581 -0.6820  2.1927  0.3354
 2040TIP3    H227612   3.666   2.707  15.465 -0.1346  0.1388  1.3650
 2041TIP3   OH227613   3.615   3.037  14.350  0.2314  0.1191  0.1380
 2041TIP3    H127614   3.541   3.028  14.290  0.8956 -2.7030 -0.3301
 2041TIP3    H227615   3.583   3.004  14.433 -0.2151  2.6271  1.0211
 2042TIP3   OH227616   3.526   6.562  16.894 -0.3777  0.3686 -0.0549
 2042TIP3    H127617   3.503   6.545  16.986  1.6746  0.3961  0.4973
 2042TIP3    H227618   3.519   6.477  16.851 -1.5325  0.3900  0.0630
 2043TIP3   OH227619   0.922   4.624  16.267 -0.2348 -0.7981 -0.2666
 2043TIP3    H127620   0.983   4.558  16.300 -0.6515 -1.0046  0.0855
 2043TIP3    H227621   0.850   4.625  16.330 -1.3257 -1.6273 -1.4735
 2044TIP3   OH227622   1.536   5.892   0.475  0.4743  0.6428  0.4900
 2044TIP3    H127623   1.488   5.876   0.393 -0.2726  0.9535  0.8602
 2044TIP3    H227624   1.508   5.822   0.533  2.1828 -0.4904 -0.0041
 2045TIP3   OH227625   4.828   0.258  17.084 -0.4241 -0.1082  0.0713
 2045TIP3    H127626   4.774   0.276  17.162 -0.4854 -0.0584  0.0179
 2045TIP3    H227627   4.838   0.343  17.042 -0.6095 -0.1784 -0.1168
 2046TIP3   OH227628   6.552   6.646  14.878 -0.4114  0.4694  1.1292
 2046TIP3    H127629   6.549   6.719  14.817  0.4122 -0.7394 -0.3782
 2046TIP3    H227630   6.461   6.622  14.892 -0.5136 -0.4680 -1.1045
 2047TIP3   OH227631   4.291   3.018  14.807 -0.1655 -0.2261 -0.1203
 2047TIP3    H127632   4.317   2.993  14.718 -0.9749 -0.2100 -0.3690
 2047TIP3    H227633   4.213   3.073  14.795 -0.1482 -0.0339  0.5878
 2048TIP3   OH227634   6.023   4.323  16.621  0.1726 -0.2549 -0.7852
 2048TIP3    H127635   6.027   4.306  16.715 -2.6067  0.7182 -0.4433
 2048TIP3    H227636   6.003   4.238  16.582  1.2392 -0.6421 -0.5212
 2049TIP3   OH227637   0.521   2.356   4.888 -0.5022  0.2894  0.3698
 2049TIP3    H127638   0.527   2.447   4.917 -1.8244  0.5007  0.0103
 2049TIP3    H227639   0.438   2.325   4.924  0.6000 -1.2282  1.6917
 2050TIP3   OH227640   1.601   5.831  11.390  0.5581  0.2985  0.2405
 2050TIP3    H127641   1.529   5.845  11.452  0.3302  0.0083  0.0433
 2050TIP3    H227642   1.680   5.856  11.439  0.3430  0.4220  0.5254
 2051TIP3   OH227643   2.280   3.854   3.855  0.2489  0.1800  0.5560
 2051TIP3    H127644   2.320   3.810   3.780 -1.8259  0.6523 -0.8445
 2051TIP3    H227645   2.274   3.785   3.922  1.2504 -0.4831 -0.0202
 2052TIP3   OH227646   2.794   0.018   0.225  0.0457 -0.0523 -0.5201
 2052TIP3    H127647   2.836  -0.022   0.301  1.9344 -0.9565 -1.9853
 2052TIP3    H227648   2.736  -0.050   0.192 -0.0535 -0.0018 -0.4516
 2053TIP3   OH227649   2.019   5.524   1.533 -0.1831  0.8106  0.2499
 2053TIP3    H127650   1.977   5.442   1.506  1.6692  0.8485 -3.1539
 2053TIP3    H227651   2.076   5.499   1.606 -0.2786 -0.8042 -0.2119
 2054TIP3   OH227652   1.056   2.427   4.840 -0.3284 -0.3160 -0.1583
 2054TIP3    H127653   1.026   2.487   4.908 -0.2057 -0.4207 -0.0128
 2054TIP3    H227654   1.127   2.378   4.880  0.8736  0.7769 -0.8751
 2055TIP3   OH227655   2.978   1.397   0.235  0.4693  0.2655 -0.9085
 2055TIP3    H127656   2.909   1.451   0.275 -0.2229 -1.0545 -0.2797
 2055TIP3    H227657   3.002   1.335   0.304  1.3830 -0.1159 -1.5627
 2056TIP3   OH227658   0.361   3.377  14.236 -0.0809  0.4242  0.4756
 2056TIP3    H127659   0.334   3.379  14.328 -1.6925  0.2363  0.0144
 2056TIP3    H227660   0.279   3.385  14.186  0.6596 -0.6538 -0.9506
 2057TIP3   OH227661   5.101   5.096  10.875 -0.3102  0.1202 -0.4565
 2057TIP3    H127662   5.064   5.157  10.937  1.1985  0.0027  0.6006
 2057TIP3    H227663   5.071   5.126  10.789 -1.0514  1.2596  0.2007
 2058TIP3   OH227664   3.216   6.277   3.593 -0.3189  0.4257 -0.0028
 2058TIP3    H127665   3.278   6.348   3.578 -0.5494  0.2812 -1.7413
 2058TIP3    H227666   3.262   6.199   3.562 -0.2011 -0.1544  1.5713
 2059TIP3   OH227667   0.260   3.104   0.416  0.1254 -0.3855  0.5253
 2059TIP3    H127668   0.230   3.017   0.388  2.0549 -0.9247  0.0553
 2059TIP3    H227669   0.343   3.087   0.460  1.0415  1.3440 -0.5131
 2060TIP3   OH227670   3.586   0.626   0.981  0.2257  0.0725  0.2481
 2060TIP3    H127671   3.533   0.687   1.032 -0.1174  1.4503 -1.6983
 2060TIP3    H227672   3.668   0.674   0.965  0.0547 -0.0752 -1.0792
 2061TIP3   OH227673   0.541   2.872  11.758 -0.2268  0.2191  0.3080
 2061TIP3    H127674   0.550   2.842  11.849 -3.7544 -2.3587 -0.0580
 2061TIP3    H227675   0.591   2.808  11.707 -0.4988  0.0640  0.2342
 2062TIP3   OH227676   6.224   3.122   1.807 -0.1766 -0.5079  0.4207
 2062TIP3    H127677   6.146   3.177   1.797  0.0022  0.3263  3.0347
 2062TIP3    H227678   6.295   3.185   1.821  0.4518 -1.3373  0.9698
 2063TIP3   OH227679   2.640   5.883  13.356 -0.5403 -0.3009 -0.5267
 2063TIP3    H127680   2.555   5.918  13.330  0.4313  1.4870 -1.4157
 2063TIP3    H227681   2.658   5.923  13.441 -0.3314 -0.2119 -0.6110
 2064TIP3   OH227682   1.599   2.871   0.623  0.0890  0.5594  0.8162
 2064TIP3    H127683   1.670   2.931   0.601  0.3704  0.8055  2.3155
 2064TIP3    H227684   1.633   2.785   0.601  0.5335  0.7509  0.7418
 2065TIP3   OH227685   5.317   0.381  17.133  0.0569 -0.2829  0.0366
 2065TIP3    H127686   5.337   0.415  17.220  0.0806 -1.8550  0.6573
 2065TIP3    H227687   5.400   0.383  17.087 -0.0459  0.9975 -0.1215
 2066TIP3   OH227688   0.878   5.319   4.428  0.2342  0.0398  0.1856
 2066TIP3    H127689   0.823   5.362   4.493  0.0771  0.7728 -0.4304
 2066TIP3    H227690   0.879   5.227   4.454 -0.6211  0.1670  0.6626
 2067TIP3   OH227691   5.580   6.120   4.995  0.2236 -0.1918 -0.3399
 2067TIP3    H127692   5.559   6.111   4.902  0.7169 -0.9410 -0.3861
 2067TIP3    H227693   5.676   6.127   4.997  0.1355  0.9826  0.0288
 2068TIP3   OH227694   2.773   2.728   5.222  1.0011 -0.6481  0.3455
 2068TIP3    H127695   2.807   2.804   5.176  1.8440  0.2257  2.3494
 2068TIP3    H227696   2.716   2.684   5.158  1.2047  1.1569 -1.1100
 2069TIP3   OH227697   3.699   5.025   5.056  0.2227 -0.3525  0.0655
 2069TIP3    H127698   3.631   5.088   5.031 -0.8344 -1.5700 -0.1566
 2069TIP3    H227699   3.723   4.982   4.974  0.1879 -0.9803  0.3841
 2070TIP3   OH227700   5.928   4.327   2.870  0.4226  0.7788  0.0343
 2070TIP3    H127701   5.934   4.233   2.889 -1.7449  0.3211 -1.4033
 2070TIP3    H227702   5.934   4.332   2.774 -0.4724  2.0204  0.0389
 2071TIP3   OH227703   6.405   2.775   1.134 -0.5279 -0.1823  1.1216
 2071TIP3    H127704   6.399   2.708   1.065 -1.3205  0.7155  0.2933
 2071TIP3    H227705   6.456   2.846   1.094 -1.0546  0.3755  1.4278
 2072TIP3   OH227706   1.530   3.491   2.088 -0.0806  0.4819  0.1110
 2072TIP3    H127707   1.524   3.428   2.017 -0.3670  1.5115 -0.7879
 2072TIP3    H227708   1.620   3.484   2.119 -0.4990 -1.3669  0.9574
 2073TIP3   OH227709   2.073   4.028   1.602 -0.0667 -0.5151  0.3545
 2073TIP3    H127710   2.086   4.122   1.605 -1.1271 -0.3484 -0.1003
 2073TIP3    H227711   2.147   3.995   1.551  0.7835 -0.0321  1.2600
 2074TIP3   OH227712   0.932   2.476  17.004 -0.3236  0.3648  0.0609
 2074TIP3    H127713   0.885   2.514  17.078  1.2951  0.8917  0.8219
 2074TIP3    H227714   0.958   2.389  17.034 -1.9524 -0.4810 -0.8490
 2075TIP3   OH227715   2.631   0.968   0.913  0.1569  0.0354 -0.2147
 2075TIP3    H127716   2.613   0.880   0.947  0.8541  0.2068  0.5965
 2075TIP3    H227717   2.556   0.987   0.856 -0.5323 -0.6427  0.4581
 2076TIP3   OH227718   6.159   6.370  13.945  0.3395  0.7843  0.0803
 2076TIP3    H127719   6.199   6.317  14.014  0.7945  0.7901 -0.1730
 2076TIP3    H227720   6.187   6.328  13.863 -0.3910  0.6407 -0.0966
 2077TIP3   OH227721   0.746   6.075   3.570  0.0991  0.1015  0.6029
 2077TIP3    H127722   0.739   6.107   3.659  0.9871 -0.2135  0.7930
 2077TIP3    H227723   0.657   6.050   3.545 -0.4021  1.6327  0.8547
 2078TIP3   OH227724   1.114   1.577   3.153  0.4051 -0.6033  0.0181
 2078TIP3    H127725   1.036   1.590   3.208  1.0823 -1.2289  1.1406
 2078TIP3    H227726   1.156   1.499   3.189  2.5345  0.7472  0.5894
 2079TIP3   OH227727   3.808   6.601  11.949  0.1625  0.6943  0.0023
 2079TIP3    H127728   3.750   6.630  12.019 -0.8815 -1.0733 -0.1033
 2079TIP3    H227729   3.820   6.508  11.965  0.9090  0.5284 -1.4740
 2080TIP3   OH227730   1.380   3.882  14.754  0.2864 -0.2440 -0.0240
 2080TIP3    H127731   1.324   3.805  14.763 -1.5055  0.8993 -1.2829
 2080TIP3    H227732   1.320   3.954  14.735  1.9064  1.5380  1.3737
 2081TIP3   OH227733   2.228   2.532  14.502  0.1805 -0.3969  0.0489
 2081TIP3    H127734   2.289   2.586  14.552 -0.8456  0.8707 -0.0510
 2081TIP3    H227735   2.262   2.443  14.511  1.1726  0.0930  1.2560
 2082TIP3   OH227736   2.191   6.479  13.476 -0.3956 -0.6665  0.6551
 2082TIP3    H127737   2.255   6.463  13.545  1.5596  3.1128 -0.1174
 2082TIP3    H227738   2.241   6.473  13.394 -1.3030  0.9559 -0.0488
 2083TIP3   OH227739   3.828   1.425  13.013  0.1347  0.6150 -0.3314
 2083TIP3    H127740   3.748   1.448  12.967 -0.0585  1.5092  0.4363
 2083TIP3    H227741   3.891   1.493  12.988  0.8792 -0.4778 -1.4950
 2084TIP3   OH227742   4.499   1.559  11.139  0.4913 -0.6890 -0.2747
 2084TIP3    H127743   4.579   1.542  11.188  1.8829 -0.3020 -2.3600
 2084TIP3    H227744   4.515   1.521  11.053  0.3100  3.4229 -2.2680
 2085TIP3   OH227745   5.364   5.131  15.961 -0.0776  0.4951 -0.1433
 2085TIP3    H127746   5.448   5.110  15.922  0.2086  0.1524  0.6491
 2085TIP3    H227747   5.384   5.190  16.034 -0.2353 -1.6115  1.6703
 2086TIP3   OH227748   5.290   5.498   3.799 -0.3616 -0.5718 -0.0176
 2086TIP3    H127749   5.254   5.441   3.868 -1.0503  0.8065  0.7714
 2086TIP3    H227750   5.213   5.536   3.757  0.1014  0.0590 -0.2996
 2087TIP3   OH227751   4.613   2.130   2.285  0.0129 -0.1424 -0.1945
 2087TIP3    H127752   4.693   2.134   2.339 -0.0118 -0.6900 -0.1145
 2087TIP3    H227753   4.559   2.064   2.329 -0.3307 -0.0304 -0.4556
 2088TIP3   OH227754   3.717   6.356   3.232  0.2798  0.3991  0.3829
 2088TIP3    H127755   3.687   6.326   3.146  0.8356  0.0019  0.3227
 2088TIP3    H227756   3.738   6.448   3.219  1.2240  0.1187 -0.1395
 2089TIP3   OH227757   5.725   3.401   2.581 -0.0441  0.4227 -0.0302
 2089TIP3    H127758   5.645   3.402   2.529  0.5559  0.7506 -0.9677
 2089TIP3    H227759   5.795   3.400   2.516  0.7113  0.1038  0.7825
 2090TIP3   OH227760   2.373   0.930  11.175  0.2229 -0.7651 -0.1677
 2090TIP3    H127761   2.307   0.984  11.219  2.3343  0.2018  1.9529
 2090TIP3    H227762   2.347   0.930  11.083 -2.1539  0.4239  0.4770
 2091TIP3   OH227763   5.149   5.974   1.193 -0.0898 -0.3946 -0.5126
 2091TIP3    H127764   5.129   5.970   1.286  0.5433 -0.1149 -0.3591
 2091TIP3    H227765   5.244   5.991   1.189  0.0422 -1.2273 -1.2050
 2092TIP3   OH227766   1.169   4.295  15.050  0.5081 -0.2145 -0.0983
 2092TIP3    H127767   1.200   4.295  14.959  1.0531  1.1780  0.0727
 2092TIP3    H227768   1.086   4.249  15.047  0.6479 -0.4104 -1.2620
 2093TIP3   OH227769   2.729   1.885   4.891  0.2561 -0.3849 -0.2151
 2093TIP3    H127770   2.790   1.812   4.897  0.1779 -0.6160 -2.1390
 2093TIP3    H227771   2.783   1.962   4.907  0.3308 -0.8349  1.8623
 2094TIP3   OH227772   6.535   4.755  13.738  0.3353 -0.6972  0.8185
 2094TIP3    H127773   6.497   4.675  13.702 -0.3603 -0.3944  0.8866
 2094TIP3    H227774   6.600   4.724  13.802 -0.4047 -1.1975  1.3306
 2095TIP3   OH227775   6.052   4.577   1.419  0.4811 -0.2448  0.5262
 2095TIP3    H127776   6.126   4.618   1.373 -0.8713  2.1235  0.4123
 2095TIP3    H227777   5.999   4.539   1.349 -0.8345  2.1445  0.1511
 2096TIP3   OH227778   3.857   5.438  14.584 -0.4000  0.3936 -0.2396
 2096TIP3    H127779   3.762   5.449  14.583 -0.3998  0.3060 -1.1636
 2096TIP3    H227780   3.892   5.527  14.581 -0.4368  0.7392  4.6000
 2097TIP3   OH227781   3.800   4.456   3.106  0.2469  0.1047  0.0237
 2097TIP3    H127782   3.825   4.538   3.148  0.9774 -0.3490  0.4937
 2097TIP3    H227783   3.817   4.389   3.173 -1.1930 -0.3397 -0.0205
 2098TIP3   OH227784   2.002   0.866  11.081  0.3094 -0.1718 -0.5569
 2098TIP3    H127785   1.950   0.856  11.002  0.1723  1.3237 -0.6716
 2098TIP3    H227786   1.952   0.822  11.150 -0.9040  0.8855 -0.7542
 2099TIP3   OH227787   1.609   3.720  11.932 -0.3340 -0.0743  0.6738
 2099TIP3    H127788   1.530   3.666  11.938 -0.3230 -0.2296 -0.5357
 2099TIP3    H227789   1.579   3.810  11.943 -0.2650 -0.3396  3.4545
 2100TIP3   OH227790   0.120   2.504   0.574  0.1755 -0.0893 -0.4767
 2100TIP3    H127791   0.178   2.442   0.619  0.8091 -0.0274 -1.1917
 2100TIP3    H227792   0.115   2.469   0.485 -0.0096  0.5159 -0.6995
 2101TIP3   OH227793   6.117   6.085   4.035 -0.1488  0.2979 -0.2911
 2101TIP3    H127794   6.086   6.121   4.118  0.7118  0.1334  0.1029
 2101TIP3    H227795   6.043   6.034   4.002 -0.7463  0.9562  0.0177
 2102TIP3   OH227796   0.756   6.380   4.015  0.4087 -0.2043 -0.3205
 2102TIP3    H127797   0.702   6.434   4.073 -1.2316 -0.5989 -1.4335
 2102TIP3    H227798   0.736   6.290   4.040 -0.1740 -0.3699 -1.3882
 2103TIP3   OH227799   2.288   0.074  12.307 -0.2019 -0.4127  0.0930
 2103TIP3    H127800   2.195   0.064  12.287 -0.1108  0.9937 -1.1543
 2103TIP3    H227801   2.290   0.138  12.378 -0.2250 -1.1392  0.7561
 2104TIP3   OH227802   2.719   0.152  15.206  0.6509 -0.1507 -0.8106
 2104TIP3    H127803   2.762   0.113  15.130 -1.5351  0.0866 -2.1851
 2104TIP3    H227804   2.627   0.125  15.198  0.0945  1.1742  0.9101
 2105TIP3   OH227805   4.698   3.034   0.741  0.0491 -0.4399  0.5234
 2105TIP3    H127806   4.705   3.001   0.830 -1.3684 -2.3103 -0.0362
 2105TIP3    H227807   4.647   2.968   0.694 -0.9222  1.4603 -1.1812
 2106TIP3   OH227808   6.693   1.614  15.258  0.2178  0.4680 -0.2283
 2106TIP3    H127809   6.734   1.618  15.172 -2.1897  0.5185 -1.4281
 2106TIP3    H227810   6.685   1.521  15.277  0.2681  0.4512 -0.2890
 2107TIP3   OH227811   4.593   3.122  12.211  0.3722  0.6318  0.2949
 2107TIP3    H127812   4.686   3.105  12.222  0.3412  0.9372  1.0578
 2107TIP3    H227813   4.557   3.119  12.300 -0.1138  1.9170  0.1528
 2108TIP3   OH227814   2.026   5.684   4.660 -0.0011  0.2114 -0.2020
 2108TIP3    H127815   1.949   5.735   4.685 -0.0997 -0.0830  0.1144
 2108TIP3    H227816   2.078   5.677   4.741  1.2648  1.9518 -0.8527
 2109TIP3   OH227817   5.501   1.064  11.328  0.6104  0.5521 -0.1921
 2109TIP3    H127818   5.594   1.076  11.347  0.8345 -0.6555 -0.4950
 2109TIP3    H227819   5.497   0.980  11.283 -0.5783  0.8200 -0.5930
 2110TIP3   OH227820   6.768   1.772   3.337 -0.2573 -0.0851  0.0569
 2110TIP3    H127821   6.761   1.784   3.242  0.3414 -1.4176 -0.1696
 2110TIP3    H227822   6.746   1.857   3.374  1.1253  0.9009 -1.3496
 2111TIP3   OH227823   6.550   3.749  16.401 -0.2186  0.3505  0.2717
 2111TIP3    H127824   6.491   3.794  16.341  1.1088  0.7069 -0.7966
 2111TIP3    H227825   6.583   3.818  16.459 -1.3960  0.0293  1.3397
 2112TIP3   OH227826   4.640   5.873   4.755 -0.0015  0.3182 -0.0217
 2112TIP3    H127827   4.565   5.873   4.814 -1.5844 -0.4443 -1.9951
 2112TIP3    H227828   4.694   5.946   4.785 -0.8982  0.1009  2.1872
 2113TIP3   OH227829   2.267   6.318  17.074  0.3521 -0.5754  0.1930
 2113TIP3    H127830   2.278   6.235  17.120  2.1751 -0.9214 -0.8210
 2113TIP3    H227831   2.353   6.336  17.035 -0.6479  0.6009 -1.5458
 2114TIP3   OH227832   4.694   6.515  15.657  0.0572 -0.3326 -0.0285
 2114TIP3    H127833   4.774   6.529  15.606 -1.4378  0.4447 -2.2239
 2114TIP3    H227834   4.675   6.600  15.696  0.0721 -0.4104  0.1463
 2115TIP3   OH227835   4.953   5.356   0.591 -0.2663  0.6645  0.8113
 2115TIP3    H127836   4.978   5.405   0.669 -1.0850 -1.0489  2.1756
 2115TIP3    H227837   5.022   5.291   0.580  0.2993  1.4467 -0.4153
 2116TIP3   OH227838   5.174   2.699  16.874 -0.1572  0.8965  0.3818
 2116TIP3    H127839   5.102   2.721  16.815 -0.3467  1.6491  0.8813
 2116TIP3    H227840   5.143   2.728  16.960  0.1183 -0.1805  0.8430
 2117TIP3   OH227841   5.937   1.299  11.842  0.8768  0.3041 -0.0542
 2117TIP3    H127842   5.970   1.210  11.851 -0.4944 -0.1567  0.5535
 2117TIP3    H227843   6.001   1.343  11.786  2.2248 -0.6939  0.6837
 2118TIP3   OH227844   5.141   0.094  15.062 -0.6145  0.1557  0.9232
 2118TIP3    H127845   5.192   0.078  15.141  0.1120  0.8117  0.5969
 2118TIP3    H227846   5.138   0.009  15.018  1.4471  0.4075  0.2244
 2119TIP3   OH227847   1.699   4.341  11.084 -0.2252 -0.0420 -0.1890
 2119TIP3    H127848   1.752   4.267  11.112  0.0082 -0.1559 -0.9265
 2119TIP3    H227849   1.753   4.418  11.103  0.1663 -0.1510 -0.8284
 2120TIP3   OH227850   2.762   0.844   0.500 -0.6896  0.1940  0.8067
 2120TIP3    H127851   2.744   0.933   0.467  1.1737  0.1971 -0.2422
 2120TIP3    H227852   2.807   0.801   0.428  0.4453 -0.8919  2.1554
 2121TIP3   OH227853   3.708   5.711  12.516  0.9430 -0.4462  0.0259
 2121TIP3    H127854   3.688   5.682  12.605 -1.4008  0.2861 -0.2323
 2121TIP3    H227855   3.723   5.630  12.467  2.9154 -0.8338  1.2071
 2122TIP3   OH227856   6.043   2.602   3.134 -0.4163 -0.0364 -0.1476
 2122TIP3    H127857   6.069   2.615   3.043  0.2467 -1.9050 -0.2531
 2122TIP3    H227858   6.125   2.587   3.181 -0.7886  0.5166  0.6793
 2123TIP3   OH227859   2.500   4.513   0.349  0.4339  0.4625  0.0095
 2123TIP3    H127860   2.593   4.534   0.338  0.1019  1.7725 -0.3683
 2123TIP3    H227861   2.485   4.437   0.293  1.4218 -0.1698  0.5820
 2124TIP3   OH227862   2.624   5.317  17.090 -0.4233  0.0584 -0.1570
 2124TIP3    H127863   2.668   5.242  17.130 -1.4698 -0.4624  0.0346
 2124TIP3    H227864   2.615   5.381  17.161  0.2005  0.2579 -0.2496
 2125TIP3   OH227865   1.229   2.925  16.159 -0.4177  0.1691 -0.0792
 2125TIP3    H127866   1.205   2.837  16.187  0.5786 -0.5388 -1.3955
 2125TIP3    H227867   1.266   2.966  16.238 -0.3464 -0.7967  0.3895
 2126TIP3   OH227868   0.124   0.738   4.414  0.3955  0.1185  0.2597
 2126TIP3    H127869   0.208   0.773   4.443  0.0360  0.1067  1.3642
 2126TIP3    H227870   0.069   0.741   4.493 -0.8075  0.6771 -0.5907
 2127TIP3   OH227871   2.037   2.584   4.581 -0.0623 -0.4445 -0.1243
 2127TIP3    H127872   1.975   2.515   4.605  0.2745 -0.5278  0.5211
 2127TIP3    H227873   1.993   2.665   4.606  0.3197 -0.5351  0.8742
 2128TIP3   OH227874   4.185   3.476   4.055  0.1052  0.1945  0.4499
 2128TIP3    H127875   4.174   3.536   4.129  0.4878 -0.4468  1.0263
 2128TIP3    H227876   4.096   3.458   4.025 -0.0933 -0.1399  1.2269
 2129TIP3   OH227877   0.737   3.282   5.376  0.7581 -0.4275  0.4069
 2129TIP3    H127878   0.691   3.303   5.295  0.5074  0.0098  0.6620
 2129TIP3    H227879   0.671   3.240   5.431  0.8720 -0.5168  0.4767
 2130TIP3   OH227880   3.992   5.412  16.364 -0.0629 -0.9987  0.3781
 2130TIP3    H127881   3.965   5.490  16.316 -0.4568 -2.2543 -1.4857
 2130TIP3    H227882   4.052   5.367  16.305  2.0627 -0.8941  2.4237
 2131TIP3   OH227883   0.291   3.497   2.793  0.3057 -0.3006  0.0292
 2131TIP3    H127884   0.332   3.420   2.755  0.0375  1.1291 -3.3125
 2131TIP3    H227885   0.254   3.544   2.719 -1.5327  1.8880  2.2389
 2132TIP3   OH227886   3.375   1.182  16.807 -0.2688 -0.6154 -0.1718
 2132TIP3    H127887   3.336   1.174  16.895  1.5402 -2.9878  0.4564
 2132TIP3    H227888   3.351   1.101  16.762  1.2833 -0.7231 -0.8399
 2133TIP3   OH227889   4.531   4.064  14.572  0.6100 -0.2691  0.3331
 2133TIP3    H127890   4.507   4.077  14.481  1.9658 -1.5237 -0.2259
 2133TIP3    H227891   4.585   4.140  14.594 -0.7778  0.6810  0.4898
 2134TIP3   OH227892   5.359   3.368  10.834 -0.3900 -0.2663  0.3276
 2134TIP3    H127893   5.420   3.295  10.829  0.0136  0.1441 -1.0426
 2134TIP3    H227894   5.279   3.336  10.792 -0.2469  0.0320 -0.1814
 2135TIP3   OH227895   6.478   2.707  15.645 -0.6089 -0.1518  0.7760
 2135TIP3    H127896   6.470   2.614  15.623  0.0867 -0.1284  0.4114
 2135TIP3    H227897   6.408   2.750  15.597  0.4592 -0.1940 -0.8538
 2136TIP3   OH227898   0.276   0.577  14.455 -0.7849  0.4063  0.4013
 2136TIP3    H127899   0.342   0.599  14.520 -1.3325  2.3629  0.3409
 2136TIP3    H227900   0.193   0.595  14.499 -1.3110 -2.0903  0.5021
 2137TIP3   OH227901   4.402   5.571   2.379  0.3978 -0.3124  0.3713
 2137TIP3    H127902   4.413   5.614   2.464  0.6787 -1.0944  0.7287
 2137TIP3    H227903   4.342   5.498   2.397 -1.6198  1.0640 -0.6118
 2138TIP3   OH227904   0.465   5.770  12.419 -0.0130 -0.2101  0.4168
 2138TIP3    H127905   0.507   5.760  12.505  2.4561  0.2034 -0.7059
 2138TIP3    H227906   0.456   5.865  12.409 -0.5180 -0.2694  0.2967
 2139TIP3   OH227907   6.095   5.918  15.489 -0.6596 -0.0499 -0.3038
 2139TIP3    H127908   6.139   5.845  15.446 -0.7046  0.2542 -0.8756
 2139TIP3    H227909   6.144   5.996  15.460  0.4004 -0.0033  1.5917
 2140TIP3   OH227910   6.234   1.943   1.787  0.2497  0.8203  0.6011
 2140TIP3    H127911   6.323   1.977   1.784  0.6917 -0.2386  1.0788
 2140TIP3    H227912   6.188   1.987   1.716  0.7732  2.4142  1.2257
 2141TIP3   OH227913   3.387   1.426  11.692 -0.4263  0.4337  0.0916
 2141TIP3    H127914   3.403   1.454  11.782 -0.5373  1.3036 -0.1637
 2141TIP3    H227915   3.324   1.355  11.700  0.8530 -0.6523  0.8373
 2142TIP3   OH227916   0.145   4.305  13.626 -0.6241 -0.2531  0.1054
 2142TIP3    H127917   0.177   4.238  13.686 -0.1479 -0.8405 -0.7962
 2142TIP3    H227918   0.080   4.261  13.572  1.0775 -0.4979 -1.7717
 2143TIP3   OH227919   4.639   6.329  13.114 -0.8902  0.4091  0.0283
 2143TIP3    H127920   4.545   6.321  13.100 -1.1622  0.6262  1.6230
 2143TIP3    H227921   4.664   6.249  13.161 -0.2884  0.3664 -0.3545
 2144TIP3   OH227922   3.556   5.487   4.895 -0.0247 -0.0953 -0.2684
 2144TIP3    H127923   3.609   5.554   4.939 -1.7184  0.2655  1.3116
 2144TIP3    H227924   3.488   5.538   4.850  0.2105 -0.6160 -1.2092
 2145TIP3   OH227925   6.578   0.396  16.293 -0.2222 -0.2377 -0.3010
 2145TIP3    H127926   6.532   0.424  16.214  0.5012  0.7028 -0.3967
 2145TIP3    H227927   6.516   0.338  16.337 -0.6367 -0.7527 -1.5410
 2146TIP3   OH227928   3.715   5.356   0.900 -0.2402  0.3277 -0.1961
 2146TIP3    H127929   3.797   5.315   0.926 -0.2066  0.0570 -0.7330
 2146TIP3    H227930   3.667   5.288   0.853 -0.6749  0.5524 -0.0826
 2147TIP3   OH227931   1.411   2.877   4.520  0.1370 -0.1769 -0.2931
 2147TIP3    H127932   1.363   2.832   4.451  0.6891  0.2967 -0.9919
 2147TIP3    H227933   1.447   2.807   4.574 -0.0558 -0.5498 -0.6482
 2148TIP3   OH227934   1.060   1.063   2.630  0.0360  0.2228 -0.0061
 2148TIP3    H127935   1.016   1.011   2.697 -0.9727  0.0844 -0.7643
 2148TIP3    H227936   0.989   1.100   2.577  0.8042  0.6602 -0.7515
 2149TIP3   OH227937   5.749   0.013  12.817 -0.1951  0.2799  0.0178
 2149TIP3    H127938   5.755  -0.081  12.798 -0.3209  0.6105 -1.7357
 2149TIP3    H227939   5.739   0.054  12.731  0.8914  1.9913  0.6903
 2150TIP3   OH227940   2.542   3.014  14.965 -0.0448 -0.1945 -0.2116
 2150TIP3    H127941   2.452   2.995  14.940  0.0519 -2.4764  1.0011
 2150TIP3    H227942   2.567   2.941  15.022  2.0401  1.2274  0.7666
 2151TIP3   OH227943   3.184   4.622   1.131 -0.3955  0.2532  0.3840
 2151TIP3    H127944   3.242   4.675   1.185 -0.7670 -0.1219  1.1527
 2151TIP3    H227945   3.218   4.533   1.138  1.4127  0.6297 -2.4609
 2152TIP3   OH227946   2.415   6.524   0.304 -0.1112 -0.3827 -0.1703
 2152TIP3    H127947   2.384   6.606   0.264 -0.0509  0.4938  1.5486
 2152TIP3    H227948   2.364   6.516   0.385 -0.1469 -2.0861 -0.3411
 2153TIP3   OH227949   2.956   1.611  13.207  0.5382 -0.1533  0.2138
 2153TIP3    H127950   2.913   1.596  13.292  0.2547  1.2941  0.3329
 2153TIP3    H227951   2.887   1.645  13.151  0.3953 -2.3807 -1.0263
 2154TIP3   OH227952   2.765   0.491  13.933  0.0978  0.3251  0.2850
 2154TIP3    H127953   2.687   0.495  13.877  0.9101  1.2175 -0.8139
 2154TIP3    H227954   2.748   0.555  14.002 -0.2858  0.2946  0.2208
 2155TIP3   OH227955   5.118   5.398   1.912  0.2840 -0.3615  0.1295
 2155TIP3    H127956   5.206   5.412   1.877  0.3449 -1.3416 -0.1215
 2155TIP3    H227957   5.067   5.367   1.837 -0.5819  1.3717 -0.0134
 2156TIP3   OH227958   4.395   0.241   0.335 -0.4965  0.7371 -0.2783
 2156TIP3    H127959   4.319   0.287   0.371  0.2491  0.9674  1.0160
 2156TIP3    H227960   4.470   0.294   0.363  0.1091  0.8306 -2.0260
 2157TIP3   OH227961   4.268   1.125  15.427 -0.3131 -0.0403  0.1430
 2157TIP3    H127962   4.284   1.096  15.517 -1.3759 -0.2281  0.2857
 2157TIP3    H227963   4.300   1.214  15.424 -2.6785  0.9146  1.4955
 2158TIP3   OH227964   0.836   4.972  12.450 -0.8326  0.1424 -0.0398
 2158TIP3    H127965   0.845   4.944  12.542 -0.6458  0.6440  0.0990
 2158TIP3    H227966   0.757   4.927  12.419 -1.5862  0.8977  0.7269
 2159TIP3   OH227967   2.289   3.457  14.274 -0.0910  0.2214  0.1482
 2159TIP3    H127968   2.364   3.516  14.287  0.1926  0.0197 -0.5706
 2159TIP3    H227969   2.258   3.438  14.363  0.7698  0.2184  0.4481
 2160TIP3   OH227970   2.898   2.476  10.728 -0.1633 -0.2621  0.3098
 2160TIP3    H127971   2.872   2.475  10.635  0.4799 -0.4442  0.1335
 2160TIP3    H227972   2.817   2.457  10.775 -0.4175 -0.5302 -0.2303
 2161TIP3   OH227973   5.616   0.957  14.466  0.7668  0.4988  0.0096
 2161TIP3    H127974   5.583   0.988  14.381 -1.9741  2.0500  1.5578
 2161TIP3    H227975   5.707   0.934  14.449  0.2312  0.5260 -3.4206
 2162TIP3   OH227976   6.096   2.653   4.755  0.2848  0.2361 -0.0359
 2162TIP3    H127977   6.011   2.673   4.717 -0.0042  0.2329  0.6046
 2162TIP3    H227978   6.127   2.576   4.706  0.5259  1.0436 -1.1771
 2163TIP3   OH227979   1.408   5.072   1.206  0.4789  0.5637 -0.1309
 2163TIP3    H127980   1.405   5.118   1.122  0.0286  0.6190 -0.0835
 2163TIP3    H227981   1.321   5.033   1.215  1.0432 -0.7800 -0.4388
 2164TIP3   OH227982   4.433   6.078   2.342 -0.1871  0.2950 -0.7313
 2164TIP3    H127983   4.448   6.073   2.436 -0.8241 -0.4595 -0.6682
 2164TIP3    H227984   4.490   6.011   2.305 -1.7399 -1.1027 -0.6677
 2165TIP3   OH227985   2.778   6.155  11.500  0.7089 -0.1591  0.1973
 2165TIP3    H127986   2.745   6.164  11.411  0.9203 -0.5253  0.0803
 2165TIP3    H227987   2.787   6.245  11.532  0.3869 -0.0345 -0.0597
 2166TIP3   OH227988   1.688   0.942   5.752 -0.1433 -0.0329  0.0758
 2166TIP3    H127989   1.666   0.881   5.822 -1.5995  1.1696  0.7042
 2166TIP3    H227990   1.711   1.023   5.797  1.4539  0.0010 -0.7630
 2167TIP3   OH227991   5.243   4.615  13.353  0.1720  0.5935 -0.2131
 2167TIP3    H127992   5.270   4.566  13.275  0.4078 -0.2574  0.4001
 2167TIP3    H227993   5.321   4.616  13.409 -0.5578 -0.4359  0.8373
 2168TIP3   OH227994   1.076   0.636   0.205 -0.1619  0.3069 -0.8551
 2168TIP3    H127995   1.001   0.626   0.263  0.4508 -1.1332 -0.2744
 2168TIP3    H227996   1.095   0.546   0.175  1.2096  0.6710 -1.1278
 2169TIP3   OH227997   1.132   5.391   2.334 -0.0730  0.1478  0.5039
 2169TIP3    H127998   1.120   5.445   2.411  1.7080  1.3288 -0.0091
 2169TIP3    H227999   1.136   5.453   2.261 -2.9145 -1.0142 -0.7189
 2170TIP3   OH228000   3.699   5.208  16.565  0.4246  0.4740  0.0452
 2170TIP3    H128001   3.692   5.161  16.648  0.7550 -0.3993 -0.4131
 2170TIP3    H228002   3.779   5.175  16.526  0.6610  1.4353 -0.2830
 2171TIP3   OH228003   0.016   1.157  14.304  0.8720 -0.0262  0.0088
 2171TIP3    H128004  -0.009   1.201  14.223  0.5761 -0.8274 -0.3380
 2171TIP3    H228005   0.103   1.123  14.287  0.3754 -1.1343 -0.3576
 2172TIP3   OH228006   5.112   6.615  13.778 -0.1460  0.1062  0.2418
 2172TIP3    H128007   5.173   6.673  13.824 -0.0764 -1.4627  2.1932
 2172TIP3    H228008   5.167   6.564  13.719  0.7536 -2.4470  3.1507
 2173TIP3   OH228009   3.368   1.342   2.038 -0.1140 -0.5267 -0.0681
 2173TIP3    H128010   3.382   1.250   2.017  0.7903 -0.6326  0.9755
 2173TIP3    H228011   3.366   1.345   2.133 -1.6532  0.3153 -0.1140
 2174TIP3   OH228012   4.032   4.384   0.764 -0.1716 -0.0913 -0.0623
 2174TIP3    H128013   4.066   4.304   0.804  0.0263  0.2768  0.5253
 2174TIP3    H228014   4.098   4.409   0.699  0.9797  0.9210  1.4545
 2175TIP3   OH228015   2.403   5.630  14.428  0.0629  0.1586 -0.4715
 2175TIP3    H128016   2.341   5.701  14.413 -1.7409 -1.1107  0.8239
 2175TIP3    H228017   2.423   5.597  14.340 -0.9184  0.7056 -0.9029
 2176TIP3   OH228018   4.682   1.139   1.490  0.1017  0.0607  0.1117
 2176TIP3    H128019   4.683   1.218   1.544  1.5788  0.9846 -1.2265
 2176TIP3    H228020   4.756   1.087   1.523 -1.9102 -1.6202  2.1599
 2177TIP3   OH228021   0.392   0.164  12.810 -0.3053 -1.0051  0.1235
 2177TIP3    H128022   0.477   0.124  12.789  0.1648 -1.9982  3.5942
 2177TIP3    H228023   0.411   0.258  12.816  0.4145 -1.1534  0.2800
 2178TIP3   OH228024   2.773   5.044   2.633  0.0846  0.6449 -0.1958
 2178TIP3    H128025   2.752   4.999   2.551  1.7182  2.0256 -1.4022
 2178TIP3    H228026   2.743   5.134   2.618 -1.6786  0.3869  1.5907
 2179TIP3   OH228027   3.430   6.057  15.175 -0.0022 -0.3099 -0.0454
 2179TIP3    H128028   3.387   5.978  15.208 -1.4957 -0.5397 -2.4294
 2179TIP3    H228029   3.381   6.130  15.214  2.0907 -0.4529  3.0937
 2180TIP3   OH228030   1.332   2.459   0.869 -0.6810  0.1962 -0.8608
 2180TIP3    H128031   1.277   2.491   0.797 -0.2157 -1.4467 -1.9613
 2180TIP3    H228032   1.373   2.380   0.835 -0.0415 -0.3144  1.0383
 2181TIP3   OH228033   6.487   3.454   1.552 -0.6755 -0.2609 -0.0668
 2181TIP3    H128034   6.561   3.514   1.556  0.0758 -1.1752 -0.0986
 2181TIP3    H228035   6.426   3.495   1.491  0.2205  0.0296 -0.7717
 2182TIP3   OH228036   0.186   2.369  15.163 -0.3679  0.1519  0.0957
 2182TIP3    H128037   0.130   2.410  15.228  0.6124  3.1746 -0.8961
 2182TIP3    H228038   0.156   2.405  15.079  1.8631  0.4328 -0.6174
 2183TIP3   OH228039   4.400   4.410   3.476 -0.4240  0.0682  0.0647
 2183TIP3    H128040   4.319   4.402   3.526 -1.3342 -0.4361 -1.4462
 2183TIP3    H228041   4.389   4.347   3.404 -0.1343  2.4097 -2.0747
 2184TIP3   OH228042   5.131   3.793   4.221 -0.2887  0.3730  0.0739
 2184TIP3    H128043   5.129   3.745   4.304  1.7719  1.2106  0.6606
 2184TIP3    H228044   5.170   3.731   4.159 -1.4772 -0.1246 -0.1769
 2185TIP3   OH228045   3.376   5.635  11.382 -0.3979  0.1915 -0.1700
 2185TIP3    H128046   3.415   5.722  11.377 -1.6631  0.7691 -0.2533
 2185TIP3    H228047   3.282   5.651  11.373 -0.6159 -1.2078 -0.4269
 2186TIP3   OH228048   4.201   4.737  16.235 -0.0312  0.0546 -0.1328
 2186TIP3    H128049   4.150   4.663  16.270 -0.1493  0.9387  1.6100
 2186TIP3    H228050   4.166   4.814  16.280  1.1894  0.9784 -0.7469
 2187TIP3   OH228051   5.029   5.270   4.696 -0.4025 -0.1742  0.1948
 2187TIP3    H128052   5.000   5.314   4.776  1.4204 -0.2940  0.9489
 2187TIP3    H228053   4.948   5.250   4.649 -1.3501  2.9679  0.3546
 2188TIP3   OH228054   1.735   2.697  12.685 -0.1494 -0.3023 -0.2481
 2188TIP3    H128055   1.723   2.710  12.779  2.6240 -0.5797  0.1950
 2188TIP3    H228056   1.715   2.782  12.647 -1.3834 -0.2096  0.5773
 2189TIP3   OH228057   1.038   6.242   3.368 -0.9968  0.1262 -0.5344
 2189TIP3    H128058   0.990   6.160   3.367 -0.5332 -0.1976  1.8431
 2189TIP3    H228059   1.088   6.240   3.449  1.3972  1.3978 -1.9212
 2190TIP3   OH228060   0.345   1.597  12.766  0.9710 -0.3950 -0.2267
 2190TIP3    H128061   0.283   1.610  12.694 -1.4703 -1.1266  1.6474
 2190TIP3    H228062   0.342   1.679  12.816 -0.8708 -1.4848  1.5640
 2191TIP3   OH228063   2.510   4.209   0.990  0.0404 -0.4514  0.1902
 2191TIP3    H128064   2.527   4.300   1.015 -0.9272 -0.3924  0.6763
 2191TIP3    H228065   2.489   4.213   0.897  1.4552 -0.3732 -0.1285
 2192TIP3   OH228066   5.329   5.964   5.085 -0.3628 -0.6297  0.6782
 2192TIP3    H128067   5.273   5.890   5.062 -0.6969 -0.0677 -0.3664
 2192TIP3    H228068   5.384   5.932   5.157 -0.8574 -1.7189  0.5765
 2193TIP3   OH228069   5.671   1.358   1.379 -0.0030 -0.1366 -0.2681
 2193TIP3    H128070   5.737   1.413   1.336 -0.0026  0.6702  0.7408
 2193TIP3    H228071   5.711   1.271   1.383  0.7301  0.1923 -0.2683
 2194TIP3   OH228072   2.186   2.815   4.314 -0.0986 -1.4530 -0.4132
 2194TIP3    H128073   2.183   2.722   4.291 -0.2796 -1.3881 -0.6545
 2194TIP3    H228074   2.224   2.857   4.236 -0.9487 -1.1971 -0.6874
 2195TIP3   OH228075   6.401   0.126   1.704  0.2830  0.1173 -0.1673
 2195TIP3    H128076   6.412   0.096   1.614  0.3138 -1.5113  0.3659
 2195TIP3    H228077   6.388   0.046   1.755  0.1046  1.0304  1.2577
 2196TIP3   OH228078   1.943   6.519  15.177 -0.4001  0.3095 -0.3294
 2196TIP3    H128079   1.988   6.549  15.098 -0.8783  3.4869  0.5385
 2196TIP3    H228080   2.013   6.505  15.240 -0.2379  0.6767 -0.4215
 2197TIP3   OH228081   1.566   1.351   6.075 -0.6116 -0.0256  0.0617
 2197TIP3    H128082   1.541   1.400   6.154  0.0135  0.4813 -0.0567
 2197TIP3    H228083   1.502   1.280   6.070 -0.9683  0.2458  0.7403
 2198TIP3   OH228084   5.242   2.198   5.513  0.1832  0.0612  0.7701
 2198TIP3    H128085   5.188   2.165   5.441  1.8019  1.0955 -0.9731
 2198TIP3    H228086   5.317   2.239   5.470  1.9604 -0.6329  3.0990
 2199TIP3   OH228087   2.924   2.054   1.509 -0.0766  0.1534  1.0909
 2199TIP3    H128088   2.888   2.041   1.421  0.7053 -1.4523  0.9885
 2199TIP3    H228089   3.004   2.104   1.496 -0.4539  0.7211  0.9734
 2200TIP3   OH228090   0.390   5.113   3.198 -0.1618 -0.1298  0.1862
 2200TIP3    H128091   0.386   5.017   3.192 -2.9721 -0.0268 -0.1414
 2200TIP3    H228092   0.380   5.131   3.292 -1.5531 -0.1057  0.0426
 2201TIP3   OH228093   0.709   6.759   6.604 -0.6355 -0.3386  0.2971
 2201TIP3    H128094   0.685   6.835   6.552  1.9671  0.4078  0.1105
 2201TIP3    H228095   0.708   6.686   6.541 -0.2050  0.0851 -0.2162
 2202TIP3   OH228096   3.536   3.502   2.083 -0.0991  0.2922 -0.0549
 2202TIP3    H128097   3.450   3.477   2.118  0.2578  1.3046  1.5821
 2202TIP3    H228098   3.522   3.590   2.047  0.1483  0.2698 -0.2070
 2203TIP3   OH228099   2.924   2.574   1.339 -0.2134 -0.1578 -0.2094
 2203TIP3    H128100   2.936   2.608   1.250  0.9684  1.6855  0.6279
 2203TIP3    H228101   2.829   2.563   1.347 -0.5031  1.5084 -1.0430
 2204TIP3   OH228102   6.027   3.496  13.053  0.2057 -0.4091 -0.2630
 2204TIP3    H128103   5.997   3.569  13.107  0.7750 -1.4214  1.4650
 2204TIP3    H228104   5.999   3.418  13.101  0.2362 -1.3388 -1.7190
 2205TIP3   OH228105   5.411   6.105  12.959 -0.4254 -0.0236 -0.1046
 2205TIP3    H128106   5.327   6.058  12.956 -0.0419 -0.6727 -0.6826
 2205TIP3    H228107   5.470   6.046  13.005 -0.0232  0.0306 -0.5541
 2206TIP3   OH228108   4.468   0.869   5.326 -0.3388  0.1889 -0.3926
 2206TIP3    H128109   4.517   0.950   5.316  0.0898  0.1806  1.6068
 2206TIP3    H228110   4.507   0.809   5.261  1.0776  0.7509 -0.0628
 2207TIP3   OH228111   0.786   2.528  12.558 -0.5075 -0.0951 -0.7237
 2207TIP3    H128112   0.823   2.507  12.472  1.4100 -1.2323  0.3333
 2207TIP3    H228113   0.789   2.623  12.563 -0.5431 -0.0243 -1.8812
 2208TIP3   OH228114   3.905   2.188  14.066 -0.1221  0.6685 -0.2647
 2208TIP3    H128115   3.978   2.244  14.039  1.3560 -1.5956 -1.1072
 2208TIP3    H228116   3.854   2.173  13.986  0.6124 -0.7673 -0.4868
 2209TIP3   OH228117   1.264   0.322  11.842  0.3172  0.3058  0.0053
 2209TIP3    H128118   1.244   0.403  11.794 -0.9815 -0.3856 -0.6214
 2209TIP3    H228119   1.214   0.328  11.923  1.8577  1.0798  0.9421
 2210TIP3   OH228120   5.684   4.825   4.529  0.5422 -0.3449  0.6660
 2210TIP3    H128121   5.632   4.750   4.558  0.0774 -0.1882  0.2347
 2210TIP3    H228122   5.740   4.846   4.604  1.8079 -2.1080  0.2395
 2211TIP3   OH228123   3.606   6.465  13.177 -0.0138  0.1944  0.3400
 2211TIP3    H128124   3.669   6.494  13.243 -1.0746  0.6337  1.1672
 2211TIP3    H228125   3.648   6.389  13.135  0.5107 -0.3177  1.7758
 2212TIP3   OH228126   3.287   1.455   1.584  0.1839  0.0320 -0.3224
 2212TIP3    H128127   3.284   1.492   1.672  0.4379  1.1824 -0.7863
 2212TIP3    H228128   3.308   1.363   1.597 -0.8109 -0.0423  0.8773
 2213TIP3   OH228129   2.877   3.986  16.668  0.3601 -0.1522  0.2814
 2213TIP3    H128130   2.811   4.054  16.652  0.4560 -0.3230 -0.8327
 2213TIP3    H228131   2.849   3.945  16.750 -1.9657 -1.4586 -1.1130
 2214TIP3   OH228132   0.627   3.820   1.811  0.1419 -0.3116  0.2891
 2214TIP3    H128133   0.619   3.902   1.859  1.4919  0.1914 -0.3160
 2214TIP3    H228134   0.689   3.768   1.863  1.0937 -0.0215 -0.5212
 2215TIP3   OH228135   3.994   0.270   4.587 -0.6096  0.6037 -0.6825
 2215TIP3    H128136   3.989   0.365   4.585  0.3295  0.6728 -0.2203
 2215TIP3    H228137   4.038   0.246   4.505 -2.6786  0.4221 -1.7635
 2216TIP3   OH228138   4.243   2.972   3.851  0.5627  0.1014 -0.4869
 2216TIP3    H128139   4.254   2.930   3.936  0.2725 -0.2627 -0.6263
 2216TIP3    H228140   4.281   3.059   3.862 -2.3443  1.2525  0.9629
 2217TIP3   OH228141   1.909   0.943  11.732 -0.8191 -0.6923  0.2109
 2217TIP3    H128142   1.891   0.977  11.820  1.4068  1.7561 -0.2074
 2217TIP3    H228143   1.994   0.980  11.710 -1.5790 -0.8696 -3.1996
 2218TIP3   OH228144   2.753   1.330  16.585  0.1118  0.1945 -0.2040
 2218TIP3    H128145   2.801   1.392  16.531  1.8462 -0.9596 -0.0196
 2218TIP3    H228146   2.754   1.248  16.535  1.1536 -0.7013  1.2450
 2219TIP3   OH228147   1.133   2.598  16.795  0.6964 -0.0759  0.0365
 2219TIP3    H128148   1.066   2.643  16.744  0.2314 -2.1009 -1.2207
 2219TIP3    H228149   1.085   2.554  16.865  0.7905 -0.8735 -0.3908
 2220TIP3   OH228150   4.080   6.200   0.160 -0.1014  0.6199 -0.1227
 2220TIP3    H128151   3.999   6.160   0.129 -0.1332  1.2494 -0.8917
 2220TIP3    H228152   4.095   6.272   0.098  1.6021 -0.1462 -0.6076
 2221TIP3   OH228153   6.407   3.425  11.587 -0.1618  0.2943 -0.3726
 2221TIP3    H128154   6.359   3.343  11.602 -1.4133  1.3690  1.7172
 2221TIP3    H228155   6.339   3.490  11.570  0.8406  0.8533 -2.3182
 2222TIP3   OH228156   6.220   0.118  13.281 -0.1716 -0.3672 -0.1403
 2222TIP3    H128157   6.141   0.079  13.242  0.1718 -1.8846  0.6136
 2222TIP3    H228158   6.291   0.062  13.252  0.9103  2.0236 -2.2553
 2223TIP3   OH228159   6.799   4.286   2.732 -0.3438  0.5602 -0.2594
 2223TIP3    H128160   6.725   4.282   2.792  0.6611 -2.2654  0.8733
 2223TIP3    H228161   6.871   4.242   2.778  1.2060  0.6374 -2.4760
 2224TIP3   OH228162   5.906   6.086   6.245  0.0558  0.6202  0.0627
 2224TIP3    H128163   5.951   6.043   6.317 -0.5927  0.0960  0.1588
 2224TIP3    H228164   5.817   6.101   6.277 -0.0796  0.8839 -0.4276
 2225TIP3   OH228165   3.859   6.383  11.131 -0.1292  0.0665  0.6595
 2225TIP3    H128166   3.866   6.478  11.127 -0.6098  0.0812  0.0736
 2225TIP3    H228167   3.924   6.351  11.067 -0.2935  0.0157  0.5176
 2226TIP3   OH228168   0.678   0.243   6.048  0.7369  0.2475 -0.1863
 2226TIP3    H128169   0.606   0.200   6.094 -1.6940  1.9072 -2.2491
 2226TIP3    H228170   0.710   0.309   6.110 -1.0886  1.0426 -0.0525
 2227TIP3   OH228171   6.086   1.078   0.315  0.7446 -0.3650  0.4676
 2227TIP3    H128172   6.021   1.010   0.300  1.3528 -0.9650  0.4902
 2227TIP3    H228173   6.078   1.100   0.407  0.2022 -0.0453  0.3440
 2228TIP3   OH228174   1.649   6.119   4.192 -0.0173 -0.1007 -0.0353
 2228TIP3    H128175   1.570   6.066   4.187  0.1375 -0.4279  0.8215
 2228TIP3    H228176   1.660   6.155   4.104 -1.6567  0.7316  0.0851
 2229TIP3   OH228177   0.206   3.806  16.090  0.2569 -0.2688  0.1314
 2229TIP3    H128178   0.205   3.781  15.998  0.2696 -0.2065  0.1164
 2229TIP3    H228179   0.134   3.869  16.099  0.0387 -0.5268  0.2350
 2230TIP3   OH228180   5.161   4.356   3.374  0.4429  0.1723 -0.5249
 2230TIP3    H128181   5.135   4.440   3.413 -0.6144  0.2494 -1.3757
 2230TIP3    H228182   5.206   4.381   3.293  2.9249  0.0271  0.7447
 2231TIP3   OH228183   3.050   1.101  11.202 -0.2231  0.4000 -0.4008
 2231TIP3    H128184   3.100   1.039  11.255 -1.8289 -1.2508 -0.7456
 2231TIP3    H228185   2.978   1.127  11.258 -1.1298 -0.2513 -1.2334
 2232TIP3   OH228186   1.761   4.961   3.304  0.0386  0.2107 -0.4763
 2232TIP3    H128187   1.740   5.036   3.360  1.1734  1.0863 -1.2141
 2232TIP3    H228188   1.679   4.911   3.299 -0.2781  0.5261  1.3332
 2233TIP3   OH228189   5.516   2.102  14.001  0.0383  0.3366  0.0929
 2233TIP3    H128190   5.447   2.043  13.970 -1.3223  0.6741  2.4166
 2233TIP3    H228191   5.505   2.182  13.948  0.0556 -0.3882 -1.0318
 2234TIP3   OH228192   6.345   4.745   3.438  0.0289 -0.0670  0.1197
 2234TIP3    H128193   6.283   4.793   3.382 -0.5191 -2.0289 -1.0100
 2234TIP3    H228194   6.302   4.743   3.524 -2.1361 -2.4900 -0.9458
 2235TIP3   OH228195   6.192   2.267  14.630 -0.4862  0.3088 -0.5653
 2235TIP3    H128196   6.117   2.302  14.679  0.6984  1.5812  0.3552
 2235TIP3    H228197   6.195   2.320  14.551 -0.0475  0.8245 -0.2056
 2236TIP3   OH228198   6.148   4.801   0.048 -0.2790  0.1538  0.1749
 2236TIP3    H128199   6.222   4.743   0.067 -0.0140  0.1899 -0.7521
 2236TIP3    H228200   6.071   4.751   0.074 -0.1870 -1.3241 -2.2465
 2237TIP3   OH228201   4.619   2.632   3.294  0.2341  1.0732 -0.1816
 2237TIP3    H128202   4.602   2.673   3.379  0.2129  0.0402  0.3290
 2237TIP3    H228203   4.715   2.635   3.285  0.4569 -1.0028  1.0369
 2238TIP3   OH228204   5.649   1.284   3.931  0.2572  0.1846  0.1782
 2238TIP3    H128205   5.740   1.311   3.948 -0.4341  1.8952  1.2175
 2238TIP3    H228206   5.649   1.190   3.948  1.2926  0.5746  2.5035
 2239TIP3   OH228207   1.592   4.154  15.604  0.1330  0.3245 -0.1872
 2239TIP3    H128208   1.630   4.168  15.690  1.0045  0.1979 -0.5460
 2239TIP3    H228209   1.572   4.242  15.572  2.7567  0.6082 -1.1618
 2240TIP3   OH228210   4.850   1.109  13.976  0.3622  0.1881 -0.1756
 2240TIP3    H128211   4.799   1.188  13.955  1.2806  0.6007 -0.9013
 2240TIP3    H228212   4.908   1.136  14.047  0.5999  0.1421 -0.3519
 2241TIP3   OH228213   5.736   6.242   1.461 -0.0544  0.2831 -0.1247
 2241TIP3    H128214   5.663   6.261   1.520  1.1988  3.1176  0.6074
 2241TIP3    H228215   5.803   6.306   1.484  2.3528 -1.6968 -1.3780
 2242TIP3   OH228216   3.405   3.786   1.361 -0.1183  0.0194 -0.3531
 2242TIP3    H128217   3.361   3.799   1.445  1.7086  1.0131  0.4717
 2242TIP3    H228218   3.432   3.694   1.362  2.9458  0.8714  1.6831
 2243TIP3   OH228219   0.928   0.893  12.843  0.4649  0.0000  0.0364
 2243TIP3    H128220   0.973   0.976  12.825  0.3324  0.5152  1.9924
 2243TIP3    H228221   0.835   0.913  12.830  0.5266 -0.2099 -0.7905
 2244TIP3   OH228222   5.836   0.973   5.791 -0.2259  0.3123 -0.0339
 2244TIP3    H128223   5.800   0.949   5.876 -1.0458  2.1018  0.1517
 2244TIP3    H228224   5.930   0.975   5.803 -0.3773  1.3612  1.0649
 2245TIP3   OH228225   4.563   6.720   5.851  0.0267  0.1779 -0.4345
 2245TIP3    H128226   4.520   6.637   5.870  0.3102  0.5688  2.0655
 2245TIP3    H228227   4.522   6.783   5.911 -0.6337  1.9996 -2.7143
 2246TIP3   OH228228   2.282   1.423  12.747 -0.3606  0.0057 -0.2669
 2246TIP3    H128229   2.344   1.496  12.745  0.5930 -0.8046  0.0370
 2246TIP3    H228230   2.295   1.382  12.832 -1.4729 -0.0284 -0.1085
 2247TIP3   OH228231   2.750   3.975   2.740  0.0778 -0.1025  0.6833
 2247TIP3    H128232   2.707   4.025   2.809 -0.9732 -0.3254  0.2052
 2247TIP3    H228233   2.839   3.961   2.772 -0.7460 -1.2798  2.5358
 2248TIP3   OH228234   5.374   3.238  12.412  0.4640  0.2050 -0.2267
 2248TIP3    H128235   5.306   3.189  12.366 -0.4116 -0.7515  2.0168
 2248TIP3    H228236   5.433   3.171  12.447  0.5977  0.8496  0.8078
 2249TIP3   OH228237   1.085   4.288   3.818  0.1504  0.3230  0.8935
 2249TIP3    H128238   1.077   4.260   3.727  1.8102 -1.4391  1.2546
 2249TIP3    H228239   0.999   4.323   3.841 -0.4308  0.2855 -1.1782
 2250TIP3   OH228240   5.500   1.412  14.744 -0.0491  0.2932 -0.1254
 2250TIP3    H128241   5.521   1.432  14.653 -2.6774 -0.5723 -0.9877
 2250TIP3    H228242   5.472   1.320  14.742  1.3233 -0.1882  1.8426
 2251TIP3   OH228243   6.530   2.993  15.384 -0.2345  0.9407 -0.5752
 2251TIP3    H128244   6.583   2.949  15.450 -0.5804  0.3366 -0.7006
 2251TIP3    H228245   6.559   2.956  15.301 -0.1926  1.2950 -0.7202
 2252TIP3   OH228246   0.246   0.919   1.241 -0.2370 -0.0238 -0.5939
 2252TIP3    H128247   0.236   0.896   1.333  3.3023  0.7374  0.0739
 2252TIP3    H228248   0.194   0.998   1.230  1.0988  1.1639  1.3563
 2253TIP3   OH228249   3.375   4.603   4.064 -0.1134 -0.2507  0.2189
 2253TIP3    H128250   3.368   4.668   3.994 -1.0872  0.7282  1.2120
 2253TIP3    H228251   3.423   4.648   4.133  0.5874 -1.1201  0.3081
 2254TIP3   OH228252   2.423   2.044  14.942  0.9053 -0.0245  0.5631
 2254TIP3    H128253   2.416   2.029  15.037  0.2283 -0.7610  0.4047
 2254TIP3    H228254   2.455   1.961  14.907  1.0474  0.2126  0.1369
 2255TIP3   OH228255   1.753   2.635   4.407 -0.4015 -0.2063  0.3557
 2255TIP3    H128256   1.687   2.569   4.385 -0.6812 -0.0674  0.7773
 2255TIP3    H228257   1.712   2.718   4.383  0.1279 -0.2137 -0.6099
 2256TIP3   OH228258   2.982   4.250   3.890  0.7769 -0.4947 -0.4578
 2256TIP3    H128259   2.897   4.220   3.920  1.6951 -0.6064  2.1342
 2256TIP3    H228260   3.038   4.245   3.967  2.9329  0.3566 -1.9164
 2257TIP3   OH228261   4.567   0.571  12.738 -0.3752 -0.5454 -0.1243
 2257TIP3    H128262   4.566   0.660  12.775 -0.1650  0.3270 -2.1008
 2257TIP3    H228263   4.555   0.585  12.644  1.2844 -2.5181 -0.6575
 2258TIP3   OH228264   3.938   1.459  14.123  0.2227 -0.1707  0.3733
 2258TIP3    H128265   3.910   1.496  14.040  0.2804 -0.6623  0.1289
 2258TIP3    H228266   3.900   1.516  14.190 -1.5895 -0.9725  0.0612
 2259TIP3   OH228267   5.082   4.672  14.954  0.1543  0.2310 -0.0939
 2259TIP3    H128268   5.014   4.693  14.890  1.4742  3.0445 -0.6730
 2259TIP3    H228269   5.102   4.580  14.938 -1.9441 -0.0425 -1.3921
 2260TIP3   OH228270   5.339   4.774   1.681 -0.1825  0.1576 -0.2220
 2260TIP3    H128271   5.266   4.758   1.741 -1.5796  0.5882 -1.7704
 2260TIP3    H228272   5.372   4.687   1.660  1.9243  0.0787  3.0404
 2261TIP3   OH228273   3.448   0.642   3.327 -0.0262  0.3115  0.0212
 2261TIP3    H128274   3.365   0.603   3.353  0.4863 -0.9541 -0.2251
 2261TIP3    H228275   3.455   0.626   3.233  0.0944  1.1828 -0.1251
 2262TIP3   OH228276   2.582   0.004  15.644 -0.2438  0.1860 -0.2681
 2262TIP3    H128277   2.532   0.008  15.725 -2.8763  0.2617 -1.8354
 2262TIP3    H228278   2.649   0.071  15.653 -2.5218  2.4165  0.5531
 2263TIP3   OH228279   6.547   5.988   4.026 -0.2345  0.0929 -0.0086
 2263TIP3    H128280   6.471   5.931   4.017 -0.1866  0.2522 -1.5223
 2263TIP3    H228281   6.566   6.018   3.937  1.2501  0.5090  0.4258
 2264TIP3   OH228282   1.824   3.127  13.308  0.0042 -0.1309  0.3779
 2264TIP3    H128283   1.822   3.131  13.403  1.8332 -0.4540  0.4492
 2264TIP3    H228284   1.754   3.066  13.285 -0.7664  0.3309  1.4834
 2265TIP3   OH228285   6.066   2.234   4.400  0.4636  0.0842 -0.4738
 2265TIP3    H128286   6.128   2.242   4.472  0.5288 -0.1915 -0.5010
 2265TIP3    H228287   6.109   2.278   4.326  1.2798 -1.4071 -0.9147
 2266TIP3   OH228288   4.980   5.185  10.654  0.4687  0.3139 -0.1221
 2266TIP3    H128289   4.994   5.262  10.598 -0.8562  1.0931  0.6018
 2266TIP3    H228290   4.893   5.154  10.630  0.4630 -0.1711  0.5223
 2267TIP3   OH228291   2.765   4.002   5.185 -0.0853 -0.4746  0.3626
 2267TIP3    H128292   2.744   3.934   5.250 -0.9629 -0.1495  0.4343
 2267TIP3    H228293   2.775   3.954   5.103 -0.8662 -0.6800  0.3826
 2268TIP3   OH228294   3.009   5.510  11.867  0.6065 -0.0939  0.1646
 2268TIP3    H128295   3.020   5.415  11.865  2.9551  0.1342  0.2603
 2268TIP3    H228296   2.914   5.524  11.866  0.2396 -2.3731 -2.0194
 2269TIP3   OH228297   5.975   1.142   5.546  0.0522 -0.2398 -0.3820
 2269TIP3    H128298   5.997   1.056   5.582  0.3932 -0.9639 -2.2463
 2269TIP3    H228299   6.051   1.197   5.565  1.6466 -1.5238 -2.9057
 2270TIP3   OH228300   5.103   6.170  17.156 -0.2062  0.6580 -0.5086
 2270TIP3    H128301   5.045   6.111  17.203 -0.6298  0.6507 -1.0234
 2270TIP3    H228302   5.180   6.118  17.136 -0.3266  0.4523 -0.4384
 2271TIP3   OH228303   0.562   3.938   0.638  0.4034  0.3412 -0.5445
 2271TIP3    H128304   0.543   3.891   0.556 -0.5773  0.9165 -0.6542
 2271TIP3    H228305   0.483   3.926   0.691 -0.5534  3.2370 -1.2268
 2272TIP3   OH228306   0.052   2.083  12.166  0.4910 -0.2214  0.2373
 2272TIP3    H128307   0.125   2.021  12.159  1.2322  0.7821 -1.3119
 2272TIP3    H228308   0.080   2.158  12.115 -0.8911  0.9275  1.1380
 2273TIP3   OH228309   2.429   5.155   4.098  0.1243  0.0689  0.1388
 2273TIP3    H128310   2.365   5.105   4.047 -0.5088 -0.6421  1.5800
 2273TIP3    H228311   2.457   5.225   4.040  0.4670 -1.5346 -1.6584
 2274TIP3   OH228312   2.671   0.153  16.703  0.3987 -0.6894  0.2054
 2274TIP3    H128313   2.596   0.093  16.713 -1.8035  2.1195  1.2877
 2274TIP3    H228314   2.733   0.125  16.771 -0.9751 -1.2186  1.2686
 2275TIP3   OH228315   4.914   2.223   2.744  0.2324 -0.1215 -0.1000
 2275TIP3    H128316   4.981   2.233   2.811  0.7637 -1.1429 -0.4520
 2275TIP3    H228317   4.898   2.129   2.740 -0.5971  0.0334 -0.6285
 2276TIP3   OH228318   1.139   1.224   0.901  0.1414  0.3084  0.0735
 2276TIP3    H128319   1.077   1.298   0.903 -1.5948 -1.1058 -0.0366
 2276TIP3    H228320   1.188   1.232   0.983 -0.1919  1.4339  0.1788
 2277TIP3   OH228321   3.416   1.411   0.016 -0.0695 -0.3655  0.1246
 2277TIP3    H128322   3.474   1.436  -0.056 -1.1166  2.1080  0.0849
 2277TIP3    H228323   3.335   1.382  -0.027 -0.7138  1.1623  0.2861
 2278TIP3   OH228324   5.306   2.976   3.211 -0.8637  0.7166 -0.6667
 2278TIP3    H128325   5.301   3.068   3.186  0.1241  0.5832 -1.3622
 2278TIP3    H228326   5.292   2.976   3.305  0.4552  1.7099 -0.4559
 2279TIP3   OH228327   0.752   2.367   0.411 -0.1156  0.4034  0.4627
 2279TIP3    H128328   0.733   2.295   0.471 -1.0110  0.0157 -0.2757
 2279TIP3    H228329   0.749   2.446   0.466 -0.5742  0.0187  0.9944
 2280TIP3   OH228330   6.131   3.291   5.212  0.5560 -0.1739  0.0260
 2280TIP3    H128331   6.137   3.250   5.126  3.0895  0.3443 -0.0790
 2280TIP3    H228332   6.055   3.249   5.253  0.1056 -1.3603 -1.9375
 2281TIP3   OH228333   1.373   6.792   2.493  0.2443 -0.2392 -0.1707
 2281TIP3    H128334   1.400   6.710   2.451 -0.3827 -0.9238  0.7178
 2281TIP3    H228335   1.448   6.850   2.484  0.5820 -0.8114 -1.1019
 2282TIP3   OH228336   3.357   3.282  14.365 -0.3332  0.6318 -0.2451
 2282TIP3    H128337   3.384   3.206  14.313  2.0221  1.5227 -0.3675
 2282TIP3    H228338   3.361   3.251  14.456  0.8069  0.6555 -0.2841
 2283TIP3   OH228339   2.143   3.836   4.617  0.1262  0.8204 -0.3742
 2283TIP3    H128340   2.088   3.858   4.541 -0.6971  0.4578  0.1092
 2283TIP3    H228341   2.080   3.814   4.686  0.9109 -1.0627 -0.2444
 2284TIP3   OH228342   2.915   1.350  13.131 -0.1885 -0.2110  0.1607
 2284TIP3    H128343   2.837   1.386  13.173 -0.6647 -0.4201 -0.5284
 2284TIP3    H228344   2.987   1.406  13.161 -0.7825  0.7149 -0.1279
 2285TIP3   OH228345   6.601   2.803  11.535  0.6601 -0.5722 -0.9565
 2285TIP3    H128346   6.577   2.793  11.628 -0.0803  0.5317 -1.0300
 2285TIP3    H228347   6.692   2.775  11.532  0.5723 -1.0193  0.0341
 2286TIP3   OH228348   0.179   5.986  12.078 -0.0816  0.7297  0.4162
 2286TIP3    H128349   0.103   5.938  12.045 -1.2558  1.0644  2.4766
 2286TIP3    H228350   0.174   6.071  12.033 -0.5461  0.5064  0.0347
 2287TIP3   OH228351   1.167   5.739  11.523  0.3027 -0.0455 -0.4430
 2287TIP3    H128352   1.230   5.669  11.507  0.8419  0.1830  0.6282
 2287TIP3    H228353   1.091   5.716  11.470  0.5871 -1.2887 -0.3200
 2288TIP3   OH228354   4.418   2.499   5.690  0.3226  0.4652 -0.1395
 2288TIP3    H128355   4.382   2.432   5.632  2.4321 -1.3154  0.5288
 2288TIP3    H228356   4.512   2.493   5.677  0.8937 -0.1567  3.5964
 2289TIP3   OH228357   2.137   0.215  11.565 -0.1048  0.1441 -0.9489
 2289TIP3    H128358   2.136   0.282  11.497  0.4706 -0.3247 -1.4229
 2289TIP3    H228359   2.047   0.214  11.599  0.1535  1.9418 -0.1419
 2290TIP3   OH228360   4.041   4.261  16.661  0.0898 -0.0836 -0.3002
 2290TIP3    H128361   3.950   4.278  16.637  0.5884  1.7143 -1.0027
 2290TIP3    H228362   4.036   4.229  16.751 -1.2065  0.3838 -0.1890
 2291TIP3   OH228363   2.918   0.504  10.960 -0.0773  0.0649 -0.1379
 2291TIP3    H128364   2.926   0.516  10.866  0.3261  0.8252 -0.0101
 2291TIP3    H228365   2.826   0.522  10.980 -0.7798 -2.6424 -0.7453
 2292TIP3   OH228366   0.279   4.506   3.558 -0.0254  0.3581  0.3620
 2292TIP3    H128367   0.327   4.562   3.498  0.1668 -1.4078 -1.1947
 2292TIP3    H228368   0.208   4.469   3.505  0.1006 -1.1897  1.2219
 2293TIP3   OH228369   3.608   1.467   3.113  0.0311  0.2564  0.4050
 2293TIP3    H128370   3.571   1.419   3.039  1.3779 -0.2478  0.0310
 2293TIP3    H228371   3.703   1.465   3.097  0.2505  1.1142  1.5578
 2294TIP3   OH228372   0.462   0.900   0.496 -0.2243  0.0908 -0.5053
 2294TIP3    H128373   0.556   0.913   0.509 -0.5275  0.6394  1.3631
 2294TIP3    H228374   0.426   0.988   0.499 -0.8895 -0.1884 -0.3587
 2295TIP3   OH228375   2.328   5.659   2.856 -0.2198  0.3075  0.2265
 2295TIP3    H128376   2.269   5.717   2.808  0.5219  0.6919 -0.2298
 2295TIP3    H228377   2.404   5.713   2.875  1.1870 -0.9725 -1.6384
 2296TIP3   OH228378   3.610   5.375  13.554  0.1417  0.3798 -0.4295
 2296TIP3    H128379   3.554   5.305  13.520 -0.2520  0.1997  0.5690
 2296TIP3    H228380   3.696   5.333  13.566  0.5456  0.6973 -2.1066
 2297TIP3   OH228381   6.473   5.581   3.841 -0.2084  0.1992 -1.0705
 2297TIP3    H128382   6.414   5.506   3.834  0.2332 -0.2466 -0.1352
 2297TIP3    H228383   6.551   5.546   3.885  0.1236  1.1324 -0.9071
 2298TIP3   OH228384   0.472   0.895   3.091 -0.0659 -0.2126 -0.6398
 2298TIP3    H128385   0.521   0.867   3.014  0.0699 -1.0738 -0.2457
 2298TIP3    H228386   0.490   0.828   3.157 -0.0736  0.5866  0.1886
 2299TIP3   OH228387   1.362   2.887   3.089 -0.5736 -0.9444 -0.9284
 2299TIP3    H128388   1.403   2.961   3.134 -0.7450 -0.3144 -1.7935
 2299TIP3    H228389   1.434   2.844   3.042 -0.1307 -2.4803  1.1146
 2300TIP3   OH228390   1.569   5.117  16.987 -0.2942 -0.5870  0.0095
 2300TIP3    H128391   1.515   5.102  16.910  0.6627  0.1726 -0.8236
 2300TIP3    H228392   1.646   5.062  16.975 -0.8742 -1.6945  1.2087
 2301TIP3   OH228393   5.326   0.697  15.393 -0.4042 -0.1838  0.0414
 2301TIP3    H128394   5.422   0.698  15.396 -0.4022 -0.7417  0.3446
 2301TIP3    H228395   5.303   0.758  15.324  0.2583 -1.8073 -1.6711
 2302TIP3   OH228396   4.196   0.663   2.715  0.1630  0.7835 -0.4423
 2302TIP3    H128397   4.186   0.618   2.799  1.7154  1.2737  0.0131
 2302TIP3    H228398   4.190   0.593   2.650  1.1294  0.0918  0.1914
 2303TIP3   OH228399   3.464   2.672   2.853 -0.2262 -0.5748 -0.2722
 2303TIP3    H128400   3.496   2.581   2.848 -0.8340 -0.7841 -0.3361
 2303TIP3    H228401   3.413   2.683   2.773  2.2435  0.7416 -1.7369
 2304TIP3   OH228402   3.216   0.967   6.245 -0.1296  0.1429 -0.2169
 2304TIP3    H128403   3.194   1.041   6.188  1.3152  0.2106 -0.7313
 2304TIP3    H228404   3.135   0.917   6.252 -1.1229  1.7685  0.1283
 2305TIP3   OH228405   6.095   2.273   2.604 -1.0990 -0.5397  0.2847
 2305TIP3    H128406   6.014   2.317   2.578 -1.5364 -1.1913  0.5118
 2305TIP3    H228407   6.104   2.293   2.697 -0.1991  0.7638 -0.0754
 2306TIP3   OH228408   4.377   1.078   0.490 -0.4421  0.0137 -0.2494
 2306TIP3    H128409   4.427   1.010   0.444  0.2905  0.3332  0.0711
 2306TIP3    H228410   4.289   1.071   0.453  0.3861  0.9560 -2.4873
 2307TIP3   OH228411   3.329   2.828   2.231  0.6495  0.1646  0.1933
 2307TIP3    H128412   3.274   2.854   2.157 -0.6165 -0.8574  0.7715
 2307TIP3    H228413   3.401   2.892   2.230 -1.4100  2.5910  0.4630
 2308TIP3   OH228414   2.282   6.627  12.385  0.1257 -0.4091 -0.1387
 2308TIP3    H128415   2.298   6.691  12.315  3.6695 -1.1371 -0.0944
 2308TIP3    H228416   2.237   6.677  12.453 -1.0196  0.9636 -1.8427
 2309TIP3   OH228417   3.401   2.994   0.283 -0.4433  0.4374  0.1757
 2309TIP3    H128418   3.325   3.023   0.233  0.4434 -0.0875 -1.5151
 2309TIP3    H228419   3.425   2.910   0.244 -0.5298 -0.6616  2.3692
 2310TIP3   OH228420   1.378   5.172   0.034  0.1110  0.0841  0.1441
 2310TIP3    H128421   1.388   5.179   0.129  1.4985  0.8251 -0.0429
 2310TIP3    H228422   1.455   5.123   0.005  0.2711  0.8207 -0.7121
 2311TIP3   OH228423   6.581   2.497  14.078  0.1032 -0.0595  0.7182
 2311TIP3    H128424   6.490   2.524  14.095  0.2092  0.6624  0.1755
 2311TIP3    H228425   6.585   2.486  13.983  0.6834  0.2682  0.7047
 2312TIP3   OH228426   5.112   0.125  17.069  0.2442 -0.1948  0.2310
 2312TIP3    H128427   5.139   0.209  17.034  0.8578 -0.9863 -1.2715
 2312TIP3    H228428   5.031   0.143  17.117 -0.4182  0.9972 -1.3134
 2313TIP3   OH228429   3.784   4.233  16.600  0.0961  0.1350 -0.0414
 2313TIP3    H128430   3.745   4.319  16.612  1.0770  0.6111 -0.2364
 2313TIP3    H228431   3.739   4.196  16.524 -0.8836  0.1407  0.5262
 2314TIP3   OH228432   0.219   6.442   2.899 -0.0547  0.0061  0.0139
 2314TIP3    H128433   0.259   6.496   2.967 -0.0480 -0.3946  0.3281
 2314TIP3    H228434   0.292   6.393   2.861 -0.2964 -1.0199  0.8539
 2315TIP3   OH228435   6.392   3.528   6.728 -0.1871  0.1835  0.2251
 2315TIP3    H128436   6.388   3.505   6.635 -1.8962 -2.2147  0.8711
 2315TIP3    H228437   6.469   3.483   6.761  0.7734  1.5284 -0.1270
 2316TIP3   OH228438   0.458   5.056  15.063 -0.0873 -0.2700 -0.2568
 2316TIP3    H128439   0.527   5.072  15.128 -0.1356  0.6107 -0.4185
 2316TIP3    H228440   0.502   5.012  14.991 -0.3491 -2.8059  1.0749
 2317TIP3   OH228441   4.918   1.213  16.043 -0.3095 -0.2602 -0.3978
 2317TIP3    H128442   4.943   1.267  15.967  0.5971 -2.6373 -1.8388
 2317TIP3    H228443   4.865   1.143  16.006  0.9832 -2.0115  1.0222
 2318TIP3   OH228444   5.959   1.876  12.346  0.4282 -0.8562  0.1539
 2318TIP3    H128445   5.981   1.805  12.406 -1.0620 -1.4017  0.0597
 2318TIP3    H228446   5.908   1.835  12.276 -0.0774  0.2313 -0.1326
 2319TIP3   OH228447   3.777   3.157   5.898  0.1404 -0.0435  0.1051
 2319TIP3    H128448   3.713   3.087   5.882 -0.4794  0.7316 -0.8304
 2319TIP3    H228449   3.827   3.163   5.817  1.8465 -1.0591  1.0329
 2320TIP3   OH228450   3.210   4.740   0.889 -0.1689  0.1529 -0.5568
 2320TIP3    H128451   3.168   4.694   0.962 -2.1242  0.0906 -1.6995
 2320TIP3    H228452   3.299   4.705   0.888 -0.9956 -2.0587 -0.0615
 2321TIP3   OH228453   0.783   3.593   1.920 -0.1567  0.4612 -0.1999
 2321TIP3    H128454   0.848   3.523   1.920 -1.2308 -0.5675  1.7993
 2321TIP3    H228455   0.784   3.627   1.830  1.0155 -1.4959 -0.9520
 2322TIP3   OH228456   1.589   0.202  15.584 -0.0299  0.6781  0.2849
 2322TIP3    H128457   1.496   0.197  15.560 -0.1228  0.8258  0.6177
 2322TIP3    H228458   1.634   0.159  15.511 -0.3701  0.4435  0.2096
 2323TIP3   OH228459   6.268   3.185   1.344  0.5214 -0.5231 -0.0161
 2323TIP3    H128460   6.279   3.135   1.425  3.2819 -1.7415 -1.0640
 2323TIP3    H228461   6.216   3.261   1.369 -1.6408 -2.6327  2.1533
 2324TIP3   OH228462   0.436   6.008   2.821  0.0768 -0.1818  0.7309
 2324TIP3    H128463   0.376   5.984   2.892  1.3553  1.0641  2.2852
 2324TIP3    H228464   0.410   6.096   2.796  0.5688 -0.0521  0.6710
 2325TIP3   OH228465   4.487   0.373   6.216 -0.3780 -0.1749 -0.1008
 2325TIP3    H128466   4.418   0.324   6.258  0.2156  0.3990  1.5888
 2325TIP3    H228467   4.566   0.321   6.230 -0.2243 -0.1393 -0.7971
 2326TIP3   OH228468   5.435   1.764  14.549  0.3094 -0.1097 -0.0510
 2326TIP3    H128469   5.411   1.676  14.521  1.8361 -0.4706 -0.2534
 2326TIP3    H228470   5.433   1.816  14.469 -2.7429  0.5561  0.4028
 2327TIP3   OH228471   5.564   0.105   5.392  0.1016 -0.1394 -0.1798
 2327TIP3    H128472   5.478   0.122   5.354 -0.4054  0.2094  1.0991
 2327TIP3    H228473   5.546   0.052   5.470  1.1078 -0.7265 -0.3410
 2328TIP3   OH228474   5.252   6.350   3.139 -0.3380  0.5530 -0.0684
 2328TIP3    H128475   5.298   6.274   3.172 -1.8442 -0.5536 -0.4381
 2328TIP3    H228476   5.319   6.404   3.097  1.0022  0.2622  1.6733
 2329TIP3   OH228477   0.807   1.700   6.665 -0.8835  0.4321 -0.1915
 2329TIP3    H128478   0.745   1.647   6.615 -0.1627  0.3609 -1.0198
 2329TIP3    H228479   0.752   1.755   6.721 -1.7207  0.8737 -1.4262
 2330TIP3   OH228480   3.797   3.531   2.201  0.2002 -0.3042  0.1066
 2330TIP3    H128481   3.710   3.494   2.187 -0.4408  1.0835  0.3494
 2330TIP3    H228482   3.783   3.626   2.202  1.4024 -0.1245  2.1995
 2331TIP3   OH228483   4.508   4.925  16.132  0.1186 -0.2664 -0.3278
 2331TIP3    H128484   4.422   4.883  16.135 -0.8860  1.7386 -0.2916
 2331TIP3    H228485   4.514   4.962  16.044  0.3910  0.7078  0.0967
 2332TIP3   OH228486   0.216   3.108   0.779 -0.0241 -0.4089 -0.0095
 2332TIP3    H128487   0.158   3.034   0.796  1.9251 -1.6869  1.2258
 2332TIP3    H228488   0.272   3.079   0.708 -1.1618  0.9963 -1.5156
 2333TIP3   OH228489   0.638   5.236  16.492  0.3849 -0.4527  0.6746
 2333TIP3    H128490   0.543   5.236  16.478  0.7607 -0.6352 -2.2339
 2333TIP3    H228491   0.660   5.144  16.506  0.1883 -0.4964  0.6904
 2334TIP3   OH228492   2.440   4.515  12.651 -0.2677  0.1166  0.1282
 2334TIP3    H128493   2.503   4.444  12.654 -0.3062  0.1176  1.0831
 2334TIP3    H228494   2.449   4.560  12.735 -1.3859  0.2414  0.2000
 2335TIP3   OH228495   0.689   0.503   1.773  0.5072  0.2706  0.0824
 2335TIP3    H128496   0.736   0.421   1.788 -3.8085 -2.1607  1.0829
 2335TIP3    H228497   0.666   0.501   1.680  0.2690  0.2943  0.1408
 2336TIP3   OH228498   2.737   5.669   4.610 -0.2613  0.0408 -0.4305
 2336TIP3    H128499   2.738   5.648   4.703 -0.4781 -1.1467 -0.6753
 2336TIP3    H228500   2.709   5.587   4.568  1.0068  0.1819 -1.6164
 2337TIP3   OH228501   0.251   0.172   5.563 -0.1006  0.4830 -0.1546
 2337TIP3    H128502   0.230   0.135   5.478 -0.5359  0.7076 -0.1480
 2337TIP3    H228503   0.336   0.135   5.586 -0.5877 -0.5925 -0.0989
 2338TIP3   OH228504   6.342   4.204   5.922  0.0764 -0.4356  0.2996
 2338TIP3    H128505   6.304   4.126   5.882 -2.0718  1.4047 -1.3439
 2338TIP3    H228506   6.306   4.277   5.872  0.7902  1.7078  2.8126
 2339TIP3   OH228507   1.969   0.517   2.674 -0.3145  0.1382 -0.3146
 2339TIP3    H128508   2.044   0.470   2.709  0.2891  0.9324 -0.5351
 2339TIP3    H228509   1.908   0.448   2.648  1.1031 -0.5905 -1.8453
 2340TIP3   OH228510   4.406   0.595  16.146  0.7291 -0.2619  0.4839
 2340TIP3    H128511   4.409   0.681  16.104 -2.2669 -0.5599 -0.4006
 2340TIP3    H228512   4.386   0.613  16.237  2.2365  0.0667  0.7735
 2341TIP3   OH228513   3.963   5.549   4.936 -0.1398  0.8591 -0.1100
 2341TIP3    H128514   3.961   5.477   4.998 -1.9209  1.1486  0.1836
 2341TIP3    H228515   3.976   5.627   4.990 -2.4990  1.1986  0.0069
 2342TIP3   OH228516   0.620   3.182  15.694 -0.5685  0.2481  0.1780
 2342TIP3    H128517   0.697   3.189  15.637 -0.9487  3.2437 -0.0697
 2342TIP3    H228518   0.653   3.143  15.775  0.4419 -1.9121 -1.2297
 2343TIP3   OH228519   3.884   5.548  11.945  0.3124 -1.1239 -0.3309
 2343TIP3    H128520   3.796   5.514  11.927 -0.1846  0.1962 -0.3969
 2343TIP3    H228521   3.943   5.490  11.896 -0.6023 -1.3003 -1.2330
 2344TIP3   OH228522   5.471   3.939   4.347 -0.2882  0.8200  0.2148
 2344TIP3    H128523   5.513   4.021   4.323  0.9743  0.9479  2.7087
 2344TIP3    H228524   5.462   3.944   4.442  0.9884 -2.4849  0.5596
 2345TIP3   OH228525   1.363   2.407  12.302 -0.0287 -0.1425 -0.3294
 2345TIP3    H128526   1.336   2.375  12.389  0.3230  0.1803 -0.0985
 2345TIP3    H228527   1.285   2.396  12.248 -0.9833  1.8201  0.6077
 2346TIP3   OH228528   3.173   4.847  10.818  0.1425 -0.6874  0.4387
 2346TIP3    H128529   3.164   4.763  10.774  2.2947 -1.5797  1.6374
 2346TIP3    H228530   3.259   4.880  10.790 -0.1937  0.5868  0.8679
 2347TIP3   OH228531   6.385   2.857  12.279 -0.1192  0.0958  0.0582
 2347TIP3    H128532   6.426   2.788  12.228 -1.2471 -1.8124  1.6778
 2347TIP3    H228533   6.458   2.905  12.318  0.6405 -0.8113 -0.2383
 2348TIP3   OH228534   4.167   6.566  10.880 -0.1389 -0.0767  0.2855
 2348TIP3    H128535   4.172   6.527  10.968 -1.2905  1.4475  1.0613
 2348TIP3    H228536   4.235   6.521  10.830 -0.1888 -1.7413  1.6536
 2349TIP3   OH228537   3.633   1.468   4.556 -0.1300  0.0401 -0.0309
 2349TIP3    H128538   3.685   1.529   4.504 -0.3388 -0.5024 -0.8889
 2349TIP3    H228539   3.691   1.441   4.627  0.6831 -0.3766 -0.8405
 2350TIP3   OH228540   3.946   6.522   0.355  0.0189  0.2179  0.1218
 2350TIP3    H128541   3.984   6.607   0.380  0.9548 -0.8226  2.4021
 2350TIP3    H228542   4.020   6.462   0.357 -0.9448 -0.9768  0.1556
 2351TIP3   OH228543   4.697   4.115   3.672 -0.5973 -0.9331  0.6625
 2351TIP3    H128544   4.755   4.067   3.613  1.4621  0.7417  1.2832
 2351TIP3    H228545   4.725   4.089   3.760 -1.0302 -0.4058  0.9565
 2352TIP3   OH228546   0.366   5.191  16.501  0.6644  0.0745  0.2724
 2352TIP3    H128547   0.335   5.210  16.590 -0.2769  1.0487 -0.2685
 2352TIP3    H228548   0.295   5.142  16.461  1.5820 -1.4358  0.4351
 2353TIP3   OH228549   5.510   6.288  17.224  0.1345 -0.0151 -0.3249
 2353TIP3    H128550   5.540   6.204  17.260  0.9801  0.5106  0.1990
 2353TIP3    H228551   5.487   6.268  17.133  1.5732 -0.5424 -0.5830
 2354TIP3   OH228552   2.833   0.209  11.488 -0.1380 -0.8505 -0.0626
 2354TIP3    H128553   2.926   0.224  11.473  0.3974 -4.3704 -0.5929
 2354TIP3    H228554   2.826   0.197  11.583 -0.0341 -0.6660 -0.0310
 2355TIP3   OH228555   0.138   1.667   7.004  0.5765  0.5980  0.0183
 2355TIP3    H128556   0.189   1.614   6.943  1.5016  2.7623 -1.1344
 2355TIP3    H228557   0.067   1.703   6.951 -0.1781  0.3608  0.8496
 2356TIP3   OH228558   1.371   6.391  16.046 -0.7481 -0.4556  0.0415
 2356TIP3    H128559   1.412   6.315  16.089 -0.6796  0.0024  0.7847
 2356TIP3    H228560   1.375   6.461  16.111  1.9353  1.0716 -1.6601
 2357TIP3   OH228561   6.258   2.897   5.336  1.1612 -0.5550 -0.0386
 2357TIP3    H128562   6.336   2.870   5.384  1.6920 -1.2164 -1.2522
 2357TIP3    H228563   6.192   2.831   5.358  0.1378  1.3757  2.9769
 2358TIP3   OH228564   3.955   0.863   2.576 -0.1286  0.1522  0.2429
 2358TIP3    H128565   3.881   0.802   2.570  0.3658 -0.6368  1.9570
 2358TIP3    H228566   3.965   0.881   2.669  3.5497 -1.9350  0.3817
 2359TIP3   OH228567   5.251   0.352  16.338  0.0905 -0.1657  0.4517
 2359TIP3    H128568   5.167   0.312  16.313  0.5980 -0.9343 -0.0554
 2359TIP3    H228569   5.228   0.418  16.403 -0.9156 -0.3443  0.2829
 2360TIP3   OH228570   0.616   6.423   3.786  0.2418  0.0552  0.2284
 2360TIP3    H128571   0.614   6.517   3.798  2.0548  0.1519 -0.0627
 2360TIP3    H228572   0.669   6.390   3.858 -0.1020 -0.7077  0.1464
 2361TIP3   OH228573   6.139   1.973  14.646 -0.8402 -0.2091 -1.2160
 2361TIP3    H128574   6.180   2.042  14.594 -0.5895  0.0913 -0.6339
 2361TIP3    H228575   6.101   2.020  14.720  0.2743 -0.8128 -0.2391
 2362TIP3   OH228576   0.425   0.395   0.309  0.3195 -0.0717  0.0674
 2362TIP3    H128577   0.379   0.316   0.281  0.1982  0.0314 -0.0249
 2362TIP3    H228578   0.456   0.375   0.397 -0.4605  0.0935  0.3842
 2363TIP3   OH228579   0.235   1.832   2.287 -0.1464 -0.4204  0.3473
 2363TIP3    H128580   0.206   1.791   2.206  1.9191  0.7416 -1.0244
 2363TIP3    H228581   0.303   1.774   2.320  0.6953  0.3322 -0.0360
 2364TIP3   OH228582   2.186   0.713  12.355 -0.0852 -0.1791  0.1654
 2364TIP3    H128583   2.121   0.644  12.343  0.5066 -0.9090  1.1047
 2364TIP3    H228584   2.166   0.777  12.286 -1.9665 -0.2665  0.5867
 2365TIP3   OH228585   5.444   3.472  11.855  0.0526 -0.7454  0.6640
 2365TIP3    H128586   5.432   3.497  11.947 -2.6485  0.5382  0.0036
 2365TIP3    H228587   5.412   3.382  11.851 -1.3331 -0.2770  0.7056
 2366TIP3   OH228588   5.875   5.978  16.376 -0.0246  0.2604 -0.5429
 2366TIP3    H128589   5.836   5.950  16.459 -1.0037 -0.0565 -1.1016
 2366TIP3    H228590   5.966   5.950  16.381 -0.0192  0.4492  0.5235
 2367TIP3   OH228591   0.175   0.146   5.290 -0.1204 -0.2947 -0.0270
 2367TIP3    H128592   0.253   0.200   5.284 -1.1815  1.1058 -1.6975
 2367TIP3    H228593   0.102   0.208   5.288 -1.3045 -1.5722  1.4337
 2368TIP3   OH228594   0.438   2.423  15.405 -0.2262 -0.2003 -0.1055
 2368TIP3    H128595   0.502   2.438  15.474  0.3507  1.1189 -0.9223
 2368TIP3    H228596   0.360   2.392  15.452  1.0187 -2.0106  0.8802
 2369TIP3   OH228597   6.292   5.873   0.846 -0.6373  0.0749 -0.0833
 2369TIP3    H128598   6.270   5.829   0.764 -1.5901  1.6590 -0.7225
 2369TIP3    H228599   6.337   5.807   0.898 -0.7933 -1.2148 -1.5422
 2370TIP3   OH228600   5.560   4.736   3.703  0.2821 -0.3034 -0.0839
 2370TIP3    H128601   5.631   4.782   3.659  0.2465  0.1057  0.2773
 2370TIP3    H228602   5.539   4.792   3.778 -1.6821  0.5312 -1.2238
 2371TIP3   OH228603   3.237   4.346  15.781 -0.8441  0.2570  0.5925
 2371TIP3    H128604   3.184   4.266  15.781  0.3328 -0.5386  0.3613
 2371TIP3    H228605   3.294   4.336  15.705  0.0099  0.8453  1.1579
 2372TIP3   OH228606   2.239   0.754  16.510 -0.2585  0.3366 -0.2057
 2372TIP3    H128607   2.146   0.764  16.493 -0.2942  1.5871  0.6536
 2372TIP3    H228608   2.279   0.748  16.422 -1.4021 -3.1378 -0.5442
 2373TIP3   OH228609   6.816   5.848  11.410  0.3273  0.1558  0.4793
 2373TIP3    H128610   6.746   5.870  11.349 -0.2710  0.3046  1.2153
 2373TIP3    H228611   6.889   5.822  11.354 -0.2735  0.1115 -0.2927
 2374TIP3   OH228612   5.960   6.566  15.585 -0.1667 -0.1477 -0.2348
 2374TIP3    H128613   5.920   6.537  15.503  1.9736 -0.1809 -1.2828
 2374TIP3    H228614   5.990   6.654  15.567  0.1206 -0.0719  0.6031
 2375TIP3   OH228615   3.264   3.081  15.653 -0.6571 -0.2362  0.3402
 2375TIP3    H128616   3.317   3.144  15.605 -0.8253 -0.6506 -0.3841
 2375TIP3    H228617   3.197   3.052  15.591 -0.5061 -1.2246  0.6176
 2376TIP3   OH228618   0.661   2.915   6.542 -0.0326  0.4534 -0.3736
 2376TIP3    H128619   0.752   2.896   6.563  0.2317  1.0401 -0.9831
 2376TIP3    H228620   0.612   2.839   6.575  0.7230 -0.0840 -0.4809
 2377TIP3   OH228621   0.309   3.791   2.198  0.3694 -0.0164  0.3782
 2377TIP3    H128622   0.241   3.756   2.140 -0.2407 -1.4513  1.9422
 2377TIP3    H228623   0.261   3.839   2.265  0.9786 -0.0151  0.8116
 2378TIP3   OH228624   3.016   5.402   3.506 -0.3787  0.6732  0.1687
 2378TIP3    H128625   3.097   5.447   3.485 -0.3777  0.4106 -0.3967
 2378TIP3    H228626   2.955   5.426   3.436 -0.9924  1.3877  0.9328
 2379TIP3   OH228627   4.558   6.293   6.043 -0.3537 -0.1267 -0.0188
 2379TIP3    H128628   4.580   6.209   6.002 -1.5908 -0.2279 -0.4770
 2379TIP3    H228629   4.643   6.334   6.058  0.3994 -2.2682  1.9398
 2380TIP3   OH228630   4.019   1.287  11.118  0.4578 -0.3494  0.1581
 2380TIP3    H128631   3.970   1.331  11.049  0.6084 -0.8758 -0.2867
 2380TIP3    H228632   4.071   1.356  11.159  0.7868 -0.1395 -0.6195
 2381TIP3   OH228633   6.479   0.518   3.195 -0.0243  0.8743 -0.5390
 2381TIP3    H128634   6.439   0.435   3.222  0.4827  1.5361  2.5076
 2381TIP3    H228635   6.567   0.516   3.233 -0.4308  3.2856  0.7009
 2382TIP3   OH228636   2.705   2.137  16.656 -0.1201  0.0346 -0.2612
 2382TIP3    H128637   2.659   2.210  16.697  1.6189  0.9369  0.1607
 2382TIP3    H228638   2.656   2.119  16.576 -2.6689 -0.7331  1.4083
 2383TIP3   OH228639   2.847   5.282  14.924  0.8925 -0.1722 -0.1818
 2383TIP3    H128640   2.943   5.279  14.925  0.9325 -0.0671 -2.3440
 2383TIP3    H228641   2.826   5.361  14.875 -0.2811 -1.7698 -2.3629
 2384TIP3   OH228642   3.025   5.361   3.787 -0.4847  0.4221  0.0725
 2384TIP3    H128643   2.984   5.275   3.783 -3.0444  1.5944 -0.4568
 2384TIP3    H228644   3.029   5.391   3.696  1.1932  0.5267  0.1585
 2385TIP3   OH228645   4.705   3.480   0.538  0.3443 -0.1812  0.3815
 2385TIP3    H128646   4.716   3.425   0.460 -1.3423  1.3496 -0.9811
 2385TIP3    H228647   4.649   3.428   0.596  0.9968 -1.0252  0.2592
 2386TIP3   OH228648   5.767   5.830   4.254  0.1680 -0.0726 -0.6523
 2386TIP3    H128649   5.727   5.801   4.336  1.6328 -0.7819 -0.1724
 2386TIP3    H228650   5.806   5.751   4.218  0.0396  0.3603 -1.7586
 2387TIP3   OH228651   0.316   0.897   1.751 -0.0758  0.3492  0.1487
 2387TIP3    H128652   0.242   0.950   1.722 -0.5317  0.2390  1.0651
 2387TIP3    H228653   0.277   0.814   1.779  0.4411  0.1348  0.2541
 2388TIP3   OH228654   3.679   5.504   0.201  0.2546  0.4155 -0.1508
 2388TIP3    H128655   3.650   5.559   0.128  1.3753  1.8891  0.4792
 2388TIP3    H228656   3.672   5.414   0.168  1.4223  1.0796 -2.3347
 2389TIP3   OH228657   2.359   5.572  14.973 -0.2791  0.3046 -0.6160
 2389TIP3    H128658   2.341   5.544  14.883  1.4184 -0.4667 -0.7226
 2389TIP3    H228659   2.454   5.574  14.980 -0.3887  0.6523  1.0851
 2390TIP3   OH228660   0.887   6.075  13.261  0.2186 -0.3315 -0.2103
 2390TIP3    H128661   0.895   6.034  13.174 -0.4426  1.4182 -1.1283
 2390TIP3    H228662   0.916   6.008  13.322  0.5432 -1.6571 -1.7844
 2391TIP3   OH228663   4.900   5.081   2.448  0.5226 -0.1170 -0.1365
 2391TIP3    H128664   4.848   5.005   2.421  1.9572 -0.6505 -1.4594
 2391TIP3    H228665   4.863   5.154   2.399  0.3210 -0.2861 -0.2361
 2392TIP3   OH228666   2.916   2.225   5.129  0.5855  0.3564  0.0085
 2392TIP3    H128667   2.821   2.222   5.141  0.4608 -1.3477 -1.2169
 2392TIP3    H228668   2.936   2.151   5.071  2.6167  0.9108 -0.0630
 2393TIP3   OH228669   5.215   6.156   4.359 -0.1073  0.4890 -0.6295
 2393TIP3    H128670   5.245   6.174   4.270 -1.0037 -0.4140 -1.1192
 2393TIP3    H228671   5.161   6.231   4.382  0.4008  0.8849 -0.7104
 2394TIP3   OH228672   2.575   0.744   2.796  0.5782 -0.1130 -0.3065
 2394TIP3    H128673   2.504   0.702   2.748 -0.6725  0.9919  0.5576
 2394TIP3    H228674   2.610   0.809   2.735 -1.1669  1.4600  0.3115
 2395TIP3   OH228675   6.102   0.733   4.183  0.3101 -0.2867 -0.7336
 2395TIP3    H128676   6.161   0.730   4.258 -0.9841  1.0663  0.3724
 2395TIP3    H228677   6.099   0.643   4.151  2.3165 -0.5336 -0.3236
 2396TIP3   OH228678   5.481   0.372   2.329  0.4650 -0.1967  0.0453
 2396TIP3    H128679   5.556   0.358   2.388  0.7250 -1.0234 -0.4734
 2396TIP3    H228680   5.406   0.338   2.378  0.5223  0.0136  0.2875
 2397TIP3   OH228681   0.865   3.857   3.614  0.2077 -0.3732 -0.5617
 2397TIP3    H128682   0.770   3.865   3.608  0.3933  0.8141 -2.2693
 2397TIP3    H228683   0.898   3.944   3.593  1.6543 -0.4061  1.4108
 2398TIP3   OH228684   0.607   1.071  14.968 -0.1086 -0.4400 -0.5002
 2398TIP3    H128685   0.614   1.059  14.873 -2.5451 -0.2282 -0.7394
 2398TIP3    H228686   0.512   1.072  14.985  0.2891  0.3330  1.8281
 2399TIP3   OH228687   4.377   1.898   3.519  0.0985  0.5270 -0.4522
 2399TIP3    H128688   4.388   1.992   3.502  1.0419  0.1333 -2.0372
 2399TIP3    H228689   4.364   1.859   3.433 -0.1897 -0.8267  0.1920
 2400TIP3   OH228690   2.207   4.064   6.128 -0.6335  0.1357 -0.1790
 2400TIP3    H128691   2.212   4.110   6.212  0.0744 -0.3547  0.0574
 2400TIP3    H228692   2.279   4.000   6.132  0.4917  1.2532 -1.8580
 2401TIP3   OH228693   0.628   3.699   1.387 -0.0257 -0.0119 -0.8611
 2401TIP3    H128694   0.610   3.767   1.322 -0.8443 -1.3593 -2.0892
 2401TIP3    H228695   0.542   3.681   1.425  0.6380  1.6022  1.4663
 2402TIP3   OH228696   1.928   1.214  13.660 -0.2735  0.0616  0.1464
 2402TIP3    H128697   1.873   1.286  13.627  0.5043  0.8210  0.4853
 2402TIP3    H228698   1.954   1.243  13.747  0.4424 -0.4216  0.0931
 2403TIP3   OH228699   5.534   3.730  11.597 -0.0642 -0.7152 -0.2333
 2403TIP3    H128700   5.445   3.695  11.590  0.6656 -2.7858  0.4003
 2403TIP3    H228701   5.579   3.697  11.519  0.3105 -0.1722 -0.2520
 2404TIP3   OH228702   0.124   2.227   1.204  0.0132 -0.2010 -0.1121
 2404TIP3    H128703   0.212   2.208   1.171  0.2898 -1.1227  1.1479
 2404TIP3    H228704   0.083   2.142   1.214 -1.1907  0.2438 -1.0993
 2405TIP3   OH228705   5.526   5.695  11.708  0.4382  0.1563  0.5651
 2405TIP3    H128706   5.604   5.732  11.669  0.2805 -0.8774 -0.7702
 2405TIP3    H228707   5.513   5.611  11.663 -0.8497 -0.1667  1.4774
 2406TIP3   OH228708   5.513   6.806  14.738 -0.5788 -0.2673  0.2689
 2406TIP3    H128709   5.498   6.795  14.644  2.4867 -1.9366 -0.0849
 2406TIP3    H228710   5.540   6.897  14.748  1.4883 -0.7283 -0.8532
 2407TIP3   OH228711   3.094   4.267   3.146  0.3487  0.0299 -0.1539
 2407TIP3    H128712   3.126   4.195   3.201  1.0923  0.2273 -0.3261
 2407TIP3    H228713   3.128   4.248   3.059  0.3812  0.4872 -0.2399
 2408TIP3   OH228714   5.127   3.864  15.516 -0.5440 -0.6364  0.4006
 2408TIP3    H128715   5.194   3.902  15.460 -0.4275 -0.2046  0.8329
 2408TIP3    H228716   5.174   3.809  15.578 -0.4355  0.8769  1.6908
 2409TIP3   OH228717   4.729   1.961  12.194 -0.4565 -0.3487 -0.0619
 2409TIP3    H128718   4.792   1.933  12.261 -0.5346 -0.2506  0.0530
 2409TIP3    H228719   4.732   1.891  12.128  0.8698  0.3527 -0.7859
 2410TIP3   OH228720   1.206   0.967  12.189  0.0710  0.6894 -0.1895
 2410TIP3    H128721   1.302   0.971  12.183 -0.0089  0.2780 -2.2232
 2410TIP3    H228722   1.176   0.999  12.104 -1.5826 -0.1624  0.0573
 2411TIP3   OH228723   2.673   3.360  12.786  0.0729  0.1914 -0.3755
 2411TIP3    H128724   2.768   3.372  12.789  0.2729 -1.3711 -0.3023
 2411TIP3    H228725   2.656   3.288  12.846 -1.2401  0.8671  0.0791
 2412TIP3   OH228726   2.617   0.988  13.203  0.3099  0.0050  0.0553
 2412TIP3    H128727   2.658   0.929  13.140 -1.0355 -0.7901 -0.1110
 2412TIP3    H228728   2.527   0.955  13.210 -0.8982  2.8918 -1.1291
 2413TIP3   OH228729   3.437   5.157  16.410 -0.7213  0.0066  0.7401
 2413TIP3    H128730   3.456   5.169  16.317 -2.7974  0.0512  0.3002
 2413TIP3    H228731   3.523   5.143  16.450  0.1533 -0.4925 -1.2378
 2414TIP3   OH228732   3.200   0.687   1.722  0.0701 -0.0357 -0.7191
 2414TIP3    H128733   3.252   0.633   1.662 -1.0297 -0.1418 -1.5928
 2414TIP3    H228734   3.209   0.644   1.807 -1.5538 -2.2013 -1.5778
 2415TIP3   OH228735   3.308   2.566  15.826  0.4073 -0.3056 -0.0354
 2415TIP3    H128736   3.343   2.533  15.909  0.4067  1.6666  0.7600
 2415TIP3    H228737   3.214   2.569  15.839  0.4010 -0.0684 -0.1499
 2416TIP3   OH228738   0.607   4.314  14.873 -1.1114  0.1163  0.0257
 2416TIP3    H128739   0.536   4.350  14.926 -0.2860  0.2311  1.0693
 2416TIP3    H228740   0.596   4.219  14.879  0.5237  0.0546  2.5802
 2417TIP3   OH228741   3.473   2.751   4.163 -0.3559 -0.4051  0.6296
 2417TIP3    H128742   3.564   2.723   4.157 -0.4645 -1.0232  1.8216
 2417TIP3    H228743   3.437   2.735   4.076  0.2668 -1.6058  0.5874
 2418TIP3   OH228744   3.118   2.944  16.286 -0.0117 -0.0137  0.0986
 2418TIP3    H128745   3.173   2.911  16.358 -0.7975 -0.2728  0.5901
 2418TIP3    H228746   3.029   2.947  16.324 -0.8871 -2.6015 -1.6496
 2419TIP3   OH228747   5.149   6.527  16.118 -0.0080 -0.0285  0.1255
 2419TIP3    H128748   5.142   6.473  16.039  1.4430 -1.9289  1.2469
 2419TIP3    H228749   5.203   6.601  16.092 -0.8797  0.2010 -1.0752
 2420TIP3   OH228750   5.282   6.425   0.467 -0.0325 -0.3744  0.2281
 2420TIP3    H128751   5.202   6.410   0.416  0.1208 -1.3300  0.2544
 2420TIP3    H228752   5.352   6.397   0.409  0.5859  3.7183 -1.1469
 2421TIP3   OH228753   3.919   3.807   0.692 -0.0293  0.2008  0.1549
 2421TIP3    H128754   3.945   3.739   0.753  2.0173  0.9040  0.1091
 2421TIP3    H228755   3.926   3.889   0.741  1.8698  0.7969 -1.0451
 2422TIP3   OH228756   4.493   2.075  16.916  0.4684  0.3812 -0.8242
 2422TIP3    H128757   4.518   2.110  17.002  2.0447 -0.9178 -0.7328
 2422TIP3    H228758   4.429   2.007  16.936 -1.4471  2.0927 -0.9070
 2423TIP3   OH228759   0.027   0.477  11.095 -0.3823  0.3002 -0.2358
 2423TIP3    H128760  -0.062   0.443  11.096 -0.2920  0.0300 -0.8873
 2423TIP3    H228761   0.068   0.434  11.020  0.2961  0.4206  0.0580
 2424TIP3   OH228762   2.525   5.569  15.445 -0.0251 -0.2409 -0.1531
 2424TIP3    H128763   2.445   5.606  15.406  0.1681 -0.3554 -0.6602
 2424TIP3    H228764   2.564   5.518  15.375  0.5433 -0.1130  0.0717
 2425TIP3   OH228765   5.713   6.159  13.123  0.2467 -0.0752 -0.1099
 2425TIP3    H128766   5.756   6.209  13.192 -0.8646  0.2256  0.3913
 2425TIP3    H228767   5.736   6.205  13.042 -1.9706  2.2041  0.4657
 2426TIP3   OH228768   4.903   4.336  13.679 -0.5716  0.2218  0.2348
 2426TIP3    H128769   4.957   4.261  13.703  0.1912  0.5474 -0.4016
 2426TIP3    H228770   4.824   4.297  13.640  0.3447 -0.2660 -1.2108
 2427TIP3   OH228771   5.860   3.005   4.417  0.7466 -0.3436  0.1390
 2427TIP3    H128772   5.842   3.098   4.403  0.6013 -0.6468 -1.8258
 2427TIP3    H228773   5.774   2.966   4.429  0.6152 -0.5731 -1.4170
 2428TIP3   OH228774   1.066   3.187   2.234 -0.5635  0.6762 -0.5008
 2428TIP3    H128775   1.036   3.227   2.152  0.3926 -1.5409 -1.9578
 2428TIP3    H228776   0.994   3.130   2.260  0.1628 -0.5626 -1.1670
 2429TIP3   OH228777   0.192   6.256  14.240  0.4937  0.2151  0.7586
 2429TIP3    H128778   0.140   6.177  14.258 -0.1564 -0.0492 -2.0747
 2429TIP3    H228779   0.280   6.222  14.222  0.7105  0.3354  1.5512
 2430TIP3   OH228780   4.224   0.849  13.047 -0.5236 -0.2703 -0.1147
 2430TIP3    H128781   4.217   0.872  13.140  0.9813 -0.6048  0.0960
 2430TIP3    H228782   4.317   0.837  13.032 -0.7883 -0.6314 -1.5855
 2431TIP3   OH228783   1.950   1.575  11.667  0.2432  0.1979 -0.2735
 2431TIP3    H128784   1.868   1.577  11.715 -0.9461 -0.1789 -2.2441
 2431TIP3    H228785   2.012   1.621  11.724 -1.3136  0.5056  1.2194
 2432TIP3   OH228786   6.225   6.306  14.859 -0.0958  0.0858 -0.3974
 2432TIP3    H128787   6.298   6.318  14.920  0.2040  0.5672 -0.8495
 2432TIP3    H228788   6.163   6.252  14.908 -0.9914  2.5541  1.3254
 2433TIP3   OH228789   2.810   0.386   0.478  0.1935  0.3424  0.1658
 2433TIP3    H128790   2.730   0.395   0.427 -0.7340 -2.9467  0.9762
 2433TIP3    H228791   2.875   0.355   0.415  0.2341  0.6763  0.0383
 2434TIP3   OH228792   2.070   2.872   3.621 -0.1008  0.3056  0.1345
 2434TIP3    H128793   2.039   2.783   3.610 -1.1819  0.6538  0.2744
 2434TIP3    H228794   2.149   2.877   3.568 -1.6200  0.0961 -2.2541
 2435TIP3   OH228795   5.163   0.481  15.006 -0.1030  0.3997 -0.2255
 2435TIP3    H128796   5.172   0.576  15.010 -1.1508  0.4537  1.5042
 2435TIP3    H228797   5.228   0.448  15.068  0.7151 -0.0485 -1.3153
 2436TIP3   OH228798   3.593   1.745  13.392 -0.0342 -0.3114 -0.1812
 2436TIP3    H128799   3.686   1.767  13.398 -0.0155  0.3836 -2.4021
 2436TIP3    H228800   3.579   1.722  13.300 -2.1685  0.1074 -0.0036
 2437TIP3   OH228801   0.329   3.352  17.016  0.0212 -0.3368 -0.7361
 2437TIP3    H128802   0.335   3.346  17.111 -0.4223 -0.0831 -0.6927
 2437TIP3    H228803   0.420   3.357  16.986  0.1282  0.3965 -0.2790
 2438TIP3   OH228804   1.445   6.369   2.168 -0.1609 -0.2354  0.4067
 2438TIP3    H128805   1.486   6.327   2.092 -1.0188 -0.6133  0.1434
 2438TIP3    H228806   1.352   6.376   2.144 -0.4625 -0.4939  1.4770
 2439TIP3   OH228807   6.190   3.376   0.021  0.0959  0.1672 -0.4732
 2439TIP3    H128808   6.219   3.467   0.029 -0.4581  0.2005  1.1271
 2439TIP3    H228809   6.129   3.363   0.093 -0.1389 -1.3666 -0.9306
 2440TIP3   OH228810   2.175   5.964  12.305 -0.0235 -0.2099 -0.5423
 2440TIP3    H128811   2.093   5.950  12.353  0.3961 -1.4331 -0.1576
 2440TIP3    H228812   2.235   5.899  12.341  0.6988 -0.2708 -1.8162
 2441TIP3   OH228813   0.457   6.460   5.760  0.1921 -0.1818  0.8536
 2441TIP3    H128814   0.531   6.520   5.757 -0.5547  0.7143  0.2361
 2441TIP3    H228815   0.444   6.443   5.854  0.1289  0.9672  1.0604
 2442TIP3   OH228816   5.354   3.034  12.074  0.1081  0.1181 -0.8016
 2442TIP3    H128817   5.305   3.038  11.992  1.5534  0.1643 -1.6652
 2442TIP3    H228818   5.443   3.059  12.051  0.4248  0.6206  0.8743
 2443TIP3   OH228819   2.702   5.433   4.189  0.2287  0.3601  0.1697
 2443TIP3    H128820   2.732   5.463   4.275 -1.6411 -0.2950  1.0826
 2443TIP3    H228821   2.713   5.338   4.192  0.7915  0.3992 -0.5788
 2444TIP3   OH228822   5.900   2.818   2.870 -0.1637 -0.2978 -0.3912
 2444TIP3    H128823   5.861   2.736   2.841 -1.5042 -0.2999  1.3026
 2444TIP3    H228824   5.855   2.885   2.818 -1.0662 -0.4522  0.1726
 2445TIP3   OH228825   5.039   4.490  14.299 -0.0303  0.7189  0.3532
 2445TIP3    H128826   5.028   4.554  14.370 -1.9932 -0.3986  1.0902
 2445TIP3    H228827   4.996   4.530  14.224  1.2189  1.4863  0.0329
 2446TIP3   OH228828   6.565   2.155  16.780 -0.0708  0.1672 -0.1702
 2446TIP3    H128829   6.471   2.170  16.773 -0.2536 -0.3035  1.0871
 2446TIP3    H228830   6.604   2.241  16.766 -0.7423  0.5500  0.2792
 2447TIP3   OH228831   5.765   1.353  15.961  0.3618 -0.2557 -0.4167
 2447TIP3    H128832   5.758   1.429  15.903 -0.5727 -0.3466 -0.4313
 2447TIP3    H228833   5.854   1.358  15.996  0.7202  0.1619 -1.3568
 2448TIP3   OH228834   1.290   2.958  12.866  0.7764  0.3725  0.0026
 2448TIP3    H128835   1.242   2.965  12.949  0.2653  1.4048 -0.3863
 2448TIP3    H228836   1.339   2.876  12.875 -1.0629 -0.7195  0.3958
 2449TIP3   OH228837   5.106   6.416   4.477 -0.1956  0.3576  0.2262
 2449TIP3    H128838   5.012   6.416   4.493 -0.1555  1.5720  0.5429
 2449TIP3    H228839   5.121   6.496   4.426  0.5737 -0.1496 -0.3550
 2450TIP3   OH228840   6.276   2.089   5.283 -0.3857  0.3336 -0.6467
 2450TIP3    H128841   6.270   2.018   5.220  0.5331  0.1473 -0.5284
 2450TIP3    H228842   6.192   2.135   5.276 -0.7516 -0.4067 -1.1374
 2451TIP3   OH228843   5.525   2.979   1.480  0.0688 -1.1663  0.1967
 2451TIP3    H128844   5.437   3.008   1.455 -0.6832 -2.1896  1.5469
 2451TIP3    H228845   5.583   3.019   1.416 -1.1459  1.5292  0.7264
 2452TIP3   OH228846   0.062   3.521   0.798  0.1391 -0.0576  0.0307
 2452TIP3    H128847   0.010   3.507   0.877 -0.3895 -1.3760 -0.5312
 2452TIP3    H228848   0.066   3.434   0.757  0.9023  0.4978 -1.0804
 2453TIP3   OH228849   3.845   5.232   1.163 -0.0835 -0.1470  0.0891
 2453TIP3    H128850   3.893   5.181   1.229  0.9187  0.2257 -0.3344
 2453TIP3    H228851   3.913   5.260   1.101 -0.9241  0.0409 -0.7487
 2454TIP3   OH228852   6.449   0.164   1.353 -0.4241  0.6576  0.2366
 2454TIP3    H128853   6.372   0.164   1.410 -0.4225 -0.8613  0.2575
 2454TIP3    H228854   6.444   0.247   1.307 -1.2323  1.2585  1.3781
 2455TIP3   OH228855   4.109   5.090  14.913 -0.1828 -0.1238 -0.1970
 2455TIP3    H128856   4.026   5.058  14.947 -0.0077  0.2241  0.5645
 2455TIP3    H228857   4.116   5.180  14.947  1.0584 -0.5616  0.7230
 2456TIP3   OH228858   5.012   1.615  11.487 -0.3691  0.3609 -0.2758
 2456TIP3    H128859   4.944   1.650  11.430  1.7085 -0.4133 -3.3482
 2456TIP3    H228860   4.981   1.528  11.513 -0.3487 -0.2046 -2.0912
 2457TIP3   OH228861   6.179   3.067  15.216  0.0230  0.8639 -0.6837
 2457TIP3    H128862   6.193   3.135  15.150  2.1352  0.0718 -1.0647
 2457TIP3    H228863   6.203   2.986  15.173 -3.0046 -0.2661 -0.3924
 2458TIP3   OH228864   4.699   5.782   4.275 -0.1586  0.7198  0.7378
 2458TIP3    H128865   4.661   5.696   4.290 -0.1990  0.4048 -1.0010
 2458TIP3    H228866   4.664   5.837   4.345 -1.7872 -0.1952  0.6640
 2459TIP3   OH228867   3.132   2.389  12.515  0.6415 -0.7251 -0.1546
 2459TIP3    H128868   3.153   2.347  12.598  0.4991  0.8517  0.6921
 2459TIP3    H228869   3.212   2.434  12.490  0.7972 -1.4879 -1.0665
 2460TIP3   OH228870   6.575   0.430   0.101  0.4603 -0.1290 -0.0450
 2460TIP3    H128871   6.608   0.516   0.128 -0.6317  0.3122 -0.0601
 2460TIP3    H228872   6.614   0.369   0.164 -0.2992  0.6240  1.1901
 2461TIP3   OH228873   4.239   4.184   1.493  0.2995  0.1515 -0.1239
 2461TIP3    H128874   4.271   4.100   1.461 -0.8121 -0.1262 -0.5552
 2461TIP3    H228875   4.143   4.176   1.488  0.1813  1.3253  0.1311
 2462TIP3   OH228876   2.351   3.155  11.648  0.1556 -0.3858 -0.2776
 2462TIP3    H128877   2.397   3.109  11.718 -0.0083 -0.1435 -0.0044
 2462TIP3    H228878   2.379   3.113  11.568  0.9483 -0.1559 -0.1208
 2463TIP3   OH228879   0.190   2.664  17.152  0.0907  0.0650  0.4888
 2463TIP3    H128880   0.174   2.570  17.137 -2.4134  0.5680 -0.1889
 2463TIP3    H228881   0.123   2.690  17.215  0.5886  1.4971  0.4470
 2464TIP3   OH228882   3.411   4.028  13.586 -0.2026  0.0928 -0.0766
 2464TIP3    H128883   3.478   3.993  13.527  0.5503 -1.5633  1.6928
 2464TIP3    H228884   3.350   4.073  13.529  0.2990 -1.8071 -2.1870
 2465TIP3   OH228885   5.641   1.499  15.084 -0.4247  0.8838 -0.0619
 2465TIP3    H128886   5.691   1.465  15.158  1.0747  1.0507 -0.9829
 2465TIP3    H228887   5.604   1.422  15.042 -1.2643  0.7856  0.8310
 2466TIP3   OH228888   0.880   3.968   1.580 -0.2529  0.3945 -0.2574
 2466TIP3    H128889   0.874   4.057   1.615  0.1835  0.8821 -1.3947
 2466TIP3    H228890   0.966   3.965   1.537 -0.6236 -0.3071 -0.9503
 2467TIP3   OH228891   4.535   1.581  16.310  0.3253  0.0705 -0.5005
 2467TIP3    H128892   4.549   1.523  16.385  2.2178  1.5592  0.3454
 2467TIP3    H228893   4.583   1.538  16.239 -0.4364 -0.7126 -0.5484
 2468TIP3   OH228894   3.477   5.380  15.300 -0.0951  0.2768  0.4878
 2468TIP3    H128895   3.491   5.409  15.390  0.9626  0.0166  0.4041
 2468TIP3    H228896   3.521   5.295  15.295 -0.4106  0.1480 -0.1971
 2469TIP3   OH228897   4.211   6.751   4.578  0.5059  0.2489  0.1076
 2469TIP3    H128898   4.163   6.730   4.658  0.0685  0.4502 -0.1023
 2469TIP3    H228899   4.263   6.672   4.560 -1.3723 -0.8135 -0.8504
 2470TIP3   OH228900   2.096   3.003   1.744  0.2366 -0.0366 -0.0713
 2470TIP3    H128901   2.082   3.094   1.717 -0.2973 -0.1440 -0.1649
 2470TIP3    H228902   2.115   2.957   1.662 -0.3784 -0.1767 -0.1314
 2471TIP3   OH228903   1.592   6.274  15.672 -0.3030  0.1972 -0.2967
 2471TIP3    H128904   1.597   6.185  15.637 -0.0612  0.4149 -0.8180
 2471TIP3    H228905   1.515   6.273  15.729  1.0439 -0.9929  1.5589
 2472TIP3   OH228906   2.242   5.617   1.987  0.5329 -0.5578  0.1132
 2472TIP3    H128907   2.270   5.689   2.044  0.8967 -0.5194 -0.1117
 2472TIP3    H228908   2.189   5.561   2.044 -1.4156  0.9235 -0.2107
 2473TIP3   OH228909   3.376   1.140  13.752  0.0400 -0.1432 -0.0481
 2473TIP3    H128910   3.462   1.111  13.722 -0.0148  0.3058 -0.6647
 2473TIP3    H228911   3.393   1.222  13.799 -0.2554  1.0197 -1.8999
 2474TIP3   OH228912   1.241   5.427  14.663  0.5307  0.0833 -0.0952
 2474TIP3    H128913   1.299   5.400  14.592  0.0977  1.1407 -0.8758
 2474TIP3    H228914   1.300   5.443  14.737  1.0221 -0.7003 -0.3088
 2475TIP3   OH228915   1.867   1.008   3.245 -0.0251  0.2145 -0.5274
 2475TIP3    H128916   1.943   1.016   3.302  1.0457  1.4954 -2.1273
 2475TIP3    H228917   1.793   0.996   3.306  1.3524 -0.4713  1.0429
 2476TIP3   OH228918   3.773   6.516   4.704  0.4585 -0.1270 -0.0146
 2476TIP3    H128919   3.731   6.436   4.736 -0.0816  0.9405  1.9734
 2476TIP3    H228920   3.867   6.500   4.716  0.3531 -0.4525  0.3954
 2477TIP3   OH228921   5.867   4.456  16.967 -0.7692 -0.3634  0.1007
 2477TIP3    H128922   5.943   4.401  16.950 -0.6356 -0.5162  1.1777
 2477TIP3    H228923   5.819   4.411  17.037  0.3501  1.8390  2.3361
 2478TIP3   OH228924   1.940   0.326   4.891 -0.2663 -1.0704  0.1870
 2478TIP3    H128925   1.880   0.292   4.824  0.5335 -0.4771 -0.8505
 2478TIP3    H228926   2.011   0.262   4.893  0.1646 -0.6009 -0.1932
 2479TIP3   OH228927   0.785   0.065   1.304  0.3159 -0.3172  0.2423
 2479TIP3    H128928   0.834   0.134   1.260  0.6579 -0.2000  0.8023
 2479TIP3    H228929   0.697   0.070   1.266  0.1695  0.8314  0.7161
 2480TIP3   OH228930   0.655   3.032   5.150  0.0128  0.2844  0.1403
 2480TIP3    H128931   0.564   3.012   5.129  0.6029 -0.6049 -1.6715
 2480TIP3    H228932   0.686   2.956   5.198 -0.1744  0.5627  0.7074
 2481TIP3   OH228933   2.042   1.579  12.343 -0.5925 -0.2802 -0.1087
 2481TIP3    H128934   1.970   1.516  12.345 -0.2596 -0.6952 -0.7978
 2481TIP3    H228935   2.115   1.533  12.384 -0.9604  0.4627  1.4114
 2482TIP3   OH228936   3.249   1.547   1.243 -0.0879  0.2596  0.7986
 2482TIP3    H128937   3.340   1.536   1.215  0.2942  1.6978  1.4255
 2482TIP3    H228938   3.251   1.623   1.302 -1.7949  0.7136  0.3018
 2483TIP3   OH228939   0.058   3.890   5.456 -0.1688 -0.0266  0.2052
 2483TIP3    H128940   0.100   3.870   5.540 -1.2558  0.2360  0.8245
 2483TIP3    H228941   0.041   3.804   5.417  1.1966 -0.1295 -0.1947
 2484TIP3   OH228942   3.629   6.496   2.578  0.0867 -0.0634  0.3724
 2484TIP3    H128943   3.566   6.472   2.647  1.1608  0.6514  1.6353
 2484TIP3    H228944   3.585   6.565   2.529 -1.0726 -1.2350 -0.2538
 2485TIP3   OH228945   2.599   4.208  13.257  0.0028 -0.2906  0.3785
 2485TIP3    H128946   2.590   4.237  13.166 -0.9276  0.0023  0.5572
 2485TIP3    H228947   2.644   4.281  13.300 -1.0273  0.2849  0.5055
 2486TIP3   OH228948   5.980   1.621  15.298 -0.1281  0.2654  0.0681
 2486TIP3    H128949   5.983   1.646  15.390 -0.1284  0.3957  0.0333
 2486TIP3    H228950   5.910   1.557  15.292  1.3951 -1.5062  0.5826
 2487TIP3   OH228951   4.132   3.091   4.425 -0.1148 -0.1146 -0.1147
 2487TIP3    H128952   4.092   3.150   4.361 -1.7465  0.1653  1.1295
 2487TIP3    H228953   4.063   3.029   4.448  0.9488 -1.2246  0.1768
 2488TIP3   OH228954   3.381   0.783  13.635 -0.1910 -0.2332  0.0076
 2488TIP3    H128955   3.437   0.737  13.697 -0.1234  0.0858  0.1837
 2488TIP3    H228956   3.392   0.735  13.553 -1.0574 -1.2734  0.4766
 2489TIP3   OH228957   4.472   0.627   5.115  0.4064  0.1386  0.1753
 2489TIP3    H128958   4.482   0.645   5.022 -0.8730 -0.1348 -0.0300
 2489TIP3    H228959   4.481   0.531   5.123  0.7554  0.1849  0.3702
 2490TIP3   OH228960   4.487   0.370  14.446  0.1019  0.3938 -0.2874
 2490TIP3    H128961   4.504   0.298  14.507  0.2377  0.0690 -0.7053
 2490TIP3    H228962   4.502   0.332  14.359 -2.0175  0.2989 -0.6374
 2491TIP3   OH228963   5.855   4.329  12.127 -0.1373 -0.2042  0.1659
 2491TIP3    H128964   5.849   4.245  12.081  0.1821  0.3409 -0.8926
 2491TIP3    H228965   5.791   4.385  12.083 -0.0574  0.2266  0.5986
 2492TIP3   OH228966   5.111   0.628  13.044 -0.3032 -0.2050 -0.5868
 2492TIP3    H128967   5.189   0.575  13.065  1.5828  2.1617 -1.3823
 2492TIP3    H228968   5.103   0.688  13.117  0.3578  1.4354 -1.8122
 2493TIP3   OH228969   0.029   0.970   1.496 -0.4082  0.4872 -0.5726
 2493TIP3    H128970   0.025   1.002   1.587 -0.7647  2.7368 -1.3475
 2493TIP3    H228971  -0.021   0.888   1.498 -0.0122  0.2584  1.3679
 2494TIP3   OH228972   5.069   2.685   5.378 -0.5354 -0.6220 -0.5067
 2494TIP3    H128973   5.146   2.713   5.329 -0.2067  0.0392  0.3914
 2494TIP3    H228974   5.013   2.762   5.383 -1.1508 -1.0300 -0.9306
 2495TIP3   OH228975   1.461   5.187  14.517 -0.0272  0.6292  0.2506
 2495TIP3    H128976   1.405   5.155  14.588  0.3582 -1.6334 -0.4428
 2495TIP3    H228977   1.400   5.207  14.446 -0.1397  0.1895  0.2268
 2496TIP3   OH228978   3.659   2.637  12.968  0.1991 -0.1439  0.0569
 2496TIP3    H128979   3.577   2.686  12.968  0.1893 -0.1599  0.5782
 2496TIP3    H228980   3.655   2.582  13.047  0.1181 -1.1359 -0.6290
 2497TIP3   OH228981   0.448   6.768  11.323  0.0468  0.4967 -0.5251
 2497TIP3    H128982   0.435   6.674  11.318  0.1558  0.4538 -0.0380
 2497TIP3    H228983   0.501   6.789  11.246 -2.0064  0.5300 -1.9724
 2498TIP3   OH228984   0.409   1.921   5.831  0.1950  0.4771 -0.5404
 2498TIP3    H128985   0.350   1.863   5.878 -0.4053  2.0440  0.6916
 2498TIP3    H228986   0.352   1.985   5.788  0.9596  1.8478  0.4507
 2499TIP3   OH228987   4.319   3.658   2.507 -0.0991 -0.1839 -0.2131
 2499TIP3    H128988   4.246   3.626   2.560  0.1994 -1.0613 -0.3360
 2499TIP3    H228989   4.319   3.602   2.429  0.5985 -0.0700 -0.2984
 2500TIP3   OH228990   1.346   1.114  14.950 -0.2717 -0.0866 -0.1724
 2500TIP3    H128991   1.258   1.080  14.969 -0.7072  0.9745 -0.2834
 2500TIP3    H228992   1.337   1.159  14.866  0.1647  0.8258  0.2679
 2501TIP3   OH228993   3.718   0.286   3.544  0.1664 -0.6110 -0.2243
 2501TIP3    H128994   3.761   0.372   3.550  3.3486 -1.8685 -3.1133
 2501TIP3    H228995   3.713   0.255   3.634 -0.4696  2.3183  0.8078
 2502TIP3   OH228996   5.999   6.613  13.955 -0.6466  0.1924  0.0795
 2502TIP3    H128997   6.055   6.687  13.934 -1.5130  0.6395 -0.6989
 2502TIP3    H228998   6.054   6.536  13.941  0.0457  0.6641  0.2282
 2503TIP3   OH228999   6.816   5.584   1.444 -0.0556 -0.3749  0.0221
 2503TIP3    H129000   6.813   5.679   1.453  0.5612 -0.3316 -0.1881
 2503TIP3    H229001   6.738   5.562   1.394  0.1824  0.1006 -0.5686
 2504TIP3   OH229002   3.641   5.635  13.033  0.6623  0.2221 -0.0318
 2504TIP3    H129003   3.596   5.564  13.079  1.0342 -0.9625 -1.4532
 2504TIP3    H229004   3.623   5.713  13.085  1.0633 -1.0869  2.0913
 2505TIP3   OH229005   4.249   4.969   4.632 -0.4592  0.3838 -0.0064
 2505TIP3    H129006   4.244   4.900   4.697  0.5300 -0.0965 -0.4250
 2505TIP3    H229007   4.342   4.972   4.607 -0.7730  0.7733 -1.1600
 2506TIP3   OH229008   3.745   5.756  16.915 -0.2403 -0.3633 -0.0616
 2506TIP3    H129009   3.738   5.813  16.991 -2.3212 -1.7385  0.8275
 2506TIP3    H229010   3.663   5.768  16.867  1.6211  1.5346 -2.8961
 2507TIP3   OH229011   5.008   5.988  13.889  0.3272  0.7606  0.7935
 2507TIP3    H129012   5.042   6.041  13.961 -1.2246  0.8036  1.5065
 2507TIP3    H229013   5.080   5.985  13.826  1.0402  2.2632  1.5139
 2508TIP3   OH229014   3.268   1.792   6.510  0.4424 -0.0650 -0.9843
 2508TIP3    H129015   3.287   1.877   6.549  0.4077 -0.6726  0.3950
 2508TIP3    H229016   3.173   1.794   6.494  0.3311 -0.1108 -0.3169
 2509TIP3   OH229017   2.645   3.067   2.257  0.1302  0.3129 -0.0839
 2509TIP3    H129018   2.676   3.152   2.225  0.1747  1.1875  2.1838
 2509TIP3    H229019   2.696   3.051   2.336 -0.0951 -1.7161 -0.3030
 2510TIP3   OH229020   0.160   3.703  14.071  0.3833 -0.1336 -0.0945
 2510TIP3    H129021   0.207   3.757  14.135  0.8592 -0.8553  0.1799
 2510TIP3    H229022   0.081   3.675  14.117  1.5083 -1.9957  0.7837
 2511TIP3   OH229023   0.033   3.329  12.822  0.0266  0.0421 -0.1980
 2511TIP3    H129024  -0.048   3.295  12.784  0.2544 -0.7802  0.0469
 2511TIP3    H229025   0.054   3.268  12.893  0.4794  0.6503  0.1973
 2512TIP3   OH229026   5.808   5.908   4.817  0.1848 -0.0241 -0.2606
 2512TIP3    H129027   5.835   5.985   4.768 -0.0704  0.2458  0.0226
 2512TIP3    H229028   5.891   5.866   4.843  0.3222  0.1921 -0.3482
 2513TIP3   OH229029   2.270   2.383  16.883 -0.5585  0.3023 -0.1244
 2513TIP3    H129030   2.175   2.373  16.882 -0.4754 -0.8189  1.1475
 2513TIP3    H229031   2.303   2.300  16.850 -0.0323  1.2970 -2.1438
 2514TIP3   OH229032   6.368   3.235  16.793 -0.0604  0.5068  0.3483
 2514TIP3    H129033   6.382   3.145  16.822 -0.9044 -0.3028 -1.6419
 2514TIP3    H229034   6.445   3.283  16.823 -0.5474 -0.4194  3.1987
 2515TIP3   OH229035   5.728   1.627   0.534 -0.1052 -0.4242 -0.0496
 2515TIP3    H129036   5.667   1.700   0.543  0.8572  0.5009 -0.8869
 2515TIP3    H229037   5.680   1.551   0.568 -0.9007  0.6983  1.3632
 2516TIP3   OH229038   4.114   6.554   2.593 -0.6717 -0.2363  0.4643
 2516TIP3    H129039   4.069   6.520   2.671  1.7298 -0.3934  1.8333
 2516TIP3    H229040   4.206   6.537   2.609 -0.1102 -0.1912 -2.4173
 2517TIP3   OH229041   0.013   3.629   2.398 -0.9222 -0.0579 -0.1456
 2517TIP3    H129042   0.077   3.620   2.327  0.0186  0.3951  0.6271
 2517TIP3    H229043  -0.072   3.629   2.354 -0.4356 -1.3968 -1.1242
 2518TIP3   OH229044   1.004   6.341  15.297  0.0644 -0.7519  0.0085
 2518TIP3    H129045   0.959   6.257  15.294  1.1780 -1.3208 -1.2980
 2518TIP3    H229046   0.941   6.401  15.338 -0.5755 -2.3003  1.3490
 2519TIP3   OH229047   4.590   2.566   1.533  0.0379  0.1837 -0.1474
 2519TIP3    H129048   4.674   2.526   1.554  0.1038 -0.6585 -1.9431
 2519TIP3    H229049   4.545   2.574   1.618  1.5742 -0.1136  0.7156
 2520TIP3   OH229050   2.423   5.192  14.214 -0.2596 -0.0214 -0.0077
 2520TIP3    H129051   2.475   5.256  14.262 -0.0500 -0.5550  0.4905
 2520TIP3    H229052   2.423   5.223  14.124 -0.0245  0.5899  0.2039
 2521TIP3   OH229053   1.742   2.234  15.747  0.0266  0.4626 -0.2968
 2521TIP3    H129054   1.712   2.227  15.837  0.3980 -0.1641 -0.2224
 2521TIP3    H229055   1.837   2.224  15.752 -0.0747 -0.9365 -0.9005
 2522TIP3   OH229056   4.049   6.233   4.254  0.2720 -0.6636  0.5720
 2522TIP3    H129057   4.072   6.171   4.323  2.2439 -0.5507  0.0403
 2522TIP3    H229058   4.076   6.191   4.173 -1.6524 -0.6120 -0.1254
 2523TIP3   OH229059   3.045   5.124  13.628 -0.0543  0.4001 -0.2376
 2523TIP3    H129060   3.001   5.208  13.639 -0.3617  0.2532 -0.3597
 2523TIP3    H229061   2.975   5.059  13.631  0.0013  0.2583 -1.7614
 2524TIP3   OH229062   3.570   3.026   2.950  0.4642 -0.1703  0.6922
 2524TIP3    H129063   3.654   3.050   2.990  0.3142 -0.0797  0.9548
 2524TIP3    H229064   3.574   3.062   2.862  1.3229 -1.4477  0.1833
 2525TIP3   OH229065   4.813   2.683   2.675  0.4169 -0.4529 -0.3497
 2525TIP3    H129066   4.847   2.626   2.744  0.5058 -1.0954 -0.9068
 2525TIP3    H229067   4.858   2.766   2.687  0.6710 -0.6666  0.1681
 2526TIP3   OH229068   2.374   6.082   0.252  0.4685 -0.0203 -0.1624
 2526TIP3    H129069   2.428   6.104   0.176 -0.1730 -0.2791 -0.6977
 2526TIP3    H229070   2.411   6.133   0.324  0.9203  0.4157 -0.7056
 2527TIP3   OH229071   3.349   3.243   2.542 -0.0605 -0.2519 -0.2357
 2527TIP3    H129072   3.365   3.208   2.454 -0.5314  0.4373 -0.6030
 2527TIP3    H229073   3.262   3.211   2.565  0.5879 -1.5027  0.5181
 2528TIP3   OH229074   5.575   6.487   2.140 -0.2057  0.3546 -0.4717
 2528TIP3    H129075   5.562   6.430   2.216 -0.4868 -1.5817 -1.9135
 2528TIP3    H229076   5.510   6.556   2.150  0.2222  0.5074  1.3971
 2529TIP3   OH229077   1.661   2.167  16.454 -0.2803 -0.1706 -0.6411
 2529TIP3    H129078   1.619   2.218  16.385  0.7450  0.6742 -0.6520
 2529TIP3    H229079   1.729   2.116  16.408 -0.6027 -0.7506 -0.4774
 2530TIP3   OH229080   0.993   1.678  15.832 -0.5446  0.4886  0.5061
 2530TIP3    H129081   0.982   1.645  15.743  0.1585  0.2928  0.4911
 2530TIP3    H229082   1.011   1.771  15.821 -0.4903  0.4710  0.4466
 2531TIP3   OH229083   5.457   4.220   1.615  0.0018 -0.1215  1.3824
 2531TIP3    H129084   5.529   4.188   1.668  1.5129  0.9680  0.0451
 2531TIP3    H229085   5.424   4.143   1.569  2.2327 -0.1918 -0.2082
 2532TIP3   OH229086   6.508   4.920   3.705  0.7319  0.5525  0.7836
 2532TIP3    H129087   6.564   4.845   3.685 -1.4795 -0.3579 -2.3046
 2532TIP3    H229088   6.538   4.989   3.646  1.1495  1.3235  1.8845
 2533TIP3   OH229089   2.203   4.791  11.211  0.4478 -0.6680 -0.1741
 2533TIP3    H129090   2.223   4.827  11.298  1.0449 -2.5742  0.5121
 2533TIP3    H229091   2.110   4.810  11.198  0.9859  2.1403 -0.3743
 2534TIP3   OH229092   2.864   5.365   1.535  0.5463  0.4797  0.7607
 2534TIP3    H129093   2.895   5.277   1.557  0.0710  0.2027  0.3377
 2534TIP3    H229094   2.943   5.418   1.533  1.2065 -0.5220 -1.7834
 2535TIP3   OH229095   2.732   2.455  13.312  0.3117 -0.0687  0.0622
 2535TIP3    H129096   2.767   2.535  13.350 -1.3104 -0.1561  1.8147
 2535TIP3    H229097   2.786   2.385  13.348  0.1633  0.0397  0.5019
 2536TIP3   OH229098   3.578   4.904  15.971  0.1595  0.5204 -0.0490
 2536TIP3    H129099   3.543   4.840  15.909 -0.6937  0.1705  0.7834
 2536TIP3    H229100   3.652   4.858  16.013  0.6689  0.7197 -0.7233
 2537TIP3   OH229101   1.800   4.689   6.038  0.2559 -0.6969  0.4717
 2537TIP3    H129102   1.851   4.702   6.117  1.3031 -1.7903 -0.0149
 2537TIP3    H229103   1.861   4.705   5.966 -0.7918  0.7043 -0.1405
 2538TIP3   OH229104   4.145   5.455   2.046 -0.5744 -0.6776  0.7654
 2538TIP3    H129105   4.101   5.509   2.111 -0.0288 -1.1466  1.5385
 2538TIP3    H229106   4.083   5.449   1.973 -1.5838 -0.9143  1.6233
 2539TIP3   OH229107   6.342   6.227  14.457  0.4049 -0.1307 -0.1093
 2539TIP3    H129108   6.362   6.300  14.515 -0.7962 -0.0749  0.2487
 2539TIP3    H229109   6.297   6.163  14.513 -2.5524  0.7690 -1.3618
 2540TIP3   OH229110   0.203   0.787  11.868  0.1837 -0.1954  0.0901
 2540TIP3    H129111   0.224   0.828  11.784  0.4612 -2.1924 -0.8412
 2540TIP3    H229112   0.109   0.772  11.865 -0.0741  1.2013  0.8254
 2541TIP3   OH229113   0.732   6.414  10.721  0.0889 -0.6079  0.0777
 2541TIP3    H129114   0.741   6.347  10.654 -0.2303  1.0357 -1.6361
 2541TIP3    H229115   0.735   6.497  10.674  0.6094  0.6108  2.1713
 2542TIP3   OH229116   4.915   6.120   1.075 -0.1635 -0.3721  0.3040
 2542TIP3    H129117   4.831   6.106   1.119 -0.6918  0.5115 -0.4000
 2542TIP3    H229118   4.978   6.073   1.128 -1.4520 -3.0630 -0.4459
 2543TIP3   OH229119   2.957   4.969   1.899  0.1588  0.5167 -0.8432
 2543TIP3    H129120   3.016   5.030   1.943 -1.5878  2.8424 -1.5521
 2543TIP3    H229121   2.943   4.898   1.962  2.0430  0.9735  0.1182
 2544TIP3   OH229122   6.018   1.549   0.463  0.2191  0.1118 -0.3201
 2544TIP3    H129123   6.041   1.491   0.535 -1.8458 -0.6954 -0.2626
 2544TIP3    H229124   5.926   1.571   0.478  0.8860  3.1800 -0.5208
 2545TIP3   OH229125   3.522   6.497   3.363  0.7878  1.1884 -0.0707
 2545TIP3    H129126   3.597   6.442   3.342 -0.2469  0.1621 -1.1401
 2545TIP3    H229127   3.556   6.587   3.358  2.1137  0.7125  0.2131
 2546TIP3   OH229128   4.182   1.090  15.958  0.2786 -0.2216  0.5679
 2546TIP3    H129129   4.097   1.065  15.995  0.2011  1.0724  1.3093
 2546TIP3    H229130   4.201   1.175  15.998  1.0416  0.3796 -1.0258
 2547TIP3   OH229131   3.024   1.065   0.726 -0.2280  0.5291  0.3530
 2547TIP3    H129132   3.058   1.110   0.804  0.5067  0.8855 -0.1608
 2547TIP3    H229133   2.950   1.119   0.698 -0.4921  0.4013  0.8065
 2548TIP3   OH229134   3.217   2.211   4.901  0.1899 -0.1245 -0.0419
 2548TIP3    H129135   3.128   2.219   4.867  0.8710  2.2562 -1.3119
 2548TIP3    H229136   3.214   2.131   4.954 -2.2456 -1.0128 -1.4206
 2549TIP3   OH229137   1.432   6.700   3.029  0.0598  0.2666 -0.6958
 2549TIP3    H129138   1.424   6.739   2.941 -0.7541  2.1520  0.1821
 2549TIP3    H229139   1.342   6.699   3.062  0.0693 -2.4063 -0.6768
 2550TIP3   OH229140   3.586   0.619   1.878  0.4515 -0.2796  0.1730
 2550TIP3    H129141   3.599   0.556   1.948  2.5427 -0.3939 -0.2755
 2550TIP3    H229142   3.643   0.692   1.901 -0.8890  0.8468 -0.0367
 2551TIP3   OH229143   3.902   3.965  14.561 -0.0407  0.3354 -0.5117
 2551TIP3    H129144   3.903   4.060  14.548  2.4655  0.3722 -0.1979
 2551TIP3    H229145   3.846   3.932  14.490  2.2799  1.7349 -3.0843
 2552TIP3   OH229146   6.771   0.777  14.261 -0.0476  0.2749  0.3519
 2552TIP3    H129147   6.788   0.846  14.325  1.4850 -0.4670  0.7787
 2552TIP3    H229148   6.676   0.772  14.255 -0.1871  1.1106  1.7473
 2553TIP3   OH229149   6.332   3.641   0.035  0.0451 -0.1335 -0.3262
 2553TIP3    H129150   6.410   3.662  -0.017 -0.1381  0.8238 -0.2160
 2553TIP3    H229151   6.325   3.712   0.098 -0.3023 -0.7811  0.3801
 2554TIP3   OH229152   3.491   5.113  10.914  0.1781 -0.5873 -0.2207
 2554TIP3    H129153   3.466   5.057  10.840 -0.8003  0.0991 -0.4131
 2554TIP3    H229154   3.415   5.113  10.972 -0.0994  1.0789 -0.5558
 2555TIP3   OH229155   1.955   1.121   1.781 -0.1722 -0.3672  0.6261
 2555TIP3    H129156   1.944   1.026   1.781 -0.0513 -0.3819  0.2829
 2555TIP3    H229157   2.046   1.135   1.753 -0.1576 -0.1553  0.7751
 2556TIP3   OH229158   4.743   5.371  14.515 -0.4606 -0.1772 -0.1623
 2556TIP3    H129159   4.800   5.311  14.564  1.3127  0.8441 -0.9064
 2556TIP3    H229160   4.792   5.389  14.435 -0.5515  2.9557  0.4418
 2557TIP3   OH229161   0.955   2.573  12.767  0.2738  0.7764  0.2035
 2557TIP3    H129162   0.995   2.601  12.685  2.5224 -2.1623  0.2214
 2557TIP3    H229163   0.890   2.507  12.742  0.1238  0.7237  0.7073
 2558TIP3   OH229164   3.980   4.992  10.294  0.3866  0.3303  0.0588
 2558TIP3    H129165   3.997   4.931  10.221  0.6820  1.4350 -0.8190
 2558TIP3    H229166   3.920   4.945  10.351 -0.6089 -0.2192 -1.3885
 2559TIP3   OH229167   1.832   2.958  16.885  0.0771  0.1972  0.0206
 2559TIP3    H129168   1.783   2.932  16.807 -3.0037  1.9704  1.2938
 2559TIP3    H229169   1.809   2.892  16.951 -1.5838  1.6655  0.9565
 2560TIP3   OH229170   6.445   3.677  13.515 -0.0653  0.0315 -0.2327
 2560TIP3    H129171   6.500   3.648  13.442  1.1175 -0.7282  0.9554
 2560TIP3    H229172   6.356   3.676  13.479  0.4505 -0.7550 -1.5416
 2561TIP3   OH229173   6.245   2.598  16.163  0.1478 -0.2890  0.0408
 2561TIP3    H129174   6.228   2.688  16.192  1.1071 -0.5860  1.5728
 2561TIP3    H229175   6.161   2.553  16.174 -0.2632  0.3320 -0.4701
 2562TIP3   OH229176   1.281   3.773  14.110  0.5559  0.8362  0.3206
 2562TIP3    H129177   1.358   3.718  14.095  0.2595  0.5250 -0.0640
 2562TIP3    H229178   1.295   3.849  14.053  0.1665  0.3697 -0.4154
 2563TIP3   OH229179   5.019   1.610   3.003  0.6859  0.3297  0.6392
 2563TIP3    H129180   5.050   1.545   2.939 -0.8588  0.3287 -0.1226
 2563TIP3    H229181   4.927   1.622   2.981  0.5313  1.4578  1.9276
 2564TIP3   OH229182   3.999   6.087   1.293 -0.1523 -0.0234 -0.3129
 2564TIP3    H129183   4.043   6.153   1.348 -0.3986  0.6811 -0.9521
 2564TIP3    H229184   4.036   6.004   1.321 -0.2374  0.3323  0.8979
 2565TIP3   OH229185   4.850   5.457  16.437 -0.7742 -0.6120  0.2339
 2565TIP3    H129186   4.774   5.509  16.410  1.2724  1.0591 -2.5065
 2565TIP3    H229187   4.908   5.519  16.481  0.4718 -1.1460 -0.6154
 2566TIP3   OH229188   4.632   1.273  16.774 -0.9163  0.0454 -0.1424
 2566TIP3    H129189   4.587   1.245  16.694  1.7965  0.7099 -1.9417
 2566TIP3    H229190   4.626   1.369  16.772 -0.4114  0.0858  0.1851
 2567TIP3   OH229191   5.260   4.091   5.300 -0.1568 -0.2946 -0.1290
 2567TIP3    H129192   5.317   4.158   5.263 -1.6356  0.3171 -1.3439
 2567TIP3    H229193   5.196   4.073   5.232 -2.3835  0.1822  1.7437
 2568TIP3   OH229194   3.292   1.044   3.121 -0.0179 -0.4590  0.3217
 2568TIP3    H129195   3.358   1.099   3.163  1.6577  0.3479 -3.1766
 2568TIP3    H229196   3.219   1.103   3.105 -0.0571 -0.3907  0.7500
 2569TIP3   OH229197   4.779   5.479  15.164  0.3582  0.4276  0.2954
 2569TIP3    H129198   4.823   5.438  15.089  0.0561  1.4416 -0.4497
 2569TIP3    H229199   4.846   5.479  15.233  0.2569 -1.5878  0.4150
 2570TIP3   OH229200   1.893   2.898   3.174  0.3752 -0.3357  0.3980
 2570TIP3    H129201   1.954   2.831   3.203  1.8102  1.5962  1.9964
 2570TIP3    H229202   1.948   2.967   3.137 -0.9801  0.6118  0.0846
 2571TIP3   OH229203   0.744   6.642   3.335  0.7110 -0.4725  0.2743
 2571TIP3    H129204   0.771   6.565   3.386  0.4834 -1.1697 -0.6516
 2571TIP3    H229205   0.723   6.607   3.248 -2.0339  0.2238  0.6144
 2572TIP3   OH229206   3.358   2.537  14.898  0.2367 -0.0070 -0.4738
 2572TIP3    H129207   3.434   2.503  14.851 -0.4924 -0.6330 -1.2299
 2572TIP3    H229208   3.285   2.481  14.868 -0.2075 -0.5252  1.5154
 2573TIP3   OH229209   4.417   6.713  16.772  0.2880 -0.1698 -0.1424
 2573TIP3    H129210   4.433   6.796  16.818  0.5264 -0.0884 -0.3689
 2573TIP3    H229211   4.344   6.673  16.820  0.5520 -0.0972  0.3322
 2574TIP3   OH229212   1.567   4.945  12.663 -0.0956 -0.1821  0.5375
 2574TIP3    H129213   1.498   4.911  12.721 -0.4644 -0.0559  0.1767
 2574TIP3    H229214   1.519   4.986  12.591  0.3768 -1.0784 -0.2892
 2575TIP3   OH229215   4.116   6.746   0.494  0.2831  0.3451  0.6787
 2575TIP3    H129216   4.207   6.771   0.507  0.1763 -0.2610  2.8651
 2575TIP3    H229217   4.076   6.756   0.580 -1.7344  0.6285 -0.2651
 2576TIP3   OH229218   5.415   5.007  11.017  0.0100 -0.0463 -0.1808
 2576TIP3    H129219   5.393   5.060  10.941 -3.0397 -0.5337  0.2883
 2576TIP3    H229220   5.351   5.033  11.084  2.3429  0.0732  2.1118
 2577TIP3   OH229221   0.304   5.974   4.898  1.0127 -0.2568 -0.4114
 2577TIP3    H129222   0.360   5.904   4.931  0.0311 -0.6805  0.3860
 2577TIP3    H229223   0.301   6.037   4.970 -0.1727 -0.6116 -0.1463
 2578TIP3   OH229224   6.401   4.866  15.145  0.6545  0.0802  0.4088
 2578TIP3    H129225   6.482   4.833  15.184 -1.0712 -1.8974  2.4957
 2578TIP3    H229226   6.393   4.818  15.063  0.2414 -1.7607  1.5008
 2579TIP3   OH229227   3.759   5.263   4.503  0.4466  0.0648  0.0672
 2579TIP3    H129228   3.751   5.321   4.579 -0.6409 -0.6430  0.5111
 2579TIP3    H229229   3.698   5.299   4.439  0.5064 -0.0091 -0.0307
 2580TIP3   OH229230   1.691   5.311   0.599 -0.3609  0.5015 -0.2642
 2580TIP3    H129231   1.604   5.342   0.574 -0.1326  2.2742  1.0169
 2580TIP3    H229232   1.676   5.229   0.644 -1.3642  0.7424 -0.1492
 2581TIP3   OH229233   6.453   1.798   2.924  0.0141  0.2433 -0.7222
 2581TIP3    H129234   6.482   1.723   2.873  0.1895  0.5939 -1.1382
 2581TIP3    H229235   6.379   1.834   2.875 -0.5118 -0.0661 -0.1687
 2582TIP3   OH229236   6.783   5.616  11.551  0.3800 -0.2415  0.5743
 2582TIP3    H129237   6.765   5.633  11.643  0.4229 -0.2987  0.5927
 2582TIP3    H229238   6.788   5.703  11.511  1.7015 -0.1777  0.8673
 2583TIP3   OH229239   6.324   4.209   5.344 -0.1978 -0.4390 -0.3813
 2583TIP3    H129240   6.349   4.253   5.262  0.1828 -2.0208 -1.1223
 2583TIP3    H229241   6.229   4.200   5.337 -0.4821  1.5830  0.4518
 2584TIP3   OH229242   0.669   3.865  12.177 -0.4266 -0.0938  0.0790
 2584TIP3    H129243   0.741   3.928  12.176 -1.8663  1.5896 -1.0854
 2584TIP3    H229244   0.631   3.871  12.089 -1.2011 -1.9106  0.2598
 2585TIP3   OH229245   3.500   1.986  11.704  0.1487 -0.3648  0.4725
 2585TIP3    H129246   3.461   2.071  11.725 -1.8607 -1.7253  2.5461
 2585TIP3    H229247   3.529   1.994  11.614 -2.2745  1.7338 -0.1834
 2586TIP3   OH229248   3.646   0.240  17.066 -0.2054  0.4864 -0.1307
 2586TIP3    H129249   3.556   0.215  17.045  0.1630 -1.3845  0.4019
 2586TIP3    H229250   3.645   0.336  17.069 -2.1604  0.4798 -0.1959
 2587TIP3   OH229251   3.100   0.538   3.636  0.1397  0.2598  0.5613
 2587TIP3    H129252   3.167   0.606   3.633  1.5415 -1.0430  1.9703
 2587TIP3    H229253   3.147   0.456   3.625 -1.1784 -0.6927  1.7532
 2588TIP3   OH229254   5.596   2.868   0.636  0.4024  0.8841 -0.0188
 2588TIP3    H129255   5.684   2.834   0.655  1.0740  1.5016 -1.9183
 2588TIP3    H229256   5.575   2.922   0.713  1.3831  0.1747  0.7758
 2589TIP3   OH229257   1.678   2.298   5.501  0.6896 -0.5204 -0.1127
 2589TIP3    H129258   1.616   2.337   5.563  1.9399  2.3288 -0.5669
 2589TIP3    H229259   1.633   2.303   5.416  0.8208 -0.0762 -0.1595
 2590TIP3   OH229260   6.144   2.889  12.450 -0.0882 -0.4111  0.0573
 2590TIP3    H129261   6.106   2.966  12.409  0.1417 -0.2933  0.0668
 2590TIP3    H229262   6.212   2.860  12.388  0.8897  0.3068  0.7867
 2591TIP3   OH229263   5.907   0.278   2.329 -0.1370 -0.2771 -0.5562
 2591TIP3    H129264   5.946   0.248   2.247 -1.4819 -0.3493 -1.1735
 2591TIP3    H229265   5.978   0.323   2.374  0.4501  0.3100 -2.0416
 2592TIP3   OH229266   2.114   0.577   0.588  0.1137 -0.2076  0.4861
 2592TIP3    H129267   2.159   0.560   0.670  2.0310 -1.1708 -0.7358
 2592TIP3    H229268   2.116   0.493   0.542  0.2965  0.6620 -1.1386
 2593TIP3   OH229269   2.087   4.382  14.515 -0.2748  0.0945 -0.2419
 2593TIP3    H129270   1.996   4.390  14.486 -0.3161  0.0814 -0.1138
 2593TIP3    H229271   2.139   4.404  14.437 -0.3866  0.1816 -0.2914
 2594TIP3   OH229272   1.386   0.039  15.958 -0.8958 -0.2690 -0.0742
 2594TIP3    H129273   1.406   0.120  16.004  0.3018 -0.9714  0.6583
 2594TIP3    H229274   1.467   0.017  15.911 -1.0158 -1.3657  0.2185
 2595TIP3   OH229275   6.675   3.704   4.862 -0.3062  0.1544 -0.8066
 2595TIP3    H129276   6.603   3.748   4.906  1.1085  0.2715  1.4812
 2595TIP3    H229277   6.672   3.614   4.895  3.9924  1.5129  3.8944
 2596TIP3   OH229278   4.266   2.971  15.887 -0.8667 -0.2890 -0.1409
 2596TIP3    H129279   4.325   2.903  15.855 -0.5913  0.0377 -0.3312
 2596TIP3    H229280   4.290   2.981  15.979 -0.3476  0.1253 -0.3167
 2597TIP3   OH229281   1.812   4.336  14.038  0.1842  0.2150  0.4688
 2597TIP3    H129282   1.908   4.338  14.035  0.2035  0.4459  1.0787
 2597TIP3    H229283   1.785   4.383  13.959  0.5676 -0.4860 -0.0819
 2598TIP3   OH229284   3.019   1.429  11.327  0.0655 -0.6611  0.4366
 2598TIP3    H129285   3.092   1.471  11.374  1.0628 -2.0491  0.1604
 2598TIP3    H229286   3.059   1.393  11.248 -1.5491  1.4207 -1.4066
 2599TIP3   OH229287   5.167   2.050  15.674 -0.3602  0.2345 -0.2064
 2599TIP3    H129288   5.198   2.114  15.610  0.4200 -0.1580 -0.2289
 2599TIP3    H229289   5.149   2.102  15.753 -2.3300  0.8838 -1.0317
 2600TIP3   OH229290   6.142   2.242  14.956  0.1516 -0.5254 -0.3823
 2600TIP3    H129291   6.145   2.149  14.981  1.4145  0.4129  3.3595
 2600TIP3    H229292   6.227   2.276  14.984  0.0619  1.5818 -2.5711
 2601TIP3   OH229293   5.056   5.289   3.079  0.5431  0.8802 -0.2336
 2601TIP3    H129294   5.145   5.283   3.044  0.5906  1.1869 -0.1622
 2601TIP3    H229295   5.030   5.380   3.064  0.4399  0.9286  0.2273
 2602TIP3   OH229296   4.709   6.311   5.009 -0.2318  0.3826 -0.1848
 2602TIP3    H129297   4.630   6.318   5.063 -1.5002 -2.4120 -1.5451
 2602TIP3    H229298   4.764   6.248   5.055  0.3987  0.9158 -0.1990
 2603TIP3   OH229299   4.909   2.906   5.357  0.1596  0.2527 -0.3166
 2603TIP3    H129300   4.934   2.997   5.372 -3.2185  1.0583  0.9998
 2603TIP3    H229301   4.937   2.888   5.267  1.9755  2.1595 -0.1871
 2604TIP3   OH229302   2.514   1.289  16.752  0.2470 -0.4586 -0.1443
 2604TIP3    H129303   2.551   1.208  16.787  0.3264 -0.4251 -0.1520
 2604TIP3    H229304   2.584   1.327  16.699  0.2835 -0.2754  0.0347
 2605TIP3   OH229305   5.444   3.492   5.973  0.2088  0.4041 -0.5600
 2605TIP3    H129306   5.464   3.411   6.019  3.1455  0.7426 -1.1511
 2605TIP3    H229307   5.434   3.466   5.882  1.6342  0.7576 -0.8246
 2606TIP3   OH229308   1.578   3.567   0.550 -0.1071  0.1926 -0.0739
 2606TIP3    H129309   1.640   3.497   0.572 -2.2632 -0.8399  3.0846
 2606TIP3    H229310   1.538   3.539   0.468  0.6748 -1.1449 -0.0193
 2607TIP3   OH229311   5.380   0.875  13.109  0.2864  0.0702  0.5103
 2607TIP3    H129312   5.301   0.928  13.123  0.2344  0.4177 -1.0417
 2607TIP3    H229313   5.411   0.900  13.022  1.7683 -0.5242  0.8586
 2608TIP3   OH229314   5.934   1.351  12.541  0.3883  0.3115 -0.1386
 2608TIP3    H129315   6.016   1.308  12.568 -0.3734  0.5121  2.6314
 2608TIP3    H229316   5.865   1.302  12.586 -0.7713  2.0789  0.0475
 2609TIP3   OH229317   1.026   1.525   4.841 -0.1523 -0.6088  0.2810
 2609TIP3    H129318   1.072   1.549   4.921 -0.0309 -1.0090  0.3308
 2609TIP3    H229319   1.095   1.506   4.778 -0.2495 -0.6244  0.1779
 2610TIP3   OH229320   4.547   2.561   0.500  0.1078 -0.3102 -0.0127
 2610TIP3    H129321   4.517   2.477   0.535  0.1974 -0.1076  0.5554
 2610TIP3    H229322   4.471   2.618   0.505  0.4515  0.0781  1.0263
 2611TIP3   OH229323   3.284   2.393   2.024  0.1430 -0.5717  0.2482
 2611TIP3    H129324   3.236   2.422   1.947 -2.5436 -0.0434  2.0431
 2611TIP3    H229325   3.266   2.300   2.030 -0.0508 -0.5191  0.4984
 2612TIP3   OH229326   0.462   4.205  10.468 -0.6377  0.0670 -0.1797
 2612TIP3    H129327   0.493   4.209  10.558 -0.0101  3.2201 -0.4844
 2612TIP3    H229328   0.369   4.183  10.475 -0.4152 -0.4736  1.1861
 2613TIP3   OH229329   4.030   6.771  17.124  0.2572 -0.6328  0.4645
 2613TIP3    H129330   4.051   6.844  17.182  0.3194 -0.2527 -0.0326
 2613TIP3    H229331   4.013   6.812  17.040 -0.8055 -1.0976  0.4555
 2614TIP3   OH229332   2.501   0.410   1.464  0.0464  0.2292  1.0102
 2614TIP3    H129333   2.500   0.315   1.454  0.1374  0.3796 -0.4672
 2614TIP3    H229334   2.580   0.439   1.419 -1.2820  1.2219 -0.7311
 2615TIP3   OH229335   2.400   4.227  15.656  0.3828 -0.0808  0.9198
 2615TIP3    H129336   2.366   4.313  15.629 -0.2149 -0.4755  0.4106
 2615TIP3    H229337   2.430   4.241  15.746  1.1079  0.8861  0.5355
 2616TIP3   OH229338   0.387   4.815  11.462  0.0599  0.0056  0.0404
 2616TIP3    H129339   0.391   4.874  11.537 -1.6933  1.2752 -0.8311
 2616TIP3    H229340   0.427   4.865  11.391  0.1324 -0.5116 -0.2780
 2617TIP3   OH229341   1.664   3.281  17.279  0.4423  0.6207 -0.2663
 2617TIP3    H129342   1.616   3.235  17.210  0.3836  0.4733 -0.1297
 2617TIP3    H229343   1.603   3.282  17.353  0.4820  0.8302 -0.2355
 2618TIP3   OH229344   1.177   5.966  11.723 -0.3980  0.2216 -0.0560
 2618TIP3    H129345   1.117   6.018  11.669  0.3935  0.1618 -1.0198
 2618TIP3    H229346   1.162   5.876  11.696 -0.2889  0.1513  0.1183
 2619TIP3   OH229347   0.342   1.846   4.095  0.6276  0.4645  0.3647
 2619TIP3    H129348   0.382   1.801   4.169 -1.6738  0.6310  1.7629
 2619TIP3    H229349   0.337   1.779   4.026 -1.0005 -0.9298  1.7789
 2620TIP3   OH229350   6.636   6.097   0.365  0.6176  0.0655  0.0338
 2620TIP3    H129351   6.556   6.144   0.387  0.9092  0.7056 -0.2423
 2620TIP3    H229352   6.670   6.066   0.448  1.9601  2.8561  0.5870
 2621TIP3   OH229353   6.461   5.495  14.100  0.4388  0.4833  0.6345
 2621TIP3    H129354   6.547   5.536  14.090 -0.3548  1.5977 -2.0121
 2621TIP3    H229355   6.398   5.566  14.088 -0.8909 -0.4535  1.8621
 2622TIP3   OH229356   6.332   5.887  13.240  0.3787 -0.0429 -0.9640
 2622TIP3    H129357   6.290   5.970  13.263  1.6782  0.3921 -0.1054
 2622TIP3    H229358   6.266   5.841  13.188 -1.2103  0.5730  0.4508
 2623TIP3   OH229359   2.455   1.544   0.912  0.0693 -0.4087  0.0505
 2623TIP3    H129360   2.525   1.540   0.846 -0.9510 -1.1643 -1.0144
 2623TIP3    H229361   2.468   1.466   0.965 -0.8902 -1.3798 -1.1190
 2624TIP3   OH229362   1.825   4.816   4.312  0.0678  0.4893  0.5052
 2624TIP3    H129363   1.908   4.854   4.283 -0.3139  1.0565  0.1289
 2624TIP3    H229364   1.849   4.753   4.379  0.7719  0.9637  0.7057
 2625TIP3   OH229365   2.893   4.657  15.884 -0.5438 -0.0907  0.2238
 2625TIP3    H129366   2.908   4.647  15.978 -3.6575  2.7194  1.0882
 2625TIP3    H229367   2.819   4.600  15.865  0.2669 -0.8874 -0.6157
 2626TIP3   OH229368   6.343   0.918  12.039 -0.2925 -0.0749 -0.7937
 2626TIP3    H129369   6.336   1.000  12.087 -1.9069 -0.2740 -0.6538
 2626TIP3    H229370   6.252   0.890  12.025  0.2270 -2.1866 -0.2172
 2627TIP3   OH229371   4.699   3.895  12.235  0.3904  0.1367 -0.5026
 2627TIP3    H129372   4.709   3.866  12.326 -2.1020  0.9395  0.0667
 2627TIP3    H229373   4.767   3.847  12.187  1.0421 -1.1099  1.5963
 2628TIP3   OH229374   0.237   1.575  13.075  1.2013 -0.5517  0.5130
 2628TIP3    H129375   0.161   1.632  13.088 -1.7440 -4.3383  0.9060
 2628TIP3    H229376   0.283   1.613  13.000 -1.4325  1.5059 -0.1313
 2629TIP3   OH229377   4.596   6.509  13.353 -0.1864  0.0081 -0.3647
 2629TIP3    H129378   4.506   6.476  13.365  0.9328 -2.7983  0.9046
 2629TIP3    H229379   4.612   6.504  13.259 -1.5667  1.1930 -0.6851
 2630TIP3   OH229380   3.576   2.113   4.281 -0.2169 -0.0575 -0.2738
 2630TIP3    H129381   3.651   2.061   4.312 -0.1912 -0.4993 -1.0738
 2630TIP3    H229382   3.500   2.070   4.321 -0.2381 -1.0204 -1.3413
 2631TIP3   OH229383   4.767   0.808   5.209  0.0510 -0.4669  0.5031
 2631TIP3    H129384   4.782   0.771   5.122  2.2201 -1.4227  1.2509
 2631TIP3    H229385   4.755   0.732   5.266  2.2399 -0.0179  1.6423
 2632TIP3   OH229386   3.576   3.666  11.242 -0.3257 -0.2130 -0.1259
 2632TIP3    H129387   3.485   3.648  11.266  0.0143 -2.5250 -0.5299
 2632TIP3    H229388   3.575   3.671  11.146 -0.1076  0.3372 -0.1058
 2633TIP3   OH229389   0.967   3.962   4.626  0.0965  0.1495  0.3593
 2633TIP3    H129390   0.873   3.947   4.627 -0.0412  0.9215  2.0606
 2633TIP3    H229391   0.998   3.918   4.547 -1.4947 -1.2956  0.5075
 2634TIP3   OH229392   4.223   4.871   3.871 -0.8025  0.4662 -0.0399
 2634TIP3    H129393   4.244   4.936   3.938 -2.1862 -1.8137  2.6989
 2634TIP3    H229394   4.301   4.815   3.866 -0.8345  0.4237 -0.0703
 2635TIP3   OH229395   2.642   4.253  12.644 -0.2561  0.2798  0.5660
 2635TIP3    H129396   2.666   4.280  12.555 -0.1964  0.0168  0.5027
 2635TIP3    H229397   2.712   4.289  12.698 -0.5788  0.9081  0.5722
 2636TIP3   OH229398   0.709   3.362  16.572  0.3895  0.2402  0.4365
 2636TIP3    H129399   0.747   3.430  16.627 -0.2978  0.5431  0.5541
 2636TIP3    H229400   0.626   3.400  16.542 -0.0873 -0.6164  0.6525
 2637TIP3   OH229401   1.261   6.412  17.022  0.1874 -0.1466 -0.1623
 2637TIP3    H129402   1.305   6.368  16.950 -1.0114 -0.7828 -0.5246
 2637TIP3    H229403   1.171   6.425  16.991 -0.6017 -1.2607  1.5628
 2638TIP3   OH229404   5.771   5.985  12.222  0.9414 -0.1929  0.5099
 2638TIP3    H129405   5.859   6.008  12.193  0.2564 -0.2482 -1.6615
 2638TIP3    H229406   5.755   6.043  12.296  2.8686 -0.3306  1.0784
 2639TIP3   OH229407   0.273   6.037  16.453 -0.1927 -0.0367 -0.4767
 2639TIP3    H129408   0.344   5.985  16.491  0.6553  0.0594 -1.8943
 2639TIP3    H229409   0.283   6.124  16.492  1.4680  0.4167 -1.8632
 2640TIP3   OH229410   3.891   3.217  10.986  0.1552 -0.1756 -0.0622
 2640TIP3    H129411   3.980   3.189  10.963  0.8277 -1.6118  3.8404
 2640TIP3    H229412   3.834   3.160  10.934  1.5120 -0.1031 -1.6743
 2641TIP3   OH229413   2.559   0.683  11.750 -0.3641 -0.2972  0.3301
 2641TIP3    H129414   2.542   0.613  11.687  2.7366  0.1189 -1.0343
 2641TIP3    H229415   2.616   0.642  11.816  0.6795  0.6581  0.0378
 2642TIP3   OH229416   1.372   0.886   5.877 -0.1586  0.2192  0.3414
 2642TIP3    H129417   1.290   0.853   5.841 -0.1600 -0.0807  0.6140
 2642TIP3    H229418   1.437   0.869   5.808 -0.3212  0.4381  0.1351
 2643TIP3   OH229419   5.128   3.644   5.891  0.3279 -0.3232 -0.0828
 2643TIP3    H129420   5.149   3.555   5.863  0.1788  0.2329 -1.9728
 2643TIP3    H229421   5.213   3.689   5.893  0.3916 -0.4665  0.7856
 2644TIP3   OH229422   3.727   1.810  17.101 -0.2967 -0.7835  0.1874
 2644TIP3    H129423   3.665   1.805  17.028  2.0884  0.5796 -2.0058
 2644TIP3    H229424   3.780   1.730  17.093  0.2261 -0.4391  0.1849
 2645TIP3   OH229425   3.608   1.440  17.093 -0.3974  0.3030  0.4096
 2645TIP3    H129426   3.638   1.357  17.131  0.6233 -0.2211 -1.4681
 2645TIP3    H229427   3.517   1.422  17.068 -1.4031  0.9545  3.3784
 2646TIP3   OH229428   4.581   2.060  15.669  0.5106 -0.3589 -0.3134
 2646TIP3    H129429   4.601   2.064  15.575  0.6131  1.6881 -0.2181
 2646TIP3    H229430   4.566   2.151  15.694  0.9369 -0.8449  1.7714
 2647TIP3   OH229431   6.636   4.882  10.905 -0.8368  0.4596  0.2001
 2647TIP3    H129432   6.682   4.952  10.858  1.5546 -1.5718 -0.6031
 2647TIP3    H229433   6.562   4.861  10.849  0.6253 -0.2616 -1.5376
 2648TIP3   OH229434   6.737   1.331   2.568  0.2356  0.4360  0.2082
 2648TIP3    H129435   6.663   1.384   2.536  0.4218  0.6354  0.1053
 2648TIP3    H229436   6.754   1.366   2.656  1.9858  2.2682 -0.8162
 2649TIP3   OH229437   0.072   4.660  13.293  0.1259  0.3026  0.0787
 2649TIP3    H129438   0.138   4.596  13.319 -0.5262  0.4049  2.1363
 2649TIP3    H229439  -0.012   4.616  13.310 -0.3235  1.4218  0.8379
 2650TIP3   OH229440   6.455   4.924   4.172 -0.0037 -0.0439 -0.2364
 2650TIP3    H129441   6.437   4.892   4.084 -1.2411 -0.3280  0.1193
 2650TIP3    H229442   6.380   4.979   4.194  0.2441 -0.0663  0.6884
 2651TIP3   OH229443   6.392   2.482  16.384 -0.5648  0.3618  0.2118
 2651TIP3    H129444   6.307   2.512  16.418 -0.1213  0.4240  1.2892
 2651TIP3    H229445   6.393   2.511  16.293 -0.9485  1.9209  0.6993
 2652TIP3   OH229446   4.597   4.154   0.040 -0.2210 -0.3078 -0.6182
 2652TIP3    H129447   4.531   4.100   0.084 -1.4624  0.1586 -1.8671
 2652TIP3    H229448   4.564   4.162  -0.050  1.2278  0.4509 -1.0853
 2653TIP3   OH229449   2.520   0.070   5.217 -0.4886 -0.2142 -0.5610
 2653TIP3    H129450   2.495   0.036   5.302 -0.2138  0.1773 -0.3212
 2653TIP3    H229451   2.573   0.148   5.237  0.2570 -0.5864 -1.0641
 2654TIP3   OH229452   6.805   4.123  16.788 -0.3582 -0.1685 -0.1443
 2654TIP3    H129453   6.823   4.073  16.709 -0.0640  1.1234 -0.9189
 2654TIP3    H229454   6.743   4.070  16.838 -0.7389 -0.8735 -1.3707
 2655TIP3   OH229455   6.013   3.766   0.451  0.0155  0.1215 -0.6456
 2655TIP3    H129456   5.973   3.811   0.377 -0.1427 -0.7484 -1.0963
 2655TIP3    H229457   6.032   3.678   0.418  1.3719  0.2144 -0.1268
 2656TIP3   OH229458   3.593   3.084  16.717  0.4123 -0.2304  0.2618
 2656TIP3    H129459   3.533   3.106  16.787 -2.4858 -2.9639 -1.2249
 2656TIP3    H229460   3.554   3.122  16.638  3.1985  2.1325 -0.0514
 2657TIP3   OH229461   4.045   5.293  14.723 -0.2848  0.2179  0.3003
 2657TIP3    H129462   4.014   5.205  14.742  0.3938 -0.1080 -0.0942
 2657TIP3    H229463   3.972   5.334  14.676 -0.3699 -0.3295 -0.0427
 2658TIP3   OH229464   3.398   0.163  14.049  0.3980 -0.4475 -0.0242
 2658TIP3    H129465   3.402   0.184  14.142 -0.8440 -0.3730  0.0135
 2658TIP3    H229466   3.418   0.070  14.044 -1.3193 -0.8502  0.4938
 2659TIP3   OH229467   1.109   6.581   3.518 -0.2263  0.1022 -0.6917
 2659TIP3    H129468   1.157   6.517   3.466  0.4483 -0.2922  0.3855
 2659TIP3    H229469   1.108   6.543   3.606 -1.5271  0.6548 -0.4610
 2660TIP3   OH229470   6.136   1.930   3.316  0.1157 -0.3464  0.6571
 2660TIP3    H129471   6.051   1.899   3.348 -0.3699  0.5721  0.2793
 2660TIP3    H229472   6.154   2.008   3.368 -0.6763  1.1622 -1.2764
 2661TIP3   OH229473   1.455   3.245  12.425  0.7897 -0.1548  0.1904
 2661TIP3    H129474   1.495   3.176  12.372 -0.9860 -0.2969 -1.0040
 2661TIP3    H229475   1.499   3.325  12.396 -0.2201 -0.2131 -1.6373
 2662TIP3   OH229476   1.449   4.006   2.848 -0.1589 -0.2252  0.0647
 2662TIP3    H129477   1.382   4.024   2.782  1.5895  3.9455 -0.6960
 2662TIP3    H229478   1.516   3.956   2.801 -1.4547 -2.1262  0.1740
 2663TIP3   OH229479   5.323   1.006  11.036  0.2456  0.1496 -0.0030
 2663TIP3    H129480   5.300   1.003  11.129  3.2357  0.2527  0.7978
 2663TIP3    H229481   5.324   0.915  11.008 -0.1656  0.0823  0.1989
 2664TIP3   OH229482   3.543   2.030  17.082 -0.1818 -0.1214 -0.5206
 2664TIP3    H129483   3.452   2.015  17.106 -0.1578 -2.7000 -1.8269
 2664TIP3    H229484   3.592   1.966  17.135  0.7641  0.4740 -0.6633
 2665TIP3   OH229485   0.025   6.290   3.110 -0.0689  0.3961 -0.7666
 2665TIP3    H129486   0.002   6.225   3.044  0.2996 -0.0427 -0.4672
 2665TIP3    H229487  -0.007   6.373   3.075  0.1311  0.1667 -1.4998
 2666TIP3   OH229488   1.945   0.721   0.831 -0.7316  0.3279  0.0639
 2666TIP3    H129489   1.945   0.816   0.826  1.6073  0.3601  0.2402
 2666TIP3    H229490   1.926   0.701   0.922  0.3127  0.6681  0.3604
 2667TIP3   OH229491   3.359   1.948  10.897 -0.2132 -0.3599  0.6069
 2667TIP3    H129492   3.294   1.878  10.893 -1.0993  0.5470 -1.7458
 2667TIP3    H229493   3.438   1.909  10.859 -0.5392 -0.2463 -0.1848
 2668TIP3   OH229494   3.441   3.076   3.843  0.0881 -0.1846  0.1688
 2668TIP3    H129495   3.381   3.142   3.878  0.1032 -0.9953  1.7895
 2668TIP3    H229496   3.384   3.011   3.804 -0.1585 -1.1169  1.9954
 2669TIP3   OH229497   6.662   0.676  13.144 -0.2358  0.3331 -0.6232
 2669TIP3    H129498   6.651   0.582  13.134  1.1613 -0.3181  3.0373
 2669TIP3    H229499   6.575   0.713  13.131 -0.8878 -1.4851 -1.5383
 2670TIP3   OH229500   4.758   3.625  12.339  0.1646  0.2809  0.2790
 2670TIP3    H129501   4.667   3.636  12.365 -0.4129 -1.0997 -1.1615
 2670TIP3    H229502   4.765   3.670  12.255  0.4163 -1.0239 -0.4007
 2671TIP3   OH229503   3.459   3.141   5.209  0.0630  0.7931 -0.1800
 2671TIP3    H129504   3.393   3.190   5.257 -1.7764 -1.7575  0.0277
 2671TIP3    H229505   3.481   3.197   5.135 -2.2987  1.7657 -0.2125
 2672TIP3   OH229506   2.239   3.603  12.311  0.1284  0.1138  0.2883
 2672TIP3    H129507   2.289   3.548  12.251  0.8115  1.3068 -0.2473
 2672TIP3    H229508   2.295   3.613  12.388 -0.2426 -0.4213  0.6305
 2673TIP3   OH229509   1.163   1.681   6.283  0.1210  0.4347 -0.7530
 2673TIP3    H129510   1.242   1.733   6.273 -0.1989  0.7367 -1.8246
 2673TIP3    H229511   1.154   1.668   6.378  2.8965 -1.8829 -0.7376
 2674TIP3   OH229512   0.678   1.446   0.052 -0.5564 -0.2130 -0.8850
 2674TIP3    H129513   0.665   1.357   0.084 -2.6922  0.5316  0.3598
 2674TIP3    H229514   0.650   1.502   0.123 -2.5144  1.4657 -2.9308
 2675TIP3   OH229515   4.182   2.431   2.381 -0.1110  0.2743  0.1195
 2675TIP3    H129516   4.241   2.503   2.361 -0.4582  0.6093  0.2740
 2675TIP3    H229517   4.138   2.458   2.462 -2.0542  1.0226 -1.1633
 2676TIP3   OH229518   1.179   2.712  14.121 -0.0225 -0.0188 -0.7094
 2676TIP3    H129519   1.241   2.675  14.059 -0.9625  1.0988 -2.3562
 2676TIP3    H229520   1.094   2.677  14.094 -0.4453  0.4874 -0.0629
 2677TIP3   OH229521   1.477   2.778  12.055  0.2038 -0.1207 -0.1644
 2677TIP3    H129522   1.558   2.813  12.017 -0.3204  0.6085 -0.6119
 2677TIP3    H229523   1.499   2.761  12.147  0.2185  2.1477  0.2614
 2678TIP3   OH229524   5.166   5.398  11.993 -0.5950  0.1934  0.1866
 2678TIP3    H129525   5.175   5.304  12.007 -1.0419  0.0919 -0.2282
 2678TIP3    H229526   5.074   5.417  12.009 -0.5393  0.5342  0.1153
 2679TIP3   OH229527   4.374   6.817  16.347  0.0902 -0.0356 -0.1871
 2679TIP3    H129528   4.414   6.861  16.422 -0.8552 -0.7136  0.7416
 2679TIP3    H229529   4.339   6.888  16.293 -0.3536  0.4088  0.6759
 2680TIP3   OH229530   6.213   6.384   1.774  0.2862 -1.0195  0.1273
 2680TIP3    H129531   6.265   6.377   1.694  0.4961  1.2463  0.0190
 2680TIP3    H229532   6.247   6.315   1.831  2.9585 -0.0135 -0.1969
 2681TIP3   OH229533   6.043   1.162   3.717 -0.5199 -0.0430  1.2551
 2681TIP3    H129534   6.021   1.254   3.707  1.6928  0.4926  0.9242
 2681TIP3    H229535   6.032   1.145   3.810 -1.5009  0.4099  1.2207
 2682TIP3   OH229536   1.672   3.069   4.118 -0.0209  0.5433 -0.2676
 2682TIP3    H129537   1.676   3.165   4.121  0.7074  0.5306 -0.6570
 2682TIP3    H229538   1.694   3.048   4.027 -5.1188  0.2409 -1.5797
 2683TIP3   OH229539   5.050   6.361  15.464 -0.1673 -0.2971  0.6987
 2683TIP3    H129540   5.146   6.359  15.462 -0.1139  1.5881 -1.5083
 2683TIP3    H229541   5.023   6.302  15.394 -0.4562  2.6398 -1.7837
 2684TIP3   OH229542   4.605   3.576   4.477 -0.0989 -0.0951 -0.3792
 2684TIP3    H129543   4.665   3.555   4.405  0.6943  1.5737 -0.2242
 2684TIP3    H229544   4.533   3.623   4.435  0.3654  0.8809 -0.0917
 2685TIP3   OH229545   1.496   5.818   4.658 -0.6413 -0.3718  0.5047
 2685TIP3    H129546   1.458   5.734   4.633  0.3310 -0.8288  0.5688
 2685TIP3    H229547   1.465   5.834   4.747 -2.5821  0.3672 -0.2745
 2686TIP3   OH229548   0.327   1.465   6.003 -0.0249  0.5191  0.1421
 2686TIP3    H129549   0.276   1.410   5.943 -1.4230  0.6781  1.1654
 2686TIP3    H229550   0.268   1.482   6.076  1.6695  0.2878  1.6001
 2687TIP3   OH229551   3.457   6.547  13.374 -0.3364  0.5019 -0.3578
 2687TIP3    H129552   3.420   6.635  13.364 -0.6852  0.3788 -0.1925
 2687TIP3    H229553   3.478   6.519  13.285  1.1944  1.3470 -0.2667
 2688TIP3   OH229554   1.105   0.470  11.256  0.0573  0.0320 -0.2536
 2688TIP3    H129555   1.027   0.476  11.311  0.7945 -1.4754  1.0049
 2688TIP3    H229556   1.155   0.549  11.278  0.4580 -0.6644  1.4742
 2689TIP3   OH229557   2.175   2.641   6.189 -0.0766  0.1928  0.6019
 2689TIP3    H129558   2.137   2.729   6.184 -2.5212 -0.8810 -0.0993
 2689TIP3    H229559   2.247   2.650   6.251 -0.1944  2.7291  0.4212
 2690TIP3   OH229560   3.177   1.980   4.756  0.1727 -0.3116  0.7917
 2690TIP3    H129561   3.249   1.969   4.693 -0.9400  1.6328 -0.8639
 2690TIP3    H229562   3.098   1.971   4.703 -0.7859  1.9309  1.7862
 2691TIP3   OH229563   4.796   1.336   1.659 -0.1110 -0.4942  0.1179
 2691TIP3    H129564   4.814   1.292   1.742 -0.1283 -1.3965 -0.3384
 2691TIP3    H229565   4.878   1.327   1.609  0.3547  1.2517  0.5515
 2692TIP3   OH229566   6.781   1.751   0.854  0.1713 -0.1098  0.7711
 2692TIP3    H129567   6.810   1.748   0.763 -1.6425 -1.1440  0.2097
 2692TIP3    H229568   6.843   1.811   0.896  1.8387 -0.6554 -0.8247
 2693TIP3   OH229569   3.630   2.788   1.199 -0.3270  0.3150  0.3493
 2693TIP3    H129570   3.643   2.709   1.251 -2.0671 -0.3296 -0.1320
 2693TIP3    H229571   3.718   2.823   1.185  0.4751 -1.5453  0.5542
 2694TIP3   OH229572   3.751   6.116   1.385  0.5319 -0.3031 -0.4082
 2694TIP3    H129573   3.809   6.113   1.309  0.0648 -3.7566 -0.7180
 2694TIP3    H229574   3.796   6.064   1.451 -1.1197 -1.0533  0.1417
 2695TIP3   OH229575   0.074   0.923   5.954  0.1960  0.2774  0.2272
 2695TIP3    H129576   0.003   0.922   6.019  0.3320  0.0115  0.3766
 2695TIP3    H229577   0.055   0.848   5.897  0.1915  0.3866  0.0851
 2696TIP3   OH229578   2.318   6.020   6.234  0.1176 -0.0939 -0.1656
 2696TIP3    H129579   2.326   6.003   6.140 -1.3410 -1.0159 -0.1365
 2696TIP3    H229580   2.403   5.995   6.271  0.3853 -0.5931 -1.1061
 2697TIP3   OH229581   4.807   4.210   4.903 -0.2320 -0.6762 -0.9655
 2697TIP3    H129582   4.899   4.202   4.877 -0.4753 -1.0282 -1.7360
 2697TIP3    H229583   4.808   4.275   4.973  0.8188 -1.9275  0.2024
 2698TIP3   OH229584   3.123   4.297   2.529  0.7276  0.4507  0.0261
 2698TIP3    H129585   3.055   4.302   2.595 -0.2280  2.6887 -1.0554
 2698TIP3    H229586   3.150   4.206   2.528 -3.4756 -0.9016 -0.7164
 2699TIP3   OH229587   1.889   4.811   5.768  0.0940  0.5909  0.6618
 2699TIP3    H129588   1.805   4.851   5.746  0.9145  1.8348 -0.2920
 2699TIP3    H229589   1.933   4.876   5.823  0.2873 -0.2161  1.4794
 2700TIP3   OH229590   2.779   0.791  12.188 -0.6140  0.0550 -0.2452
 2700TIP3    H129591   2.798   0.746  12.270 -1.4925  0.8500  0.4009
 2700TIP3    H229592   2.808   0.881  12.203 -0.8110  0.2098 -0.7899
 2701TIP3   OH229593   6.206   4.938  14.070 -0.1783 -0.6518 -0.3339
 2701TIP3    H129594   6.145   4.865  14.064 -0.0799 -0.9096  1.5347
 2701TIP3    H229595   6.167   4.996  14.136  0.8315 -0.0865 -0.2257
 2702TIP3   OH229596   4.292   0.896   3.225  0.3654  0.1365 -0.7890
 2702TIP3    H129597   4.277   0.910   3.318 -1.4239  1.7419 -1.3053
 2702TIP3    H229598   4.274   0.803   3.212 -0.4945  0.1493  0.2535
 2703TIP3   OH229599   4.933   6.342  17.033 -1.1395  0.3250  0.3577
 2703TIP3    H129600   4.999   6.289  17.077  1.2386  1.1099 -2.1390
 2703TIP3    H229601   4.851   6.319  17.077  0.8385 -0.0452  4.1166
 2704TIP3   OH229602   4.673   6.171  11.537 -0.3306 -0.0536 -0.5977
 2704TIP3    H129603   4.743   6.236  11.534  0.4562 -0.7571  1.2739
 2704TIP3    H229604   4.596   6.219  11.567  0.1800  0.0980  0.5041
 2705TIP3   OH229605   3.037   4.009   2.746 -0.0519 -0.2874 -0.4358
 2705TIP3    H129606   3.050   4.074   2.815  0.8240 -0.6073 -0.3011
 2705TIP3    H229607   3.123   3.999   2.705 -0.4581 -0.4315 -1.2856
 2706TIP3   OH229608   2.234   3.723  15.581 -1.1028  0.2125  0.1155
 2706TIP3    H129609   2.285   3.713  15.661  0.6656 -3.4594 -1.3641
 2706TIP3    H229610   2.296   3.705  15.510 -2.1523  5.1514 -2.2927
 2707TIP3   OH229611   4.952   6.179  14.108 -0.4305  0.2852 -0.9852
 2707TIP3    H129612   4.875   6.169  14.052 -1.7939  0.8879  0.7471
 2707TIP3    H229613   4.918   6.172  14.197  1.4878  0.7904 -0.1903
 2708TIP3   OH229614   2.475   5.605  13.265  0.5565 -0.3145 -0.9770
 2708TIP3    H129615   2.517   5.684  13.298 -0.7911  0.4304 -1.0157
 2708TIP3    H229616   2.546   5.542  13.257  1.5975  0.8003 -0.6679
 2709TIP3   OH229617   0.422   6.002  11.311 -0.7184  0.1821  0.0305
 2709TIP3    H129618   0.517   5.993  11.307 -0.6408  0.5439  0.8384
 2709TIP3    H229619   0.400   6.066  11.243 -0.4155 -0.0951 -0.3255
 2710TIP3   OH229620   1.187   3.251   1.787 -0.2060  0.4250  0.1657
 2710TIP3    H129621   1.272   3.243   1.744 -0.4602 -1.4851 -0.0622
 2710TIP3    H229622   1.177   3.167   1.833 -2.1284  0.4738 -0.1290
 2711TIP3   OH229623   4.605   3.277  14.378  0.8650  0.2647 -0.1455
 2711TIP3    H129624   4.639   3.334  14.447  1.3968 -0.8267  0.5077
 2711TIP3    H229625   4.683   3.241  14.336  0.5420 -1.0064  0.3183
 2712TIP3   OH229626   4.335   3.799   0.518  0.7594 -0.3649  0.6835
 2712TIP3    H129627   4.258   3.743   0.508  0.7309 -0.4549  1.3857
 2712TIP3    H229628   4.405   3.750   0.475 -0.0289  0.7333 -1.9416
 2713TIP3   OH229629   0.575   2.241   4.285  0.4305 -0.2456 -0.6046
 2713TIP3    H129630   0.602   2.183   4.215 -0.2219 -0.8306 -0.3834
 2713TIP3    H229631   0.565   2.184   4.361 -1.8543 -0.1610 -0.7878
 2714TIP3   OH229632   1.774   2.767  15.619  0.3067  0.1105  0.3931
 2714TIP3    H129633   1.815   2.758  15.533 -1.3012 -0.2917 -0.3470
 2714TIP3    H229634   1.686   2.802  15.601 -0.1900 -0.3347  1.8378
 2715TIP3   OH229635   4.883   4.839   6.540  0.4857 -0.5920  0.5359
 2715TIP3    H129636   4.957   4.780   6.526  2.1117  1.7179 -1.0778
 2715TIP3    H229637   4.918   4.908   6.597 -0.6528  0.1453  0.3658
 2716TIP3   OH229638   0.508   6.295  12.412  0.2972  0.4241  0.1275
 2716TIP3    H129639   0.599   6.318  12.392  0.2287  0.9249  0.3736
 2716TIP3    H229640   0.487   6.224  12.352  1.2119 -0.4463  0.8176
 2717TIP3   OH229641   2.222   3.902   2.707  0.2774 -0.5686  0.0087
 2717TIP3    H129642   2.228   3.848   2.785 -2.9245 -0.3795  0.4568
 2717TIP3    H229643   2.149   3.864   2.657  0.3962  1.0728 -1.4723
 2718TIP3   OH229644   4.774   6.365  16.376 -0.0313 -0.1454 -0.2222
 2718TIP3    H129645   4.752   6.368  16.283 -0.3181 -0.2654 -0.1600
 2718TIP3    H229646   4.690   6.351  16.419  0.1949 -0.7724  0.0132
 2719TIP3   OH229647   1.548   6.600  11.941 -0.3069  0.1211 -0.1704
 2719TIP3    H129648   1.601   6.530  11.979 -1.6125 -1.2633 -0.8546
 2719TIP3    H229649   1.585   6.614  11.854 -0.5085 -0.2081 -0.3058
 2720TIP3   OH229650   2.554   2.705  11.556  0.3058 -0.2945  0.1182
 2720TIP3    H129651   2.574   2.778  11.498 -0.1184  0.1237  0.4895
 2720TIP3    H229652   2.631   2.649  11.553 -0.8207 -1.8075 -3.1380
 2721TIP3   OH229653   0.874   1.565  12.379  0.1850  0.4275 -0.3614
 2721TIP3    H129654   0.792   1.526  12.408  0.4062  0.4841  0.3635
 2721TIP3    H229655   0.894   1.630  12.447  0.7709  0.4854 -0.5895
 2722TIP3   OH229656   0.568   6.196  10.999 -0.3013  0.8577 -0.0410
 2722TIP3    H129657   0.608   6.277  10.967  0.0881  0.5942 -0.2254
 2722TIP3    H229658   0.638   6.150  11.044 -0.1050 -0.0837 -1.2554
 2723TIP3   OH229659   3.499   3.339   0.885 -0.1003 -0.7243  0.1424
 2723TIP3    H129660   3.465   3.400   0.820  0.4949 -1.1992 -0.6273
 2723TIP3    H229661   3.488   3.253   0.845 -0.7940 -1.1256  1.1558
 2724TIP3   OH229662   3.112   2.242  14.312 -0.5673  0.5698 -1.2825
 2724TIP3    H129663   3.184   2.253  14.250 -0.1979 -0.5822 -1.0633
 2724TIP3    H229664   3.154   2.222  14.396 -1.1070  0.9621 -0.9093
 2725TIP3   OH229665   5.677   2.069  12.871 -0.1260  0.2824  0.0945
 2725TIP3    H129666   5.768   2.078  12.842  0.0117  4.9279  1.6324
 2725TIP3    H229667   5.626   2.069  12.790  0.8843  4.0050 -0.6284
 2726TIP3   OH229668   1.281   2.983  11.708 -0.6530  0.0085 -0.3006
 2726TIP3    H129669   1.317   3.011  11.792 -0.1040 -1.9397  0.1176
 2726TIP3    H229670   1.336   3.027  11.643  0.4304 -0.3730  0.3519
 2727TIP3   OH229671   5.594   0.349   4.413  0.4912  0.0366 -0.2949
 2727TIP3    H129672   5.618   0.410   4.343 -0.4280  0.4804 -0.2280
 2727TIP3    H229673   5.624   0.264   4.382 -0.8171  0.0636 -1.6827
 2728TIP3   OH229674   1.123   5.016  12.395  0.8765  0.2762  0.2846
 2728TIP3    H129675   1.152   5.058  12.476 -0.3162  0.5501  0.5831
 2728TIP3    H229676   1.048   5.068  12.367  0.0694 -0.9854  0.0579
 2729TIP3   OH229677   0.189   2.536   2.534 -0.0296 -0.2380  0.0377
 2729TIP3    H129678   0.136   2.571   2.462 -2.6760  0.6792  2.3068
 2729TIP3    H229679   0.214   2.613   2.585 -0.2368 -1.0635  1.4189
 2730TIP3   OH229680   4.166   6.451  13.263  0.7064 -0.7389 -0.0888
 2730TIP3    H129681   4.146   6.413  13.348  1.2400 -1.3136 -0.2108
 2730TIP3    H229682   4.094   6.422  13.206 -0.0424  0.2684  0.3386
 2731TIP3   OH229683   1.736   3.453   3.795 -0.6582  0.3887  0.1638
 2731TIP3    H129684   1.805   3.394   3.765 -0.5283  0.3555  0.5256
 2731TIP3    H229685   1.771   3.541   3.778 -0.2564  0.3825  0.9381
 2732TIP3   OH229686   3.835   2.627  13.372 -0.3676  0.2922 -0.1708
 2732TIP3    H129687   3.883   2.647  13.292 -0.1156  2.5300  0.4955
 2732TIP3    H229688   3.863   2.694  13.434 -2.9149  0.4914  0.8379
 2733TIP3   OH229689   1.839   2.214  11.597 -0.0478 -0.4285 -0.0641
 2733TIP3    H129690   1.834   2.226  11.692  0.3169 -0.5145 -0.0342
 2733TIP3    H229691   1.820   2.121  11.584 -0.7216 -0.2845 -0.1260
 2734TIP3   OH229692   5.353   3.878   2.144 -0.3696 -0.1405  0.0963
 2734TIP3    H129693   5.295   3.925   2.204 -0.6228 -0.6739  0.2739
 2734TIP3    H229694   5.406   3.822   2.200  1.4908  1.5518  0.0880
 2735TIP3   OH229695   4.249   5.123  13.890  0.1981  0.0285  0.4984
 2735TIP3    H129696   4.248   5.036  13.930  1.0941 -0.2236 -0.0206
 2735TIP3    H229697   4.271   5.182  13.962  1.8307 -0.4291  0.3985
 2736TIP3   OH229698   1.601   2.904  17.250  0.4593 -0.2729  0.1218
 2736TIP3    H129699   1.640   2.821  17.221  1.2099  0.0139  0.3083
 2736TIP3    H229700   1.647   2.971  17.200  0.8265  0.1307  0.9773
 2737TIP3   OH229701   3.954   0.139  16.076 -0.7612  0.5376 -0.1251
 2737TIP3    H129702   3.960   0.139  15.980 -0.2836 -1.0857 -0.1061
 2737TIP3    H229703   4.010   0.067  16.103 -2.1224 -0.0019  1.2980
 2738TIP3   OH229704   3.127   3.832   3.029  0.1086  0.0706  0.6738
 2738TIP3    H129705   3.138   3.737   3.030 -1.0585 -0.1108 -0.7730
 2738TIP3    H229706   3.215   3.867   3.040  0.8846 -1.2098 -1.2157
 2739TIP3   OH229707   6.251   3.960   3.320 -0.6016 -0.1861  0.4927
 2739TIP3    H129708   6.217   3.982   3.233 -0.0732  0.7298  0.5031
 2739TIP3    H229709   6.233   4.038   3.373 -0.6396 -0.6191  1.1157
 2740TIP3   OH229710   6.172   6.725  13.038 -0.4465 -0.5344 -0.5751
 2740TIP3    H129711   6.237   6.679  12.984  0.5300  0.5267 -0.3149
 2740TIP3    H229712   6.194   6.817  13.028 -0.4385 -0.3137  1.4367
 2741TIP3   OH229713   5.207   5.799   6.634  0.3225  0.2567 -0.1932
 2741TIP3    H129714   5.252   5.848   6.703  1.5637  1.8728 -2.0795
 2741TIP3    H229715   5.277   5.774   6.573 -0.4028 -3.2951  0.3492
 2742TIP3   OH229716   2.001   0.682  10.685 -0.2446  0.1366 -0.2488
 2742TIP3    H129717   1.948   0.602  10.677 -0.9613  0.6079 -0.3090
 2742TIP3    H229718   2.027   0.702  10.595  0.0230 -0.0911 -0.2194
 2743TIP3   OH229719   5.073   2.139   5.720 -0.5280 -0.0348 -0.4617
 2743TIP3    H129720   5.129   2.156   5.795 -1.3951  1.6823 -0.1667
 2743TIP3    H229721   5.129   2.154   5.644 -0.0790 -0.1995 -0.1660
 2744TIP3   OH229722   6.110   0.132  14.280  0.3208  0.0943  0.2656
 2744TIP3    H129723   6.168   0.208  14.283 -0.1938  0.4792  0.6924
 2744TIP3    H229724   6.067   0.137  14.195  2.0058 -1.0358 -0.7020
 2745TIP3   OH229725   3.559   1.111   3.216  0.3101 -0.1102  0.0945
 2745TIP3    H129726   3.532   1.083   3.304  1.9073 -0.5187  0.4676
 2745TIP3    H229727   3.648   1.143   3.228  0.1919  0.7511 -1.2190
 2746TIP3   OH229728   3.934   1.924   6.536  0.0427 -0.3580  0.2338
 2746TIP3    H129729   3.866   1.963   6.481  0.3212  2.0863  1.5412
 2746TIP3    H229730   4.015   1.965   6.507  0.3386  0.1138  1.6737
 2747TIP3   OH229731   4.809   2.129   2.474  0.2530 -0.3979  0.2132
 2747TIP3    H129732   4.839   2.039   2.461  0.0916 -0.6434  1.4411
 2747TIP3    H229733   4.867   2.164   2.542  0.0778  0.2983  0.0001
 2748TIP3   OH229734   5.393   3.228   4.437 -0.5177  0.7778 -0.4884
 2748TIP3    H129735   5.401   3.164   4.366 -1.2294  0.9916 -0.7660
 2748TIP3    H229736   5.407   3.177   4.517  1.7774  0.7931 -0.8322
 2749TIP3   OH229737   2.618   6.160   1.022  0.0882  0.2714  0.1145
 2749TIP3    H129738   2.639   6.201   1.105  2.1997 -2.5158  1.0236
 2749TIP3    H229739   2.700   6.161   0.973 -0.1620 -1.6309 -0.3621
 2750TIP3   OH229740   6.215   6.649  13.780 -0.7133  0.0815 -0.0559
 2750TIP3    H129741   6.272   6.725  13.790 -0.8530  0.0258  1.2104
 2750TIP3    H229742   6.164   6.668  13.702  2.4234 -0.7727 -2.4134
 2751TIP3   OH229743   1.993   5.440  11.969  0.1793 -0.3118  0.2431
 2751TIP3    H129744   1.919   5.496  11.942 -0.7882 -1.5286  0.3241
 2751TIP3    H229745   2.058   5.501  12.002 -0.8402  0.7870  0.2650
 2752TIP3   OH229746   6.103   3.545   3.728 -0.1571 -1.0600 -0.2488
 2752TIP3    H129747   6.068   3.514   3.812  1.5508 -0.8966  0.5447
 2752TIP3    H229748   6.171   3.482   3.706  0.1461 -0.4826 -0.9646
 2753TIP3   OH229749   2.668   1.695   1.349  0.2410 -0.0788 -0.1165
 2753TIP3    H129750   2.635   1.698   1.259  0.4678 -1.0410 -0.2298
 2753TIP3    H229751   2.728   1.620   1.350 -1.1735 -1.2082  1.3248
 2754TIP3   OH229752   0.965   4.320  15.646  0.1781 -0.3717 -0.1304
 2754TIP3    H129753   1.027   4.248  15.656 -0.0858 -0.5438  0.2782
 2754TIP3    H229754   0.901   4.288  15.583 -0.4189 -0.8198  0.7041
 2755TIP3   OH229755   6.353   1.496  16.571 -0.0072 -0.3766  0.2020
 2755TIP3    H129756   6.377   1.462  16.657 -0.6215  2.0285  1.3878
 2755TIP3    H229757   6.357   1.591  16.582  1.9757 -0.0358 -3.0365
 2756TIP3   OH229758   0.912   5.339  12.849 -0.1962  0.0385  0.1376
 2756TIP3    H129759   0.893   5.421  12.894 -2.4071  0.2542 -1.1211
 2756TIP3    H229760   0.931   5.364  12.758 -0.5132 -0.8046 -0.1696
 2757TIP3   OH229761   5.773   2.808   5.621 -0.0326 -0.4555 -0.4936
 2757TIP3    H129762   5.866   2.789   5.604 -0.4704 -1.2795 -2.0001
 2757TIP3    H229763   5.726   2.757   5.556 -1.5687 -0.1568  0.3678
 2758TIP3   OH229764   2.419   5.193   3.485 -0.1132 -0.1248 -0.1193
 2758TIP3    H129765   2.444   5.130   3.553  1.8668 -0.2061 -0.8930
 2758TIP3    H229766   2.393   5.271   3.533  2.5002  0.2630  0.7530
 2759TIP3   OH229767   4.768   4.106   3.929 -0.2450  0.4799  0.3721
 2759TIP3    H129768   4.833   4.038   3.945 -0.2251  0.6250  0.9330
 2759TIP3    H229769   4.809   4.187   3.960 -0.4993  0.6503  0.2696
 2760TIP3   OH229770   2.709   4.111   0.747 -0.4469 -0.2746 -0.6283
 2760TIP3    H129771   2.783   4.062   0.784 -0.9474 -1.0567 -0.6528
 2760TIP3    H229772   2.639   4.046   0.738 -1.7076  0.8008  0.9976
 2761TIP3   OH229773   4.064   3.440  16.875 -0.1120 -0.2816 -0.2642
 2761TIP3    H129774   4.067   3.521  16.925  0.7503 -0.8565  0.6252
 2761TIP3    H229775   3.991   3.391  16.913 -0.5940  0.0423 -0.7626
 2762TIP3   OH229776   2.778   1.216   5.966  0.5506 -0.3784 -0.5471
 2762TIP3    H129777   2.872   1.209   5.986  0.3017 -1.0871  0.4208
 2762TIP3    H229778   2.737   1.233   6.050 -0.0772  1.1522 -1.1598
 2763TIP3   OH229779   1.169   5.381   5.133 -0.2005  0.5818  0.0521
 2763TIP3    H129780   1.106   5.390   5.205 -1.1053  0.8538 -0.7517
 2763TIP3    H229781   1.243   5.436   5.159 -0.3044  0.2749  1.0056
 2764TIP3   OH229782   4.428   1.990   4.070  0.2988 -0.4087  0.0164
 2764TIP3    H129783   4.490   2.050   4.028  1.1128 -1.2595 -0.0142
 2764TIP3    H229784   4.350   1.995   4.015  0.7004 -0.0968 -0.5393
 2765TIP3   OH229785   6.572   6.266   5.013 -0.3970  0.1833  0.8964
 2765TIP3    H129786   6.573   6.229   5.101 -0.1365  1.6049  1.5042
 2765TIP3    H229787   6.521   6.346   5.021  0.0731  0.5969 -0.1243
 2766TIP3   OH229788   5.941   1.414   2.575  0.2130  0.0737 -0.3567
 2766TIP3    H129789   5.964   1.363   2.652 -1.4209 -1.2450 -0.7120
 2766TIP3    H229790   5.856   1.452   2.596  0.8538  1.6704 -0.5821
 2767TIP3   OH229791   1.679   4.694  14.829 -0.2783  0.3868  0.7580
 2767TIP3    H129792   1.744   4.719  14.764  0.3849 -1.0942  0.8351
 2767TIP3    H229793   1.615   4.641  14.780 -2.3757  3.2004  0.3112
 2768TIP3   OH229794   1.852   3.195  16.177  0.2580  0.1662  1.1665
 2768TIP3    H129795   1.848   3.284  16.212  2.2423 -0.2830  2.6028
 2768TIP3    H229796   1.851   3.207  16.082  0.7441  1.7422  1.3361
 2769TIP3   OH229797   0.313   5.317  15.003 -0.1257 -0.5876 -0.1971
 2769TIP3    H129798   0.362   5.236  15.017  0.1726 -0.1819  1.1161
 2769TIP3    H229799   0.380   5.383  14.985 -0.1140  0.0960  2.2002
 2770TIP3   OH229800   0.865   3.187  10.844 -0.3944 -0.0493 -0.4144
 2770TIP3    H129801   0.863   3.174  10.749 -2.3929 -0.9415 -0.2745
 2770TIP3    H229802   0.899   3.104  10.879  0.8778  0.4834 -0.3791
 2771TIP3   OH229803   0.923   2.459  12.314  0.5479 -0.5236  0.1631
 2771TIP3    H129804   0.968   2.510  12.248  0.7605  1.0460  1.4856
 2771TIP3    H229805   0.962   2.372  12.309  1.4063 -0.0784 -0.9231
 2772TIP3   OH229806   1.813   3.821   3.552  0.0268  0.3643 -0.3002
 2772TIP3    H129807   1.874   3.785   3.616 -0.5215 -1.7896 -0.9327
 2772TIP3    H229808   1.740   3.853   3.604  1.5805  2.8492  0.4574
 2773TIP3   OH229809   4.764   4.532  15.801 -0.2415  0.1314  0.2792
 2773TIP3    H129810   4.797   4.476  15.872 -2.3525 -0.6442  0.6873
 2773TIP3    H229811   4.827   4.520  15.730  0.9129 -0.4871  1.3723
 2774TIP3   OH229812   3.731   3.124  11.846 -0.3134  0.2487 -0.1929
 2774TIP3    H129813   3.680   3.116  11.926 -1.2641  1.1850 -0.6930
 2774TIP3    H229814   3.671   3.100  11.776  0.4088 -0.2325 -0.6577
 2775TIP3   OH229815   4.709   5.656   0.211 -0.8102  0.0534  0.5030
 2775TIP3    H129816   4.746   5.686   0.294 -2.9537  1.5328  0.9689
 2775TIP3    H229817   4.782   5.613   0.166  1.4355  2.7684  1.4048
 2776TIP3   OH229818   4.428   1.201  11.236 -0.1956  0.1618  0.1470
 2776TIP3    H129819   4.333   1.201  11.251 -0.1312  1.0177  0.5861
 2776TIP3    H229820   4.438   1.215  11.142 -0.5387 -1.9474 -0.2286
 2777TIP3   OH229821   0.965   3.432  10.778 -0.2459  0.5511  0.1951
 2777TIP3    H129822   1.055   3.410  10.755  0.6302  2.1709  1.8786
 2777TIP3    H229823   0.931   3.354  10.820 -0.2508 -0.7020 -2.0524
 2778TIP3   OH229824   4.381   2.117   5.023  0.0751  0.1263  0.1829
 2778TIP3    H129825   4.338   2.074   5.097 -0.5577 -2.0730 -1.4177
 2778TIP3    H229826   4.311   2.135   4.961  0.8363  0.5739 -0.5588
 2779TIP3   OH229827   3.359   1.886  14.904 -0.1427 -0.3374 -0.8317
 2779TIP3    H129828   3.290   1.925  14.850 -0.8555 -0.6567 -0.1678
 2779TIP3    H229829   3.435   1.942  14.889 -1.4757  2.1327  1.0535
 2780TIP3   OH229830   4.258   6.608  13.535  0.1241 -0.0309  0.9372
 2780TIP3    H129831   4.324   6.544  13.562  0.8678  0.8583  1.2605
 2780TIP3    H229832   4.307   6.690  13.522 -0.6999  0.2919 -0.1927
 2781TIP3   OH229833   4.968   5.523  11.638  0.1023  0.2602  0.0761
 2781TIP3    H129834   5.050   5.562  11.668 -0.5475  1.5420  0.2229
 2781TIP3    H229835   4.900   5.571  11.686 -0.8251  0.5620 -1.4990
 2782TIP3   OH229836   2.309   0.399  16.754 -0.2277 -0.4316 -0.0404
 2782TIP3    H129837   2.346   0.403  16.665 -1.4302 -1.4313 -0.6030
 2782TIP3    H229838   2.312   0.489  16.785 -0.3061  0.0245 -1.3113
 2783TIP3   OH229839   3.634   5.911   5.410  0.9843  0.2885  0.3247
 2783TIP3    H129840   3.616   5.993   5.365 -2.2932  0.5338  1.9439
 2783TIP3    H229841   3.620   5.931   5.503  2.0136 -1.6445  0.9295
 2784TIP3   OH229842   1.253   2.754  13.251  0.2815  1.0366 -0.1090
 2784TIP3    H129843   1.274   2.663  13.231  0.8039  1.3716 -1.0998
 2784TIP3    H229844   1.202   2.749  13.332 -1.0167 -0.2561 -0.9893
 2785TIP3   OH229845   0.459   2.002  14.903 -0.4940 -0.4083  0.2256
 2785TIP3    H129846   0.420   2.067  14.844 -1.2996  1.3354  2.6010
 2785TIP3    H229847   0.520   1.953  14.848 -2.8068 -0.2642 -2.5355
 2786TIP3   OH229848   0.013   5.686   0.765  0.6874  0.8529 -0.0844
 2786TIP3    H129849  -0.079   5.711   0.769  0.4980  0.1713 -0.0842
 2786TIP3    H229850   0.013   5.600   0.723  1.4539  1.4735 -1.3893
 2787TIP3   OH229851   1.218   6.508   2.349 -0.2514 -0.5188  0.1426
 2787TIP3    H129852   1.141   6.561   2.369  0.3849  0.0554  1.0601
 2787TIP3    H229853   1.249   6.543   2.265  0.9119  1.4260  1.3587
 2788TIP3   OH229854   2.417   0.955   2.016  0.5829 -0.3281 -0.6661
 2788TIP3    H129855   2.485   0.995   1.962  2.4515 -2.6520 -0.0690
 2788TIP3    H229856   2.425   0.861   2.000 -0.7718 -0.8290  1.4363
 2789TIP3   OH229857   4.357   2.385   5.152 -0.8292 -0.3854  0.1771
 2789TIP3    H129858   4.289   2.403   5.217 -1.0080  1.4698 -0.5162
 2789TIP3    H229859   4.326   2.307   5.106 -2.1522  0.0427  0.3164
 2790TIP3   OH229860   2.867   3.234  14.778 -0.0642 -0.2828 -0.5989
 2790TIP3    H129861   2.785   3.195  14.748  0.4730 -0.4267 -1.9084
 2790TIP3    H229862   2.882   3.194  14.864 -0.5359 -1.5052 -1.0645
 2791TIP3   OH229863   6.561   5.878  15.219  0.0127 -0.3958  0.1464
 2791TIP3    H129864   6.644   5.880  15.266  1.0278 -0.4234 -1.5704
 2791TIP3    H229865   6.587   5.870  15.127 -1.9329 -2.6614 -0.2520
 2792TIP3   OH229866   3.984   1.420  17.249 -0.1005 -0.3211  0.7777
 2792TIP3    H129867   4.061   1.404  17.304 -0.3916  1.1172  1.6246
 2792TIP3    H229868   3.944   1.499  17.287 -1.4291 -0.4906 -0.2664
 2793TIP3   OH229869   1.912   3.111   3.492 -0.3882 -0.1437 -0.1225
 2793TIP3    H129870   1.886   3.085   3.404  0.2703  0.9575 -0.6630
 2793TIP3    H229871   1.950   3.033   3.531  0.0889 -0.4082 -1.1235
 2794TIP3   OH229872   0.265   4.945   1.251  0.6182 -0.5473  0.1701
 2794TIP3    H129873   0.291   4.884   1.320  1.5015  0.8236  1.0981
 2794TIP3    H229874   0.299   5.030   1.281 -0.7132  0.4217 -1.0027
 2795TIP3   OH229875   5.090   0.969  15.477  0.3228 -0.5415 -0.4666
 2795TIP3    H129876   5.040   0.967  15.395 -1.8851  0.5827  0.8023
 2795TIP3    H229877   5.051   0.901  15.531  0.3318  0.1584  0.4450
 2796TIP3   OH229878   3.945   3.884   4.206  0.2945 -0.2255 -0.1837
 2796TIP3    H129879   3.985   3.800   4.228  1.0219  0.0719 -0.3525
 2796TIP3    H229880   4.011   3.930   4.155  1.4989  2.0559  3.2438
 2797TIP3   OH229881   5.678   0.086  12.147 -0.4377 -0.1533 -0.0733
 2797TIP3    H129882   5.693   0.175  12.179 -0.3982 -0.3543  0.4649
 2797TIP3    H229883   5.584   0.071  12.162 -0.6250  0.1062 -0.9439
 2798TIP3   OH229884   5.884   6.421   3.297  0.2564  0.0145 -0.7612
 2798TIP3    H129885   5.951   6.393   3.358 -1.6767  1.1134  1.9986
 2798TIP3    H229886   5.925   6.490   3.246  1.6458 -0.2866 -0.0596
 2799TIP3   OH229887   2.823   3.033  11.190  0.1983  0.5834  0.3171
 2799TIP3    H129888   2.902   2.978  11.194  0.3104  0.5606 -1.4814
 2799TIP3    H229889   2.788   3.017  11.102 -0.6777  2.1462  0.3665
 2800TIP3   OH229890   3.970   6.582  15.668 -0.0133  0.4703  0.5650
 2800TIP3    H129891   4.039   6.517  15.666  0.5788  1.0864  0.6407
 2800TIP3    H229892   3.898   6.540  15.714  0.0995 -0.3803 -0.0291
 2801TIP3   OH229893   0.161   3.130   3.104 -0.7676 -0.7104 -0.2459
 2801TIP3    H129894   0.108   3.071   3.051 -0.0850 -0.0175 -1.7613
 2801TIP3    H229895   0.243   3.139   3.054 -0.1030 -0.0531  0.9487
 2802TIP3   OH229896   6.699   1.083  12.182  0.2317 -0.3238  0.2022
 2802TIP3    H129897   6.792   1.103  12.188 -0.0570  0.8318  0.9144
 2802TIP3    H229898   6.682   1.026  12.258 -0.0804  1.2308  1.3216
 2803TIP3   OH229899   3.466   4.031  13.852 -0.2766  0.1964 -0.2439
 2803TIP3    H129900   3.433   4.022  13.763 -0.2324 -0.2296 -0.2173
 2803TIP3    H229901   3.550   4.076  13.843  1.7966 -3.5706 -0.7986
 2804TIP3   OH229902   0.986   6.397  16.357  0.6114  0.0433 -0.8108
 2804TIP3    H129903   1.027   6.479  16.385  1.3187 -0.0488 -1.5693
 2804TIP3    H229904   1.044   6.362  16.289  0.1397 -0.9157 -0.7394
 2805TIP3   OH229905   4.205   1.164  16.365  0.4517  0.3294 -0.3206
 2805TIP3    H129906   4.285   1.202  16.402  0.9993 -0.0907 -1.0774
 2805TIP3    H229907   4.232   1.080  16.331 -0.2619  0.3114 -0.8418
 2806TIP3   OH229908   3.610   1.525   4.938 -0.2560  0.7013 -0.4040
 2806TIP3    H129909   3.578   1.562   5.021 -0.6788  0.1619 -0.3227
 2806TIP3    H229910   3.700   1.558   4.930 -0.3094  0.9830  0.1293
 2807TIP3   OH229911   3.600   1.658  13.655  0.3018  0.5895  0.6141
 2807TIP3    H129912   3.638   1.739  13.689 -1.5596  1.5061  0.5730
 2807TIP3    H229913   3.601   1.668  13.560  0.3967  0.4110  0.5957
 2808TIP3   OH229914   6.353   6.284   5.780  0.2750 -0.0090  0.3412
 2808TIP3    H129915   6.438   6.241   5.779 -1.0687 -2.7901  1.7797
 2808TIP3    H229916   6.323   6.280   5.689  0.4621 -1.5383  0.3364
 2809TIP3   OH229917   2.510   3.862  16.678 -0.3950 -0.5807 -0.0368
 2809TIP3    H129918   2.489   3.832  16.589  0.0673  1.0657 -0.7174
 2809TIP3    H229919   2.486   3.955  16.679 -2.1052 -1.0009  2.1350
 2810TIP3   OH229920   6.802   5.060   2.915 -0.0400 -0.1674  0.0207
 2810TIP3    H129921   6.835   4.971   2.926 -0.5150 -0.3502 -0.0166
 2810TIP3    H229922   6.707   5.052   2.926 -0.1421  0.2459 -0.5413
 2811TIP3   OH229923   4.656   0.973   0.737  0.3409 -0.1258 -0.0276
 2811TIP3    H129924   4.580   1.018   0.775  0.0307  0.8833 -1.8048
 2811TIP3    H229925   4.732   1.016   0.777  0.0241  1.2780 -0.9075
 2812TIP3   OH229926   5.362   3.321  14.397  0.8154 -0.0910 -0.3769
 2812TIP3    H129927   5.398   3.253  14.340 -0.0628  0.1733 -1.2573
 2812TIP3    H229928   5.315   3.273  14.465  0.3337 -0.3712 -0.9060
 2813TIP3   OH229929   1.290   0.155  13.239  0.1343  0.0614 -0.6238
 2813TIP3    H129930   1.209   0.115  13.271 -1.6517  1.2105 -3.4812
 2813TIP3    H229931   1.294   0.239  13.284  0.5788 -0.6589  0.6947
 2814TIP3   OH229932   0.411   5.086  13.848 -0.2628  0.1977 -0.3034
 2814TIP3    H129933   0.447   5.136  13.922 -1.5296  0.3778  0.2144
 2814TIP3    H229934   0.457   5.003  13.850 -2.7011 -1.1942  2.8997
 2815TIP3   OH229935   4.756   4.651  14.286 -0.1316  0.2913 -0.3589
 2815TIP3    H129936   4.758   4.592  14.362 -0.6969  1.3618  0.4974
 2815TIP3    H229937   4.829   4.711  14.300 -0.5457  0.8052 -0.4153
 2816TIP3   OH229938   6.157   6.558  17.137  0.0353 -0.0654 -0.0052
 2816TIP3    H129939   6.238   6.507  17.131 -0.0441 -0.1608 -0.2870
 2816TIP3    H229940   6.170   6.631  17.076  0.1369  0.2410  0.3782
 2817TIP3   OH229941   5.933   3.081   1.018 -0.1839  0.3734  0.1682
 2817TIP3    H129942   5.938   3.061   0.924  0.7643  2.0393 -0.1530
 2817TIP3    H229943   6.017   3.051   1.053  0.1664  1.3449  0.1645
 2818TIP3   OH229944   0.279   1.715  14.903  0.0545  0.0661  0.3512
 2818TIP3    H129945   0.265   1.782  14.837  0.5452  0.2281  0.4082
 2818TIP3    H229946   0.209   1.652  14.889  1.6808 -1.2847 -2.0789
 2819TIP3   OH229947   6.253   4.799   5.777 -0.0779 -0.2350 -0.2634
 2819TIP3    H129948   6.311   4.759   5.842 -0.1504  0.0172 -0.0429
 2819TIP3    H229949   6.169   4.806   5.821 -0.1809 -0.2533 -0.4560
 2820TIP3   OH229950   5.817   3.999  11.471  0.7536 -0.8974 -0.1210
 2820TIP3    H129951   5.886   4.063  11.451 -0.9402  0.2301 -2.5709
 2820TIP3    H229952   5.791   4.020  11.561  0.6132  1.5820 -0.6866
 2821TIP3   OH229953   0.931   4.106  11.395 -0.7753 -0.1849  0.5243
 2821TIP3    H129954   0.931   4.171  11.326 -1.7221  0.2517  0.9288
 2821TIP3    H229955   0.859   4.046  11.372  0.9300 -1.8780 -0.5690
 2822TIP3   OH229956   0.742   3.464  13.440  0.7784  0.1639 -0.1424
 2822TIP3    H129957   0.763   3.523  13.511  3.2124  0.9714 -1.4837
 2822TIP3    H229958   0.754   3.376  13.477  2.3197  0.5793  0.3586
 2823TIP3   OH229959   4.174   3.670  16.540 -0.1379 -0.4874  0.2683
 2823TIP3    H129960   4.230   3.635  16.608  1.2589  1.9378  0.4193
 2823TIP3    H229961   4.164   3.598  16.477 -0.2770 -2.2614  2.2962
 2824TIP3   OH229962   5.181   3.125   2.724 -0.4230 -0.0398 -0.2803
 2824TIP3    H129963   5.203   3.061   2.791  2.1045  0.7267 -0.3178
 2824TIP3    H229964   5.114   3.180   2.764 -0.6163 -1.0156  0.7553
 2825TIP3   OH229965   3.406   4.947  10.705  0.1611 -0.4623  0.0946
 2825TIP3    H129966   3.497   4.925  10.684 -0.5675 -2.1675 -1.4027
 2825TIP3    H229967   3.375   4.996  10.629 -0.0737  0.4299  0.7595
 2826TIP3   OH229968   4.568   5.117   1.431  0.0552 -0.4582  0.2386
 2826TIP3    H129969   4.520   5.147   1.354  1.1397  1.1060  0.1359
 2826TIP3    H229970   4.516   5.145   1.505  0.1662  0.1029  0.1067
 2827TIP3   OH229971   0.592   1.180   0.806  0.6773  0.1307 -0.2002
 2827TIP3    H129972   0.584   1.088   0.830  0.7411 -0.1808 -1.3465
 2827TIP3    H229973   0.676   1.207   0.843  1.8755 -0.9689 -2.0181
 2828TIP3   OH229974   3.074   5.746   1.722  0.2122  0.3768  0.8576
 2828TIP3    H129975   3.031   5.663   1.744 -0.5357  0.5843  0.1983
 2828TIP3    H229976   3.165   5.722   1.705 -0.8788 -1.1008 -3.8287
 2829TIP3   OH229977   4.690   2.443   1.944  0.0218  0.3147 -0.0217
 2829TIP3    H129978   4.651   2.356   1.952  0.8871 -0.1073 -0.3349
 2829TIP3    H229979   4.628   2.493   1.891  0.2492 -0.5699 -1.1455
 2830TIP3   OH229980   2.283   5.363  11.014  0.3856  0.3192  0.6918
 2830TIP3    H129981   2.294   5.278  10.970 -1.8715 -0.1202  0.9193
 2830TIP3    H229982   2.298   5.345  11.106  3.1908  0.8590  0.3853
 2831TIP3   OH229983   3.584   1.849   1.592  0.1829  0.0855  0.4630
 2831TIP3    H129984   3.498   1.875   1.624 -0.0309 -0.3308  0.2217
 2831TIP3    H229985   3.632   1.824   1.671  0.4092  1.2491  0.7079
 2832TIP3   OH229986   0.086   6.594  14.848 -0.5453  0.0223 -0.5270
 2832TIP3    H129987   0.041   6.666  14.893  2.7645  2.2545 -0.6161
 2832TIP3    H229988   0.033   6.516  14.869 -3.3684  2.2048  0.8308
 2833TIP3   OH229989   2.424   1.107   2.561 -0.2525 -0.0650  0.0076
 2833TIP3    H129990   2.395   1.187   2.604 -1.2408 -0.8412  0.7941
 2833TIP3    H229991   2.440   1.133   2.470 -1.5698  0.7926  0.0216
 2834TIP3   OH229992   1.304   4.325  11.467 -0.4098  0.1707 -0.0515
 2834TIP3    H129993   1.378   4.331  11.407 -0.8222 -1.8752 -0.8006
 2834TIP3    H229994   1.230   4.359  11.416 -0.2930  0.7334  0.1516
 2835TIP3   OH229995   6.709   2.030  16.976 -0.2857  0.2567  0.3420
 2835TIP3    H129996   6.658   2.066  16.904  1.2236 -0.1416 -0.9646
 2835TIP3    H229997   6.684   2.083  17.052 -1.1234  1.3740 -0.6799
 2836TIP3   OH229998   6.755   2.565  16.509 -0.0190  0.4374 -0.4124
 2836TIP3    H129999   6.789   2.615  16.584  0.5027 -1.1897  0.4452
 2836TIP3    H230000   6.685   2.512  16.545 -0.0081 -0.0869 -1.1529
 2837TIP3   OH230001   2.530   4.350  13.027  0.3668  0.1906 -0.3725
 2837TIP3    H130002   2.515   4.442  13.008 -0.3943  0.2114  0.3015
 2837TIP3    H230003   2.620   4.334  12.999  0.6280  1.2288 -0.1318
 2838TIP3   OH230004   2.186   4.556   0.612  0.2429  0.1284  0.4465
 2838TIP3    H130005   2.099   4.583   0.582 -1.2253 -0.9827  3.4737
 2838TIP3    H230006   2.197   4.467   0.577 -0.6461 -0.4227  1.5212
 2839TIP3   OH230007   6.324   1.667   2.054 -0.0845  0.6516 -0.5626
 2839TIP3    H130008   6.349   1.759   2.044  0.0521  0.4964 -1.7707
 2839TIP3    H230009   6.281   1.645   1.971 -0.3133 -0.3164 -0.1948
 2840TIP3   OH230010   3.371   0.067   1.142  0.4654 -0.0991 -0.3147
 2840TIP3    H130011   3.392  -0.026   1.150  0.4827  0.0592  1.7141
 2840TIP3    H230012   3.276   0.070   1.133  0.3297 -0.2602  0.9375
 2841TIP3   OH230013   4.262   1.434   0.672  0.2674  0.2265  0.0931
 2841TIP3    H130014   4.257   1.520   0.713 -0.9160 -0.0054  0.4648
 2841TIP3    H230015   4.246   1.450   0.579 -0.1663  0.3915  0.1948
 2842TIP3   OH230016   1.672   5.097  11.617 -0.0190 -0.7073  0.2649
 2842TIP3    H130017   1.660   5.168  11.554 -0.8806 -0.7673  0.3493
 2842TIP3    H230018   1.677   5.140  11.702  0.9864 -0.6377  0.1784
 2843TIP3   OH230019   0.811   5.826   0.072 -0.5206  0.3633  0.5282
 2843TIP3    H130020   0.893   5.787   0.043  0.2353  1.7523  0.7555
 2843TIP3    H230021   0.793   5.784   0.156 -0.0366  0.0543  0.4810
 2844TIP3   OH230022   0.559   3.132   1.824  0.0196 -0.3582 -0.3793
 2844TIP3    H130023   0.599   3.188   1.890 -0.6675 -0.2800 -0.0206
 2844TIP3    H230024   0.551   3.046   1.866  0.3527 -0.5227 -0.6521
 2845TIP3   OH230025   6.017   4.984   4.933 -0.1699 -0.5687 -0.5390
 2845TIP3    H130026   6.066   5.044   4.990 -1.5669  0.2741 -0.1985
 2845TIP3    H230027   6.082   4.950   4.872  0.7818  0.7964 -0.3126
 2846TIP3   OH230028   0.424   0.574   5.677 -0.0191  0.2356 -0.4197
 2846TIP3    H130029   0.417   0.626   5.756  0.0986 -0.9007  0.3450
 2846TIP3    H230030   0.475   0.497   5.703 -2.5636 -1.6582 -0.8261
 2847TIP3   OH230031   3.711   3.311  15.146  1.0621  0.6253 -0.5137
 2847TIP3    H130032   3.731   3.397  15.109  0.8692  0.2990 -1.3860
 2847TIP3    H230033   3.775   3.300  15.216  0.2999  2.0105  0.4216
 2848TIP3   OH230034   2.388   1.673  16.062  0.1098 -0.2987 -0.8134
 2848TIP3    H130035   2.408   1.765  16.082 -1.5714  0.1135 -0.8901
 2848TIP3    H230036   2.328   1.647  16.131  3.3630 -2.5001  1.3100
 2849TIP3   OH230037   6.576   5.350  16.856  0.0530  0.4565  0.0497
 2849TIP3    H130038   6.587   5.354  16.951 -0.3305  1.1090  0.0714
 2849TIP3    H230039   6.631   5.420  16.822  0.7930 -0.2700 -0.2663
 2850TIP3   OH230040   5.681   0.362  12.713  0.5431 -0.6047  0.6225
 2850TIP3    H130041   5.587   0.348  12.726  0.4058 -0.8670 -0.5802
 2850TIP3    H230042   5.708   0.291  12.655  0.7462  1.4919 -1.9704
 2851TIP3   OH230043   3.002   0.786   6.234 -0.0325 -0.0990 -0.3453
 2851TIP3    H130044   2.974   0.873   6.206 -1.4142 -0.4788 -0.2256
 2851TIP3    H230045   2.985   0.784   6.329  0.8517 -0.1834 -0.1871
 2852TIP3   OH230046   1.337   5.297  15.956 -0.3427 -0.0274  0.6901
 2852TIP3    H130047   1.290   5.220  15.924 -0.7647  0.6317 -0.3084
 2852TIP3    H230048   1.336   5.358  15.882  1.3894  0.3136  0.9232
 2853TIP3   OH230049   6.382   2.419   1.778  0.3271  0.1658  0.4524
 2853TIP3    H130050   6.330   2.498   1.797 -2.7238 -1.3140 -1.3618
 2853TIP3    H230051   6.411   2.431   1.688 -0.3501 -0.8776  0.0913
 2854TIP3   OH230052   0.058   4.393   3.997 -0.7351 -0.4920 -0.2796
 2854TIP3    H130053  -0.003   4.463   4.021 -0.4489 -1.0914  2.3393
 2854TIP3    H230054   0.033   4.320   4.053  0.3298 -1.8124 -1.4881
 2855TIP3   OH230055   1.755   1.036  13.793 -0.4515 -0.1302 -0.1526
 2855TIP3    H130056   1.802   1.083  13.724 -2.7482  1.0216 -0.9647
 2855TIP3    H230057   1.820   0.976  13.829  1.3099  0.5893 -2.0376
 2856TIP3   OH230058   6.070   3.905  14.355  0.2233 -0.5384 -0.2637
 2856TIP3    H130059   5.980   3.885  14.381 -0.9623  1.2499 -2.7820
 2856TIP3    H230060   6.082   3.997  14.378  0.7810 -0.2739 -1.5823
 2857TIP3   OH230061   6.410   5.215  11.897 -1.0711 -0.1223  0.8430
 2857TIP3    H130062   6.331   5.220  11.843 -0.5217  1.4441  0.1452
 2857TIP3    H230063   6.411   5.297  11.946  1.1529  0.8106 -0.6718
 2858TIP3   OH230064   2.893   2.519  12.036  0.0958 -0.6460 -0.3920
 2858TIP3    H130065   2.882   2.553  11.947 -2.5351  3.2376  1.2772
 2858TIP3    H230066   2.955   2.579  12.077 -0.0208 -1.3686  0.8645
 2859TIP3   OH230067   4.260   3.821   5.586  0.5418  0.0024 -0.3453
 2859TIP3    H130068   4.355   3.817   5.589  0.5175 -0.3196  0.0430
 2859TIP3    H230069   4.232   3.729   5.577  0.3211  0.2125 -2.0868
 2860TIP3   OH230070   4.110   2.956   5.400  0.1280  0.3703  0.0537
 2860TIP3    H130071   4.147   2.971   5.487 -0.6017 -0.2287  0.4797
 2860TIP3    H230072   4.162   2.884   5.364 -0.6783 -0.5530  0.7003
 2861TIP3   OH230073   0.457   3.110  16.372  0.0316 -0.1883  0.5630
 2861TIP3    H130074   0.372   3.153  16.382  0.0234 -0.5672  2.3017
 2861TIP3    H230075   0.460   3.046  16.444  1.2588 -1.0573 -0.2404
 2862TIP3   OH230076   5.261   2.636  14.594 -0.1765 -0.3483 -0.4111
 2862TIP3    H130077   5.195   2.686  14.642 -1.6317 -1.0904 -1.6198
 2862TIP3    H230078   5.267   2.680  14.509 -0.3279 -1.2982 -0.9155
 2863TIP3   OH230079   5.318   3.627   5.494  0.0173 -0.5360 -0.0568
 2863TIP3    H130080   5.356   3.688   5.430 -0.1575 -0.8347 -0.4412
 2863TIP3    H230081   5.279   3.684   5.560 -0.5646 -0.2262 -0.6627
 2864TIP3   OH230082   2.408   3.295  16.233  0.2779 -0.0885  0.5940
 2864TIP3    H130083   2.451   3.217  16.198 -2.2667 -1.5436  0.5731
 2864TIP3    H230084   2.444   3.305  16.321 -1.0875 -2.7252  1.5036
 2865TIP3   OH230085   0.121   6.460  15.807 -0.1059  0.2151  0.2231
 2865TIP3    H130086   0.092   6.539  15.760 -0.8413  0.2995  0.8039
 2865TIP3    H230087   0.083   6.469  15.894 -0.1341 -0.7532  0.3163
 2866TIP3   OH230088   0.128   4.074  13.004 -0.0618 -0.0733  0.0580
 2866TIP3    H130089   0.084   4.123  13.074 -2.1678 -1.0648 -0.5292
 2866TIP3    H230090   0.156   3.993  13.046 -0.1872 -0.1079  0.0776
 2867TIP3   OH230091   1.285   3.688  16.938  0.5979  0.1427  0.6248
 2867TIP3    H130092   1.318   3.771  16.972  0.6536 -0.4865  2.1345
 2867TIP3    H230093   1.206   3.671  16.989  1.1180 -1.1980  1.0021
 2868TIP3   OH230094   2.064   4.915   4.237  0.2509 -0.2035 -0.0939
 2868TIP3    H130095   2.137   4.889   4.180  0.4593 -0.9418  0.4897
 2868TIP3    H230096   2.082   5.006   4.259  1.1084 -0.4311  0.1887
 2869TIP3   OH230097   2.293   3.429   1.914  0.1697  0.4338  0.8186
 2869TIP3    H130098   2.229   3.404   1.847 -0.5312  1.3160  1.1503
 2869TIP3    H230099   2.316   3.346   1.957 -0.7811  0.1167  0.7228
 2870TIP3   OH230100   1.342   0.431   3.976 -0.0623 -0.1687 -0.5429
 2870TIP3    H130101   1.378   0.345   3.997 -2.8592 -0.8979  1.3882
 2870TIP3    H230102   1.283   0.452   4.048 -0.2341  2.9325 -1.4837
 2871TIP3   OH230103   4.121   0.444  11.361 -0.5729  0.4106 -0.2144
 2871TIP3    H130104   4.127   0.447  11.265  0.3108  2.4707 -0.1394
 2871TIP3    H230105   4.207   0.476  11.390 -0.6990 -0.5814  1.2712
 2872TIP3   OH230106   6.610   4.055  14.233 -0.5909  0.6007  0.4156
 2872TIP3    H130107   6.667   4.010  14.171 -0.2491 -1.9383  2.4710
 2872TIP3    H230108   6.543   4.096  14.179  0.6456 -0.1130 -1.7313
 2873TIP3   OH230109   0.747   0.278  14.108 -0.5486  0.1434  0.3694
 2873TIP3    H130110   0.738   0.328  14.027 -0.0923  1.3321  1.0352
 2873TIP3    H230111   0.841   0.272  14.123 -0.6169 -0.4625  0.5702
 2874TIP3   OH230112   6.584   3.807   6.926 -0.1200  0.1715 -0.3584
 2874TIP3    H130113   6.671   3.831   6.895 -0.6145  1.2443 -0.9418
 2874TIP3    H230114   6.585   3.711   6.927  1.7548  0.1751  1.6881
 2875TIP3   OH230115   1.832   6.118   1.739 -0.3631 -0.6883 -0.7867
 2875TIP3    H130116   1.760   6.071   1.780 -2.9613  1.2034 -3.0756
 2875TIP3    H230117   1.844   6.076   1.654  1.2478 -0.9874 -0.4318
 2876TIP3   OH230118   4.646   5.778  13.419 -0.4643  0.0090  0.5078
 2876TIP3    H130119   4.618   5.727  13.343 -1.6652  1.2206  0.1280
 2876TIP3    H230120   4.725   5.823  13.390 -0.4978 -0.1116  0.2242
 2877TIP3   OH230121   2.743   2.523   5.389  0.1101 -0.2758 -0.1533
 2877TIP3    H130122   2.768   2.594   5.330  0.1158  0.8952  1.2425
 2877TIP3    H230123   2.824   2.502   5.437 -0.4458  0.3355  1.0546
 2878TIP3   OH230124   6.503   6.387  11.171 -0.2083  0.8094  0.0474
 2878TIP3    H130125   6.489   6.406  11.264  1.3443 -1.4812  0.7934
 2878TIP3    H230126   6.549   6.303  11.171  1.3284  1.6206 -2.7583
 2879TIP3   OH230127   3.578   2.946  17.280  0.6608 -1.1470 -0.3067
 2879TIP3    H130128   3.604   3.022  17.227 -1.2060  0.4617  1.0060
 2879TIP3    H230129   3.656   2.924  17.330  1.2039 -0.0025 -0.6324
 2880TIP3   OH230130   4.520   0.728   5.688  0.0051 -0.0373 -0.0662
 2880TIP3    H130131   4.472   0.687   5.616 -1.0379 -0.0805  0.6493
 2880TIP3    H230132   4.550   0.655   5.742  0.3522  0.0214 -0.1752
 2881TIP3   OH230133   0.905   4.358   0.147  0.5541 -0.0239  0.1460
 2881TIP3    H130134   0.848   4.317   0.082  0.8290  0.2647 -0.2820
 2881TIP3    H230135   0.942   4.285   0.196 -1.0276 -0.1572  1.1431
 2882TIP3   OH230136   5.416   2.558  11.211  0.4307 -0.5533 -0.6377
 2882TIP3    H130137   5.339   2.584  11.262 -0.3798 -2.6110 -0.7491
 2882TIP3    H230138   5.490   2.578  11.268 -0.3876 -1.5537  0.8478
 2883TIP3   OH230139   1.067   3.470   3.491 -0.3077 -0.2713 -0.1350
 2883TIP3    H130140   1.150   3.493   3.449  0.6649 -0.7016  1.4867
 2883TIP3    H230141   1.083   3.483   3.584 -1.5685 -1.8652  0.3363
 2884TIP3   OH230142   3.472   5.824   0.940 -0.0087  0.9767  0.0422
 2884TIP3    H130143   3.531   5.757   0.974  0.3375  0.8170 -0.8605
 2884TIP3    H230144   3.390   5.810   0.988  0.2112  0.2192  0.1987
 2885TIP3   OH230145   4.695   1.953   4.400 -0.1589 -0.3767  0.4132
 2885TIP3    H130146   4.714   1.963   4.493  1.9133 -1.6331  0.1654
 2885TIP3    H230147   4.651   1.868   4.394 -2.5123  0.7827  0.5003
 2886TIP3   OH230148   6.100   4.470  15.595  0.0556 -0.3010  0.5937
 2886TIP3    H130149   6.050   4.548  15.570  1.4930 -0.0822 -1.8038
 2886TIP3    H230150   6.178   4.505  15.638  0.6068 -0.3776 -0.3092
 2887TIP3   OH230151   5.326   5.543   5.436 -0.0746  0.1291 -0.0123
 2887TIP3    H130152   5.373   5.625   5.418  1.3304 -0.8254 -0.7592
 2887TIP3    H230153   5.392   5.475   5.424 -1.6816 -1.2491 -1.1021
 2888TIP3   OH230154   0.002   5.325   2.379 -0.2250 -0.0551  0.0413
 2888TIP3    H130155   0.036   5.253   2.432 -0.4399  1.3817  2.2178
 2888TIP3    H230156  -0.070   5.286   2.330  0.7453 -1.7166 -0.0924
 2889TIP3   OH230157   4.294   1.414   3.894  0.4626  0.3313 -0.8155
 2889TIP3    H130158   4.354   1.479   3.931  0.6649  0.5962 -1.6171
 2889TIP3    H230159   4.346   1.333   3.892 -0.2834 -0.2680  1.6764
 2890TIP3   OH230160   6.472   0.363   1.971 -0.0229  0.2311  0.0477
 2890TIP3    H130161   6.392   0.322   2.002  1.4931 -0.9989  2.5400
 2890TIP3    H230162   6.533   0.291   1.960  0.8995  1.2023 -1.3016
 2891TIP3   OH230163   2.921   1.411  13.809  0.2324  0.3852  0.0823
 2891TIP3    H130164   2.971   1.486  13.778  1.0349  0.4826  1.5373
 2891TIP3    H230165   2.976   1.373  13.878 -0.5414 -1.0419 -0.0734
 2892TIP3   OH230166   3.505   2.305   3.416  0.1957  0.3087 -0.0663
 2892TIP3    H130167   3.476   2.345   3.334  0.0854 -1.6947 -1.0200
 2892TIP3    H230168   3.548   2.224   3.389  1.1172  0.1665  1.7884
 2893TIP3   OH230169   4.822   4.107   0.942 -0.2388 -0.1149 -0.3377
 2893TIP3    H130170   4.732   4.091   0.968 -0.2622 -3.2486 -2.0302
 2893TIP3    H230171   4.818   4.181   0.882 -1.6401  0.0051 -0.1038
 2894TIP3   OH230172   6.088   4.808   3.608  0.0476 -0.5690 -0.0869
 2894TIP3    H130173   6.038   4.849   3.537 -0.4959 -0.6469  0.2485
 2894TIP3    H230174   6.123   4.881   3.659  0.4249 -0.5118 -0.4222
 2895TIP3   OH230175   1.630   0.323  10.581  1.1001  0.3749  0.3999
 2895TIP3    H130176   1.682   0.374  10.643  1.6220 -0.5557  0.7396
 2895TIP3    H230177   1.694   0.284  10.522  0.6718  0.4702 -0.1335
 2896TIP3   OH230178   1.728   6.652  11.717  0.0207  0.1445  0.4183
 2896TIP3    H130179   1.793   6.696  11.663 -2.3111 -0.7178 -3.2476
 2896TIP3    H230180   1.774   6.576  11.752  1.6661  0.8749 -0.1038
 2897TIP3   OH230181   1.352   6.138  16.152  0.7908 -0.6285  0.0634
 2897TIP3    H130182   1.371   6.089  16.072  0.9515 -0.4498 -0.0097
 2897TIP3    H230183   1.406   6.097  16.219  1.4673 -0.0916 -0.1539
 2898TIP3   OH230184   5.343   2.088   1.283  0.4454 -0.3621 -0.0317
 2898TIP3    H130185   5.325   2.177   1.251  0.3196 -0.7583 -1.0774
 2898TIP3    H230186   5.281   2.075   1.355  0.4160  0.3675  0.0780
 2899TIP3   OH230187   6.558   1.078  11.475 -0.4047 -0.4102  0.9347
 2899TIP3    H130188   6.649   1.078  11.505  0.2575 -0.5106 -1.0465
 2899TIP3    H230189   6.510   1.122  11.546  1.3813  0.9165  1.3582
 2900TIP3   OH230190   0.181   6.083  16.815 -1.0058  0.7445 -0.0124
 2900TIP3    H130191   0.222   6.145  16.754  0.1134  1.4942  1.4832
 2900TIP3    H230192   0.228   6.095  16.897  0.0492 -2.9010  0.0180
 2901TIP3   OH230193   2.340   3.597   3.584  0.0338 -0.0837 -0.3746
 2901TIP3    H130194   2.343   3.597   3.488 -0.5398  0.1981 -0.3981
 2901TIP3    H230195   2.429   3.617   3.611 -0.3355  2.4877 -0.8851
 2902TIP3   OH230196   2.840   5.983  14.879 -0.2963 -0.5749  0.5399
 2902TIP3    H130197   2.819   5.933  14.958 -1.8177  0.1513  0.6155
 2902TIP3    H230198   2.838   5.918  14.808 -1.7794 -0.7397  0.7062
 2903TIP3   OH230199   0.800   2.184   2.680  0.5107 -0.7648  0.2631
 2903TIP3    H130200   0.893   2.203   2.667  1.1018 -3.5666  0.1015
 2903TIP3    H230201   0.774   2.136   2.601 -1.2135  0.3090  0.1212
 2904TIP3   OH230202   4.261   4.333   1.144  0.0678 -0.2532  0.1177
 2904TIP3    H130203   4.340   4.314   1.194  0.5718 -1.4357 -1.0927
 2904TIP3    H230204   4.215   4.249   1.138 -0.2581 -0.0159 -0.9106
 2905TIP3   OH230205   5.596   3.587   5.554  0.4253  0.4962 -0.5341
 2905TIP3    H130206   5.633   3.675   5.556 -0.4828  0.8962 -1.1110
 2905TIP3    H230207   5.502   3.600   5.543  0.3858 -0.5595 -1.5934
 2906TIP3   OH230208   5.449   2.351   6.133 -0.5605 -0.3501 -0.0161
 2906TIP3    H130209   5.383   2.348   6.203 -0.9872 -0.6313 -0.4255
 2906TIP3    H230210   5.506   2.424   6.157 -0.0485 -1.1327  1.2092
 2907TIP3   OH230211   2.352   4.734   1.533 -0.8187 -0.1117  0.3956
 2907TIP3    H130212   2.280   4.717   1.472 -2.0480  0.0111  1.7773
 2907TIP3    H230213   2.334   4.678   1.608 -0.7904  1.6948  1.7819
 2908TIP3   OH230214   4.657   6.441   1.905 -0.4182 -0.1213 -0.3820
 2908TIP3    H130215   4.706   6.409   1.980 -0.9486  1.3249  0.6064
 2908TIP3    H230216   4.625   6.362   1.861  1.0626 -1.0082  0.1095
 2909TIP3   OH230217   5.190   4.339  17.062 -0.4726  0.0279  0.2764
 2909TIP3    H130218   5.108   4.382  17.084 -1.6012 -0.8041 -2.1238
 2909TIP3    H230219   5.164   4.260  17.016  1.6676 -0.1513 -0.6732
 2910TIP3   OH230220   4.635   2.830   2.432  0.2571 -0.0600  0.5196
 2910TIP3    H130221   4.608   2.785   2.511  0.3388  0.4605  0.8452
 2910TIP3    H230222   4.569   2.806   2.367  1.4482 -2.3463  0.0998
 2911TIP3   OH230223   4.959   1.294  14.803  0.3754  0.2286  0.3543
 2911TIP3    H130224   5.021   1.367  14.810  0.2382  0.2443  1.6545
 2911TIP3    H230225   4.877   1.335  14.776  0.2669  0.5902  1.2065
 2912TIP3   OH230226   5.253   5.479   2.753  0.0937  0.4583  0.2944
 2912TIP3    H130227   5.217   5.395   2.783 -0.4605  0.7649  0.4988
 2912TIP3    H230228   5.347   5.470   2.763  0.1839 -0.8747 -1.5719
 2913TIP3   OH230229   0.380   2.854   2.672  0.6326  0.2699  0.1289
 2913TIP3    H130230   0.303   2.863   2.729 -0.4636  1.5610 -1.5212
 2913TIP3    H230231   0.427   2.778   2.708 -1.9548 -1.2131  0.5474
 2914TIP3   OH230232   5.645   6.091   0.386  0.6946  0.2092  0.1181
 2914TIP3    H130233   5.674   6.103   0.477 -0.5038  0.1886  0.5144
 2914TIP3    H230234   5.673   6.171   0.342  0.2347  0.7499  0.7854
 2915TIP3   OH230235   1.042   2.369   4.326  0.4377  0.3628 -0.2585
 2915TIP3    H130236   1.031   2.275   4.319  1.0419  0.1085  1.8779
 2915TIP3    H230237   1.130   2.381   4.362  0.3853  1.7495 -0.5431
 2916TIP3   OH230238   3.121   3.207   0.472  0.4452 -0.0307 -0.2889
 2916TIP3    H130239   3.199   3.246   0.511 -0.7374  1.9300  0.1811
 2916TIP3    H230240   3.119   3.118   0.507  1.7917  0.2931  0.6612
 2917TIP3   OH230241   6.595   4.988   5.377 -0.8712 -0.4357 -0.0614
 2917TIP3    H130242   6.663   4.944   5.428  0.6201  2.1462  0.2979
 2917TIP3    H230243   6.515   4.978   5.429 -0.0679 -0.7097  1.1284
 2918TIP3   OH230244   4.124   1.042  11.040  0.1792  0.0125 -0.2639
 2918TIP3    H130245   4.161   1.013  11.124  0.2970  1.6213  0.2591
 2918TIP3    H230246   4.085   1.127  11.060  0.2081  0.4060 -1.8544
 2919TIP3   OH230247   2.668   0.715  15.022  0.3562 -0.6228 -0.5147
 2919TIP3    H130248   2.667   0.758  15.107 -0.4721 -0.0346 -0.8140
 2919TIP3    H230249   2.646   0.624  15.040  0.8044 -0.6363 -0.0311
 2920TIP3   OH230250   6.395   2.190   2.482 -0.3890 -0.6963  0.4730
 2920TIP3    H130251   6.373   2.242   2.404 -0.5910 -0.1770  0.8750
 2920TIP3    H230252   6.310   2.161   2.516 -0.3932  0.4024  1.4068
 2921TIP3   OH230253   4.328   2.544   4.182  0.7205  0.2092 -0.0601
 2921TIP3    H130254   4.260   2.551   4.249 -0.3137 -0.9348 -0.9628
 2921TIP3    H230255   4.386   2.619   4.198  0.8583 -0.4130  2.4995
 2922TIP3   OH230256   4.006   0.830  10.904  0.4194 -0.8238  0.1888
 2922TIP3    H130257   4.049   0.873  10.977  1.4388 -0.0158 -0.8799
 2922TIP3    H230258   3.917   0.866  10.903  1.1620  1.0114 -0.4973
 2923TIP3   OH230259   1.723   1.599   1.242  0.0666 -0.3008 -0.5204
 2923TIP3    H130260   1.804   1.568   1.282  1.4516  0.6078 -2.5390
 2923TIP3    H230261   1.749   1.675   1.190 -2.4107  1.2077  0.3258
 2924TIP3   OH230262   3.266   2.098  13.565 -0.2229 -0.1926 -0.5380
 2924TIP3    H130263   3.298   2.030  13.506 -0.4705 -1.0768  0.3438
 2924TIP3    H230264   3.201   2.146  13.513 -1.8022 -2.1281 -0.4025
 2925TIP3   OH230265   3.002   4.412  13.265 -0.2821 -0.2675  0.3115
 2925TIP3    H130266   2.948   4.420  13.344 -0.6585  0.5574 -0.0182
 2925TIP3    H230267   3.009   4.318  13.250 -0.0366 -0.4323  1.4449
 2926TIP3   OH230268   2.820   0.958   2.361  1.1499  0.1302 -0.5917
 2926TIP3    H130269   2.840   0.888   2.299  0.7412 -1.0384  0.5444
 2926TIP3    H230270   2.736   0.931   2.400  1.0193  1.2269 -0.1078
 2927TIP3   OH230271   3.327   2.279   0.647 -0.4157 -0.1957  0.8423
 2927TIP3    H130272   3.245   2.289   0.695 -0.4236  1.5262  0.4928
 2927TIP3    H230273   3.378   2.218   0.700 -0.6639  1.2201  2.7710
 2928TIP3   OH230274   0.881   4.871  12.709  0.5223 -0.6673 -0.6327
 2928TIP3    H130275   0.949   4.849  12.772  1.0331  0.3566 -0.8228
 2928TIP3    H230276   0.806   4.896  12.763  1.2168  1.0149 -0.4029
 2929TIP3   OH230277   2.118   5.715   3.876 -0.3328 -0.1881 -0.0373
 2929TIP3    H130278   2.192   5.655   3.869 -0.0848 -0.2208  2.4258
 2929TIP3    H230279   2.051   5.665   3.922 -1.0685  0.5834 -0.2475
 2930TIP3   OH230280   0.664   2.491  12.069  0.2054 -0.2816 -0.2050
 2930TIP3    H130281   0.730   2.473  12.137  0.3338 -0.5571 -0.3989
 2930TIP3    H230282   0.707   2.465  11.987 -0.0676 -0.2516 -0.3558
 2931TIP3   OH230283   4.608   1.710  16.610 -0.0697 -0.1435 -0.9611
 2931TIP3    H130284   4.654   1.766  16.547 -0.8846  1.3185 -0.2793
 2931TIP3    H230285   4.676   1.684  16.672  0.1391  0.8871 -0.7383
 2932TIP3   OH230286   0.083   1.654   0.224  0.2698 -0.4595 -0.0684
 2932TIP3    H130287   0.168   1.696   0.212  1.0349 -1.7976  0.5264
 2932TIP3    H230288   0.044   1.699   0.300  0.5307  0.0197 -0.2165
 2933TIP3   OH230289   0.482   0.961  13.475 -0.4611 -0.0533  0.5572
 2933TIP3    H130290   0.445   1.048  13.480  0.0982  0.1164  1.8694
 2933TIP3    H230291   0.412   0.906  13.440 -1.0601  0.7666  0.4759
 2934TIP3   OH230292   3.930   2.597   4.439 -0.1047 -0.0492 -0.2621
 2934TIP3    H130293   3.847   2.609   4.485  0.6233  2.5646  0.4548
 2934TIP3    H230294   3.996   2.636   4.497  1.3535 -0.1997 -1.7675
 2935TIP3   OH230295   3.757   0.071  15.443  0.5571  0.4153 -0.3823
 2935TIP3    H130296   3.848   0.042  15.448  0.7228  0.7753 -1.1858
 2935TIP3    H230297   3.754   0.148  15.500  0.9294  0.8178 -0.8970
 2936TIP3   OH230298   0.546   2.430  12.527 -0.1758 -0.1869 -0.7442
 2936TIP3    H130299   0.639   2.442  12.548  0.1607 -0.0193 -2.2805
 2936TIP3    H230300   0.529   2.491  12.456 -1.6340  0.2284 -0.0525
 2937TIP3   OH230301   5.595   5.086  15.797 -0.5375  0.0704  0.3280
 2937TIP3    H130302   5.655   5.113  15.728  1.2361  1.2668  2.2832
 2937TIP3    H230303   5.635   5.008  15.835 -0.6577  0.3736  1.0833
 2938TIP3   OH230304   2.273   5.915  16.554 -0.5772  0.1366  0.4764
 2938TIP3    H130305   2.190   5.915  16.602 -0.7923  0.9105  0.1091
 2938TIP3    H230306   2.287   5.824  16.529 -1.7612  0.1489 -0.2304
 2939TIP3   OH230307   3.292   2.015   5.101  0.1996 -0.3384 -0.2923
 2939TIP3    H130308   3.289   1.955   5.027  0.3297  0.6763 -1.1215
 2939TIP3    H230309   3.359   1.978   5.159 -0.1716 -1.3374 -0.4866
 2940TIP3   OH230310   4.468   2.479  11.439 -0.3782  0.1324 -0.1983
 2940TIP3    H130311   4.393   2.428  11.468 -1.5192  1.9942  0.2605
 2940TIP3    H230312   4.484   2.450  11.349  0.0539 -2.1583  0.5818
 2941TIP3   OH230313   3.735   4.266   2.035 -0.6315  0.5312 -0.7727
 2941TIP3    H130314   3.777   4.242   1.953 -0.2483 -1.7012  0.0290
 2941TIP3    H230315   3.801   4.316   2.083 -0.7670  1.6070 -1.6831
 2942TIP3   OH230316   4.990   4.890   1.827  0.0886 -0.3388 -0.4992
 2942TIP3    H130317   4.977   4.853   1.739 -0.7814 -1.0968 -0.0521
 2942TIP3    H230318   4.927   4.844   1.882  0.9345 -0.1763  0.6182
 2943TIP3   OH230319   1.365   6.587   1.552 -0.6710  0.6856 -0.0631
 2943TIP3    H130320   1.429   6.602   1.622  0.7353 -0.2428 -1.1270
 2943TIP3    H230321   1.330   6.500   1.571  0.0877  0.2178 -0.8029
 2944TIP3   OH230322   1.531   4.831   6.431 -0.4273 -0.6726 -0.0022
 2944TIP3    H130323   1.495   4.919   6.437  0.0332 -0.5387  0.8562
 2944TIP3    H230324   1.610   4.842   6.377  0.6230 -0.2400  1.5996
 2945TIP3   OH230325   0.769   0.963   0.914 -0.7200  0.4245  0.3871
 2945TIP3    H130326   0.768   0.879   0.868 -0.6930 -0.1297  1.3944
 2945TIP3    H230327   0.718   0.948   0.993  0.0075  1.1085  0.9990
 2946TIP3   OH230328   6.666   1.527   3.903 -0.0013 -0.4246  0.6474
 2946TIP3    H130329   6.643   1.434   3.901 -0.4132 -0.2938 -0.7752
 2946TIP3    H230330   6.595   1.571   3.856  0.9324  0.4419  0.0278
 2947TIP3   OH230331   1.545   4.787   6.073 -0.3212 -0.0274 -0.1153
 2947TIP3    H130332   1.635   4.759   6.093  0.0396  1.2532  0.0939
 2947TIP3    H230333   1.536   4.773   5.978 -0.1045 -0.7122 -0.0381
 2948TIP3   OH230334   2.522   0.962  12.220  0.2678  0.1020 -0.3438
 2948TIP3    H130335   2.471   0.884  12.198 -0.3739  0.3746  0.1836
 2948TIP3    H230336   2.575   0.978  12.141 -0.4141 -0.2042 -0.8710
 2949TIP3   OH230337   4.846   3.024  12.804 -0.0405 -0.6143  0.2502
 2949TIP3    H130338   4.878   3.098  12.856  0.0468 -0.2960 -0.2504
 2949TIP3    H230339   4.880   2.947  12.849  1.3224 -0.2943 -0.2044
 2950TIP3   OH230340   4.385   0.848   1.069 -0.3275  0.5142  0.1868
 2950TIP3    H130341   4.396   0.763   1.027 -1.8601  0.2912  0.1981
 2950TIP3    H230342   4.448   0.847   1.142 -0.8230 -0.8995  0.6168
 2951TIP3   OH230343   1.188   1.651   5.683 -0.2131 -0.0186  0.1161
 2951TIP3    H130344   1.172   1.743   5.699  0.1114  0.5443 -2.5062
 2951TIP3    H230345   1.110   1.606   5.716 -0.9146  1.2976  0.2755
 2952TIP3   OH230346   2.482   6.128  17.034  0.1667 -0.3281 -0.7158
 2952TIP3    H130347   2.549   6.084  17.084  0.8660  1.9887  0.4631
 2952TIP3    H230348   2.529   6.165  16.959  0.2880  1.4922  0.2343
 2953TIP3   OH230349   4.863   4.059   5.323 -0.3020  0.0075  0.5071
 2953TIP3    H130350   4.791   4.119   5.307 -0.1252 -0.0819 -0.7090
 2953TIP3    H230351   4.938   4.098   5.277  0.5880  0.4126  2.2488
 2954TIP3   OH230352   3.366   5.713  14.364  0.1218  0.5402 -0.0324
 2954TIP3    H130353   3.360   5.795  14.313  0.6393  0.5082 -0.1427
 2954TIP3    H230354   3.459   5.705  14.385 -0.1422  0.7265  1.2098
 2955TIP3   OH230355   5.081   2.148   6.036  0.1305 -0.4790 -0.0109
 2955TIP3    H130356   4.985   2.142   6.028 -0.0227 -0.2552  1.5014
 2955TIP3    H230357   5.100   2.108   6.121  1.2444  0.6809  0.2984
 2956TIP3   OH230358   4.257   0.436  14.286 -0.2188  0.3838 -0.2586
 2956TIP3    H130359   4.351   0.417  14.283 -0.4853 -0.8659 -0.9018
 2956TIP3    H230360   4.235   0.427  14.379 -0.1224 -1.4423 -0.3974
 2957TIP3   OH230361   2.490   0.212  12.119  0.5921  0.8198  0.3826
 2957TIP3    H130362   2.426   0.242  12.054  0.2148  0.8439  0.7647
 2957TIP3    H230363   2.502   0.119  12.099  0.8356  0.9345 -0.0214
 2958TIP3   OH230364   3.018   5.733  16.803 -0.0488 -0.0430 -0.0938
 2958TIP3    H130365   2.967   5.680  16.742 -0.6308  0.0443  0.3049
 2958TIP3    H230366   3.001   5.824  16.777  0.6254 -0.0394 -0.5269
 2959TIP3   OH230367   4.832   1.431   3.248  0.2270 -0.1503  0.1640
 2959TIP3    H130368   4.877   1.515   3.245 -0.3567  0.1289 -1.3651
 2959TIP3    H230369   4.899   1.367   3.222  0.7748 -0.2320  1.6992
 2960TIP3   OH230370   0.784   2.216   3.137 -0.2067 -0.1817 -0.3436
 2960TIP3    H130371   0.717   2.228   3.205  2.0019  1.4730  1.6013
 2960TIP3    H230372   0.754   2.272   3.065 -2.7007 -2.1522 -0.9126
 2961TIP3   OH230373   5.010   2.629   0.394 -0.0566 -0.0263 -0.6660
 2961TIP3    H130374   4.999   2.542   0.433 -1.0620 -0.2686 -1.4861
 2961TIP3    H230375   4.952   2.685   0.445  0.7113  0.2047 -0.0347
 2962TIP3   OH230376   6.344   4.980  13.638  0.7078  0.1578 -0.0202
 2962TIP3    H130377   6.318   4.950  13.551  0.7430 -1.0962  0.3925
 2962TIP3    H230378   6.421   4.926  13.660  1.4505  1.3133  0.2775
 2963TIP3   OH230379   1.453   0.998   4.686  0.1899 -0.3102 -0.0079
 2963TIP3    H130380   1.415   1.056   4.753  1.8736  1.5609 -0.6352
 2963TIP3    H230381   1.544   0.987   4.713  0.5957 -0.4364 -1.4089
 2964TIP3   OH230382   5.053   1.081   1.333  0.0634  0.4106  0.2028
 2964TIP3    H130383   5.051   1.010   1.397 -0.4209 -0.9704 -1.3056
 2964TIP3    H230384   5.051   1.161   1.385 -1.1710 -0.6890  1.8918
 2965TIP3   OH230385   4.285   2.371   4.407  0.0261 -0.3542 -0.5798
 2965TIP3    H130386   4.293   2.369   4.312  0.5618  0.8404 -0.5694
 2965TIP3    H230387   4.373   2.390   4.439 -0.6514  1.8743  0.0303
 2966TIP3   OH230388   0.992   3.616   4.704  0.2530 -0.5498  0.1972
 2966TIP3    H130389   0.986   3.684   4.636  0.9518 -0.6040  0.0840
 2966TIP3    H230390   0.989   3.534   4.656  2.0915 -0.5783  0.1243
 2967TIP3   OH230391   4.191   2.460  15.733  0.4993 -0.7914 -0.3524
 2967TIP3    H130392   4.203   2.465  15.638 -1.6123 -0.1189 -0.6177
 2967TIP3    H230393   4.152   2.544  15.757  3.0763 -0.0501  1.4756
 2968TIP3   OH230394   3.634   0.641  12.982 -0.2289  0.2539 -0.2841
 2968TIP3    H130395   3.629   0.701  12.907 -0.3544  0.9725  0.2969
 2968TIP3    H230396   3.728   0.632  12.998 -0.2215  0.5708 -0.1503
 2969TIP3   OH230397   2.667   1.416   2.623 -0.2399  0.1814  0.0478
 2969TIP3    H130398   2.664   1.458   2.537 -0.4053 -0.8304 -0.4499
 2969TIP3    H230399   2.664   1.322   2.604 -0.6582 -0.0447  1.1764
 2970TIP3   OH230400   3.609   2.404   2.897  0.5226 -0.2378  0.2593
 2970TIP3    H130401   3.661   2.414   2.976 -0.3393  0.3847  0.7670
 2970TIP3    H230402   3.672   2.404   2.825  1.0572  3.3815  0.6379
 2971TIP3   OH230403   1.876   3.122   0.124  0.2573 -0.0270  0.2680
 2971TIP3    H130404   1.802   3.165   0.080  1.6707  1.0627 -1.1200
 2971TIP3    H230405   1.906   3.186   0.188 -0.8821 -1.0458  1.8686
 2972TIP3   OH230406   0.636   6.623  16.485 -0.2278  1.0178 -0.0505
 2972TIP3    H130407   0.674   6.540  16.515  0.9569  2.2061  1.8318
 2972TIP3    H230408   0.681   6.690  16.537 -0.7662  2.8889 -1.9527
 2973TIP3   OH230409   6.290   4.832   2.713 -0.2629 -0.2970  0.5818
 2973TIP3    H130410   6.275   4.798   2.802  3.2955 -1.4652  0.8284
 2973TIP3    H230411   6.344   4.765   2.671 -1.5813  0.4374 -2.3618
 2974TIP3   OH230412   4.599   1.078  14.274 -0.0403 -0.8021 -0.0438
 2974TIP3    H130413   4.572   1.158  14.228  1.0379 -1.2002 -1.4131
 2974TIP3    H230414   4.524   1.020  14.267 -0.7565  0.0070  0.7716
 2975TIP3   OH230415   1.196   4.373  15.482 -0.2455 -0.5068 -0.4692
 2975TIP3    H130416   1.210   4.464  15.457  1.0095 -1.0140 -1.6626
 2975TIP3    H230417   1.146   4.378  15.563 -2.4345  1.2207 -1.8526
 2976TIP3   OH230418   6.685   6.256   3.324  0.1025 -0.0145  0.4201
 2976TIP3    H130419   6.730   6.270   3.241  2.2097 -1.0230  1.3528
 2976TIP3    H230420   6.750   6.213   3.380 -1.5107 -0.0353  2.3498
 2977TIP3   OH230421   3.282   6.345  17.255  0.2079  0.4236  0.1545
 2977TIP3    H130422   3.368   6.382  17.237  1.4931 -2.3946  0.2052
 2977TIP3    H230423   3.241   6.335  17.169  0.9733 -0.5774 -0.1057
 2978TIP3   OH230424   2.923   1.236   5.578  0.1418  0.6843 -0.6019
 2978TIP3    H130425   2.918   1.192   5.493  0.6396  0.6981 -0.6407
 2978TIP3    H230426   2.955   1.324   5.557  1.0875  0.4177 -0.3161
 2979TIP3   OH230427   2.556   1.512   3.781 -0.2156  0.9713  0.3165
 2979TIP3    H130428   2.632   1.460   3.757 -0.3434  1.1714 -0.5249
 2979TIP3    H230429   2.574   1.600   3.747 -1.1480  0.8381 -0.5686
 2980TIP3   OH230430   2.216   0.190   4.605  0.3062  0.4611  0.0894
 2980TIP3    H130431   2.210   0.171   4.699  1.1125 -2.1829 -0.3308
 2980TIP3    H230432   2.180   0.278   4.596 -1.1325  0.2093  2.6715
 2981TIP3   OH230433   4.345   3.147  15.143  0.1308 -0.6249  0.1645
 2981TIP3    H130434   4.395   3.225  15.166  0.8419 -0.7541 -0.9233
 2981TIP3    H230435   4.393   3.107  15.071 -1.8433 -0.4370 -1.3015
 2982TIP3   OH230436   3.939   2.282  16.556  0.1548 -0.0049 -0.2772
 2982TIP3    H130437   3.870   2.327  16.604 -1.6882 -0.4958 -2.3630
 2982TIP3    H230438   4.010   2.347  16.549 -1.1711  1.4577 -0.4252
 2983TIP3   OH230439   5.966   6.126  13.927 -0.5880 -0.1280 -0.0546
 2983TIP3    H130440   6.051   6.106  13.889 -1.1748 -1.6441 -0.6169
 2983TIP3    H230441   5.979   6.209  13.974  0.7898  0.4430 -1.4138
 2984TIP3   OH230442   5.027   4.896   4.950  0.6646 -0.1739 -0.1630
 2984TIP3    H130443   5.021   4.967   5.014 -1.2856 -0.3526 -0.1302
 2984TIP3    H230444   4.990   4.820   4.996  1.4642 -0.8813 -0.6795
 2985TIP3   OH230445   5.923   3.168  13.510 -0.1705 -0.1546 -0.3577
 2985TIP3    H130446   5.831   3.172  13.534 -0.2608  0.2998 -0.7629
 2985TIP3    H230447   5.925   3.107  13.436 -0.1736 -0.0110 -0.4761
 2986TIP3   OH230448   3.877   4.359   0.254  0.1010  0.3317 -0.1443
 2986TIP3    H130449   3.918   4.332   0.171 -1.3423 -4.0282  0.4319
 2986TIP3    H230450   3.951   4.382   0.311  1.3289 -0.3292 -1.4368
 2987TIP3   OH230451   5.035   0.021   4.677  0.0555  0.0082  0.4681
 2987TIP3    H130452   5.035  -0.071   4.650  0.0490 -0.6679  2.6479
 2987TIP3    H230453   4.944   0.040   4.700 -0.3836  1.2640 -2.1143
 2988TIP3   OH230454   3.871   4.431   6.456  0.6062 -0.3896  0.1525
 2988TIP3    H130455   3.944   4.486   6.427 -0.7024  1.4281  0.1885
 2988TIP3    H230456   3.826   4.407   6.376  1.3649 -1.7010  0.1127
 2989TIP3   OH230457   3.000   2.285   1.285  0.2839  0.0414  0.4427
 2989TIP3    H130458   2.919   2.332   1.301  0.1476 -0.4679  1.2663
 2989TIP3    H230459   3.069   2.351   1.290 -0.2396  0.8521 -2.2669
 2990TIP3   OH230460   1.862   4.004  15.641  0.0681 -0.1489 -0.1302
 2990TIP3    H130461   1.847   4.074  15.705  1.8832  0.2071 -0.0470
 2990TIP3    H230462   1.838   4.043  15.557 -0.9529 -0.1348  0.1704
 2991TIP3   OH230463   4.274   1.627   1.649 -0.0514 -0.1395  0.4206
 2991TIP3    H130464   4.282   1.563   1.720  0.4284  1.1463  1.5278
 2991TIP3    H230465   4.364   1.649   1.626 -0.1798 -1.1728 -1.1870
 2992TIP3   OH230466   1.599   1.018   6.483  0.1627  0.2191  0.5659
 2992TIP3    H130467   1.689   0.994   6.507  0.4027 -1.3600 -1.7192
 2992TIP3    H230468   1.590   1.109   6.511  2.7996  0.6945  0.0077
 2993TIP3   OH230469   4.210   1.731  13.122 -0.3601 -0.5604  0.0933
 2993TIP3    H130470   4.237   1.647  13.084  1.1444  0.1812 -0.4913
 2993TIP3    H230471   4.218   1.717  13.217  0.5202 -0.8754 -0.0202
 2994TIP3   OH230472   6.107   5.833   4.642 -0.2046 -0.0297 -0.3328
 2994TIP3    H130473   6.195   5.811   4.611  0.9064  0.9755  1.9815
 2994TIP3    H230474   6.066   5.749   4.661  1.0354 -0.4464  0.5803
 2995TIP3   OH230475   2.877   2.644  15.341  0.0384 -0.2624 -0.1434
 2995TIP3    H130476   2.797   2.659  15.391  0.4024 -1.1967  0.7382
 2995TIP3    H230477   2.891   2.725  15.292 -1.3473 -0.0295 -0.1713
 2996TIP3   OH230478   3.417   1.121   6.029  0.2756  0.3029 -0.4680
 2996TIP3    H130479   3.427   1.200   6.083  0.4187  0.4288 -0.6730
 2996TIP3    H230480   3.499   1.117   5.980 -0.0751  0.4921 -1.0701
 2997TIP3   OH230481   1.137   3.703  16.270 -0.6265 -0.5025  0.6373
 2997TIP3    H130482   1.123   3.690  16.364  0.4146 -1.1643  0.7013
 2997TIP3    H230483   1.172   3.620  16.239  0.5921  0.2412 -0.0225
 2998TIP3   OH230484   1.622   4.103  14.007  0.4665 -0.0363 -0.1303
 2998TIP3    H130485   1.634   4.197  14.021  0.4111 -0.2463  1.5275
 2998TIP3    H230486   1.710   4.068  14.000  0.4599  0.3329 -2.3094
 2999TIP3   OH230487   1.889   0.585   4.599 -0.2163  0.1154 -0.1798
 2999TIP3    H130488   1.863   0.587   4.691  0.1933 -1.6239 -0.0089
 2999TIP3    H230489   1.815   0.544   4.554 -0.2584  0.6175 -0.5719
 3000TIP3   OH230490   0.636   4.558  12.920  0.6365 -0.0664  0.0025
 3000TIP3    H130491   0.598   4.570  12.833  1.3519 -0.3740 -0.3582
 3000TIP3    H230492   0.729   4.572  12.908  0.6520  0.6275  0.8685
 3001TIP3   OH230493   4.693   2.013  11.804 -0.6131 -0.2761  0.5677
 3001TIP3    H130494   4.639   2.049  11.733  0.6572  0.0682 -0.2342
 3001TIP3    H230495   4.719   1.926  11.772  0.1904 -0.0066  0.4919
 3002TIP3   OH230496   4.314   1.657  14.754 -0.1784  0.4139 -0.2645
 3002TIP3    H130497   4.227   1.643  14.793 -0.1173 -1.2344 -0.6517
 3002TIP3    H230498   4.323   1.752  14.747 -1.3075  0.6475  1.2218
 3003TIP3   OH230499   0.077   1.338   3.037 -0.1016 -0.0711 -0.6988
 3003TIP3    H130500   0.067   1.255   2.990 -0.1761 -0.4692  0.0210
 3003TIP3    H230501   0.166   1.335   3.071 -0.7091 -0.6809  0.8969
 3004TIP3   OH230502   4.279   1.021  16.722 -0.3827  0.9374 -0.0401
 3004TIP3    H130503   4.316   1.091  16.775  0.4282  0.9979 -0.6905
 3004TIP3    H230504   4.257   1.062  16.638 -1.3575  0.7684  0.1208
 3005TIP3   OH230505   4.663   2.057   5.671 -0.0779  0.7948 -0.1127
 3005TIP3    H130506   4.579   2.064   5.717  0.0093 -0.8032  0.3229
 3005TIP3    H230507   4.644   2.001   5.596  0.4420  1.0404 -0.4249
 3006TIP3   OH230508   4.339   4.443  15.083  0.9426 -0.6345 -0.0572
 3006TIP3    H130509   4.375   4.364  15.043  0.4644 -0.2936 -1.2006
 3006TIP3    H230510   4.260   4.414  15.128  0.0277 -0.6115 -1.6063
 3007TIP3   OH230511   2.292   5.289  15.156 -0.1717 -0.0689  0.4236
 3007TIP3    H130512   2.342   5.325  15.082 -1.4077  0.8318  0.0143
 3007TIP3    H230513   2.309   5.350  15.228  0.3017 -0.4397  0.6261
 3008TIP3   OH230514   4.193   0.761  10.448  0.4634  0.3965 -0.6107
 3008TIP3    H130515   4.190   0.830  10.515  1.7547 -0.6290  0.5582
 3008TIP3    H230516   4.108   0.719  10.453  0.0614  1.2065 -0.5636
 3009TIP3   OH230517   3.365   2.396  15.609  0.2611 -0.4893 -0.1341
 3009TIP3    H130518   3.404   2.419  15.693  1.9251  1.6682 -1.4627
 3009TIP3    H230519   3.311   2.471  15.585  0.5883 -0.6525 -1.4597
 3010TIP3   OH230520   6.390   3.898  15.757 -0.3501  0.1799  0.7690
 3010TIP3    H130521   6.331   3.943  15.696 -1.7885 -2.8560 -0.1432
 3010TIP3    H230522   6.475   3.942  15.744 -1.2848  1.4641 -1.3499
 3011TIP3   OH230523   1.889   5.215   2.475  0.5695  0.1729  0.5406
 3011TIP3    H130524   1.940   5.141   2.443  1.1538  0.5065  0.6913
 3011TIP3    H230525   1.906   5.217   2.569  2.1001  1.6638  0.2505
 3012TIP3   OH230526   0.289   2.474  13.490  0.1284 -0.1768  0.3431
 3012TIP3    H130527   0.359   2.444  13.432 -0.7312 -1.2604 -0.1598
 3012TIP3    H230528   0.292   2.413  13.564 -1.9692 -1.9062 -0.9306
 3013TIP3   OH230529   4.067   0.044  12.213 -0.6906 -0.8328  0.0186
 3013TIP3    H130530   4.045   0.100  12.138 -1.9137 -0.1328  0.8896
 3013TIP3    H230531   4.147  -0.001  12.186  1.0321  2.2419 -0.1989
 3014TIP3   OH230532   6.081   0.208   0.780 -0.1942 -0.1573 -0.6336
 3014TIP3    H130533   6.013   0.275   0.787 -1.0591 -0.9822 -1.0876
 3014TIP3    H230534   6.104   0.187   0.871  1.2796  1.9478 -0.4890
 3015TIP3   OH230535   4.002   5.702   5.158 -0.2531  0.2097 -0.4746
 3015TIP3    H130536   3.941   5.775   5.176  1.7115  2.4848 -2.6341
 3015TIP3    H230537   4.086   5.732   5.194  0.9311 -0.3290 -2.7281
 3016TIP3   OH230538   2.537   1.870   5.939  0.5205  0.4005 -0.2208
 3016TIP3    H130539   2.481   1.876   6.015 -0.5000 -2.2054 -0.7176
 3016TIP3    H230540   2.496   1.927   5.874 -0.0780  0.5385  0.2777
 3017TIP3   OH230541   6.290   1.755  16.656 -0.5269  0.2096  0.1284
 3017TIP3    H130542   6.331   1.841  16.655 -0.7605  0.3716 -3.8610
 3017TIP3    H230543   6.232   1.755  16.580 -1.4909 -3.0088  0.7795
 3018TIP3   OH230544   5.243   0.063  15.698 -0.0470  0.7848 -0.3729
 3018TIP3    H130545   5.289  -0.008  15.654  1.8320  1.3756  0.5605
 3018TIP3    H230546   5.182   0.097  15.633 -0.4688 -1.2036 -1.0520
 3019TIP3   OH230547   6.646   0.556  11.585 -0.0969  0.4700 -0.6032
 3019TIP3    H130548   6.710   0.526  11.649  0.1671 -1.4270 -1.7116
 3019TIP3    H230549   6.668   0.509  11.505 -1.3277  1.6923 -1.7025
 3020TIP3   OH230550   0.705   4.540  16.436 -0.4384 -0.0870  0.1889
 3020TIP3    H130551   0.671   4.552  16.525 -1.2860  1.5983 -0.3221
 3020TIP3    H230552   0.630   4.506  16.386 -0.1354 -0.4670 -0.0084
 3021TIP3   OH230553   0.852   0.458  16.467 -0.0955  0.3384  0.3429
 3021TIP3    H130554   0.843   0.499  16.553  0.1542  1.0311  0.0473
 3021TIP3    H230555   0.887   0.528  16.411  1.0812 -0.4994  0.0028
 3022TIP3   OH230556   3.578   4.781  12.617 -0.2021  0.4256 -0.3495
 3022TIP3    H130557   3.579   4.857  12.674 -0.8766 -1.2159  1.9417
 3022TIP3    H230558   3.485   4.767  12.597 -0.2802 -0.8257  0.7556
 3023TIP3   OH230559   2.593   1.620  11.063  0.1644 -0.6488 -0.2603
 3023TIP3    H130560   2.598   1.525  11.052  1.6155 -0.7107  0.8754
 3023TIP3    H230561   2.507   1.643  11.028  0.1803 -2.2542 -1.4120
 3024TIP3   OH230562   4.784   3.348   2.023 -0.2071  0.5261  0.1865
 3024TIP3    H130563   4.692   3.340   2.049 -0.3351  0.7795 -0.1991
 3024TIP3    H230564   4.824   3.399   2.094 -0.6982  1.7890 -0.4298
 3025TIP3   OH230565   5.287   6.561   1.664 -0.4422  0.0878 -0.3346
 3025TIP3    H130566   5.382   6.568   1.653 -0.4563  1.6367  0.4433
 3025TIP3    H230567   5.275   6.476   1.708  0.4485 -0.8167 -1.8049
 3026TIP3   OH230568   4.892   2.451   4.372 -0.3688  0.3657  0.1408
 3026TIP3    H130569   4.825   2.506   4.331 -0.2763  1.6231  1.6417
 3026TIP3    H230570   4.845   2.399   4.437 -0.1990 -0.1909 -0.1771
 3027TIP3   OH230571   4.088   0.841   4.094  0.1168 -0.3243  0.3322
 3027TIP3    H130572   4.137   0.759   4.098 -0.1558 -0.4728  0.6147
 3027TIP3    H230573   4.133   0.899   4.155 -0.5205 -0.7109  1.1873
 3028TIP3   OH230574   6.577   6.755   4.395  0.1178 -0.3365  0.2889
 3028TIP3    H130575   6.600   6.671   4.354 -2.0948 -0.6402 -0.4327
 3028TIP3    H230576   6.562   6.814   4.321  2.4161  0.9308  0.8051
 3029TIP3   OH230577   0.239   0.260  17.153  0.0412 -0.2226 -0.3544
 3029TIP3    H130578   0.235   0.313  17.232 -1.4599 -1.0857  0.1746
 3029TIP3    H230579   0.330   0.267  17.124  0.4844  0.5156  1.1604
 3030TIP3   OH230580   3.233   6.564  16.645 -0.2039  0.2053  0.4835
 3030TIP3    H130581   3.194   6.647  16.676 -1.8672  0.3786 -1.8906
 3030TIP3    H230582   3.248   6.579  16.552  1.6337 -1.4017  0.5107
 3031TIP3   OH230583   1.741   2.084   2.338  0.0794 -0.3412  0.2830
 3031TIP3    H130584   1.757   2.148   2.269  0.3926 -1.1763 -0.4419
 3031TIP3    H230585   1.656   2.046   2.316 -0.2911  0.1121  0.9368
 3032TIP3   OH230586   2.250   0.365  13.121  0.0158 -0.2223 -0.5531
 3032TIP3    H130587   2.201   0.296  13.078 -1.4955  0.9584 -0.7567
 3032TIP3    H230588   2.298   0.321  13.191 -0.3199 -1.5796 -1.1757
 3033TIP3   OH230589   6.034   3.948   4.564  0.1999  0.2999  0.1304
 3033TIP3    H130590   6.060   3.875   4.507 -1.6203  0.8884 -1.5183
 3033TIP3    H230591   5.964   3.913   4.618 -0.5572  0.7691 -0.5409
 3034TIP3   OH230592   6.052   4.385   2.072 -0.2158 -0.1415  0.0447
 3034TIP3    H130593   6.003   4.431   2.140 -0.1217  0.1445 -0.0780
 3034TIP3    H230594   6.000   4.397   1.992  1.0566  1.9277 -0.5238
 3035TIP3   OH230595   1.111   0.797  15.098 -0.9369  0.2128  0.2712
 3035TIP3    H130596   1.091   0.805  15.191 -2.2730  0.9878 -0.0605
 3035TIP3    H230597   1.114   0.887  15.066 -1.6166 -0.0790 -0.6551
 3036TIP3   OH230598   5.206   3.719   6.569 -0.4334  0.0419  0.2366
 3036TIP3    H130599   5.120   3.760   6.575 -0.3279  0.1693  0.8712
 3036TIP3    H230600   5.265   3.776   6.618 -0.1257 -0.4268  0.4226
 3037TIP3   OH230601   3.220   6.481  14.174 -0.5305 -0.3901 -0.0964
 3037TIP3    H130602   3.234   6.466  14.268 -1.5671  0.9955  0.3006
 3037TIP3    H230603   3.212   6.394  14.137 -0.7896 -0.9532  1.2325
 3038TIP3   OH230604   5.141   3.500   0.497 -0.3244 -0.7439 -0.0895
 3038TIP3    H130605   5.138   3.413   0.536 -1.1398 -0.3255  0.7877
 3038TIP3    H230606   5.085   3.494   0.420 -0.4418 -0.9674  0.0147
 3039TIP3   OH230607   4.086   2.168  13.495  0.3758 -0.0723 -0.1040
 3039TIP3    H130608   3.992   2.170  13.477 -0.1875  0.2158  2.6484
 3039TIP3    H230609   4.122   2.240  13.443 -1.3222  1.4316  0.7329
 3040TIP3   OH230610   4.892   5.019  16.200 -0.4164  0.5281 -0.4777
 3040TIP3    H130611   4.904   5.106  16.238  1.5159  0.8344 -1.7277
 3040TIP3    H230612   4.957   5.014  16.130 -1.4249 -1.4163 -1.3109
 3041TIP3   OH230613   3.241   2.191  14.534  0.2615  0.3618 -0.8464
 3041TIP3    H130614   3.177   2.250  14.574  0.7887  2.1723 -2.6082
 3041TIP3    H230615   3.325   2.237  14.543  0.7204 -0.2507 -1.9821
 3042TIP3   OH230616   5.098   1.019  11.546 -0.4624  0.4334  0.2029
 3042TIP3    H130617   5.089   0.924  11.548 -1.3753  0.4427 -1.8980
 3042TIP3    H230618   5.146   1.040  11.625 -1.4919 -1.6402  1.4263
 3043TIP3   OH230619   0.853   3.653   5.303 -0.3103 -0.4430 -0.2213
 3043TIP3    H130620   0.875   3.566   5.269  3.1217  0.6937 -1.0494
 3043TIP3    H230621   0.813   3.699   5.229  1.6238  0.0075 -1.0174
 3044TIP3   OH230622   0.577   1.779  12.319 -0.6790 -0.3464  1.0276
 3044TIP3    H130623   0.645   1.818  12.375  0.9947 -0.3248 -0.9556
 3044TIP3    H230624   0.519   1.852  12.298  0.0240  0.1468  0.8002
 3045TIP3   OH230625   4.720   0.782   4.103  0.0279  0.3964  0.7551
 3045TIP3    H130626   4.741   0.875   4.097 -1.1662  0.7352  1.4774
 3045TIP3    H230627   4.638   0.779   4.154  0.5900 -1.1013  1.6340
 3046TIP3   OH230628   3.562   2.489  13.178 -0.5726 -0.1326 -0.2323
 3046TIP3    H130629   3.487   2.430  13.184 -0.3030 -0.3423  1.2349
 3046TIP3    H230630   3.630   2.447  13.232  0.4992  0.2009 -1.3044
 3047TIP3   OH230631   0.931   2.245  14.832  0.3012  0.6009 -0.0764
 3047TIP3    H130632   1.001   2.290  14.784  1.0736 -0.7954 -0.3046
 3047TIP3    H230633   0.884   2.315  14.878  1.8304  1.5681  0.0524
 3048TIP3   OH230634   5.841   6.562   2.286 -0.4833 -0.4432 -0.2524
 3048TIP3    H130635   5.767   6.525   2.238 -0.7447  0.7787 -0.8094
 3048TIP3    H230636   5.847   6.652   2.256 -1.7886  0.9482  3.3117
 3049TIP3   OH230637   6.743   5.882   3.116 -0.3797  0.3015  0.1165
 3049TIP3    H130638   6.743   5.879   3.021 -1.2682  0.6922  0.1006
 3049TIP3    H230639   6.664   5.931   3.139 -0.2044  0.1641  1.0533
 3050TIP3   OH230640   0.004   1.737   6.781  0.1872  0.1050 -0.5263
 3050TIP3    H130641  -0.057   1.665   6.772 -0.3263  0.5793 -0.8916
 3050TIP3    H230642  -0.036   1.809   6.731  0.1996  0.9604  0.6774
 3051TIP3   OH230643   6.468   0.306  13.273  0.1010  0.1449 -0.0490
 3051TIP3    H130644   6.534   0.355  13.224 -0.7226  0.9063 -0.4171
 3051TIP3    H230645   6.405   0.277  13.208 -1.4198  1.8325  0.6095
 3052TIP3   OH230646   4.651   2.249  16.445  0.1694  0.0950  0.0391
 3052TIP3    H130647   4.574   2.259  16.501  0.0103  0.4886 -0.2414
 3052TIP3    H230648   4.630   2.174  16.389 -0.1487  0.4073 -0.2592
 3053TIP3   OH230649   4.589   3.861   5.940  0.1572  0.1703 -0.0965
 3053TIP3    H130650   4.652   3.802   5.981 -0.4656 -1.4644 -1.4612
 3053TIP3    H230651   4.509   3.848   5.991  0.5268  1.2434  0.7787
 3054TIP3   OH230652   4.952   4.065  15.717 -0.2264  0.6586  0.1364
 3054TIP3    H130653   4.861   4.092  15.700 -0.4866 -0.3874 -0.1782
 3054TIP3    H230654   4.991   4.055  15.630  0.5540  2.2660  0.2837
 3055TIP3   OH230655   0.231   6.678   5.474 -0.0116 -0.0180 -0.1670
 3055TIP3    H130656   0.189   6.593   5.475 -0.5438  0.2237 -1.1555
 3055TIP3    H230657   0.174   6.735   5.525 -0.9271  0.3160 -1.5289
 3056TIP3   OH230658   5.655   5.292   0.404 -0.4445  0.2715 -1.0023
 3056TIP3    H130659   5.613   5.365   0.450 -0.4581 -0.6023  0.3818
 3056TIP3    H230660   5.719   5.258   0.467 -1.6146 -1.9901 -1.0227
 3057TIP3   OH230661   1.481   1.988  15.757  0.6613  0.0026  0.3486
 3057TIP3    H130662   1.440   1.968  15.842  1.7656  0.5609  1.0300
 3057TIP3    H230663   1.436   2.068  15.728 -1.2224 -1.3741 -0.6435
 3058TIP3   OH230664   4.862   5.367   1.043  0.4808 -0.2422  0.4561
 3058TIP3    H130665   4.850   5.286   1.093  0.8129 -0.6080 -0.0560
 3058TIP3    H230666   4.903   5.428   1.104  0.5761 -0.5821  0.7263
 3059TIP3   OH230667   2.447   1.970   2.314  0.3373  0.1107  0.0169
 3059TIP3    H130668   2.353   1.983   2.298  0.5605  0.1986 -1.2844
 3059TIP3    H230669   2.473   1.904   2.250  1.2126  0.2285  0.2473
 3060TIP3   OH230670   4.255   6.252   2.284 -0.2549 -0.2605 -0.2540
 3060TIP3    H130671   4.314   6.177   2.285  1.2162  0.8932  1.7030
 3060TIP3    H230672   4.237   6.267   2.191  1.0741 -1.7346 -0.7686
 3061TIP3   OH230673   0.565   6.247  14.844 -0.0753 -0.3572  0.6616
 3061TIP3    H130674   0.606   6.171  14.885  0.8692 -1.2754 -1.9124
 3061TIP3    H230675   0.637   6.308  14.830  0.1047 -1.1351 -2.0030
 3062TIP3   OH230676   2.965   5.152   4.654 -0.7128  0.1851  0.1562
 3062TIP3    H130677   2.950   5.162   4.560  0.1513  2.3660  0.2180
 3062TIP3    H230678   2.889   5.193   4.695  0.3357  1.9207  0.4074
 3063TIP3   OH230679   1.574   0.016   3.285  0.3396  0.0914  0.4727
 3063TIP3    H130680   1.508  -0.015   3.348 -0.1914  2.2983  1.0509
 3063TIP3    H230681   1.528   0.015   3.201  0.8174 -2.1416  0.2056
 3064TIP3   OH230682   0.780   1.567  13.902 -0.4488 -0.5797  0.4063
 3064TIP3    H130683   0.839   1.638  13.929  0.1020 -1.0806  0.5290
 3064TIP3    H230684   0.811   1.491  13.951 -0.2168 -1.2145 -0.7074
 3065TIP3   OH230685   0.369   0.343   6.046  0.0697  0.3087 -0.4632
 3065TIP3    H130686   0.425   0.420   6.058  0.8830 -0.1747 -1.0983
 3065TIP3    H230687   0.403   0.279   6.109 -1.8394  1.1072  1.4578
 3066TIP3   OH230688   1.807   5.637   2.876  0.0141  0.0227 -0.3004
 3066TIP3    H130689   1.754   5.569   2.835 -0.6135 -0.7212  1.7056
 3066TIP3    H230690   1.893   5.597   2.887  1.0637  1.2067 -3.4933
 3067TIP3   OH230691   5.613   1.266   2.385  0.3580  0.2872 -0.1961
 3067TIP3    H130692   5.660   1.189   2.352 -0.4890 -0.6884  0.8079
 3067TIP3    H230693   5.576   1.307   2.307  1.2041 -0.0766 -0.7908
 3068TIP3   OH230694   3.375   4.080   4.217 -0.4670  0.2183  0.0261
 3068TIP3    H130695   3.322   4.075   4.296 -0.8552 -1.1459 -0.3116
 3068TIP3    H230696   3.444   4.143   4.238 -1.7805  1.4409  0.7306
 3069TIP3   OH230697   3.441   5.969   4.282 -0.6057  0.2087  0.3241
 3069TIP3    H130698   3.383   5.989   4.209 -2.2983  0.8391  1.7824
 3069TIP3    H230699   3.400   6.012   4.357 -0.7605 -3.1277  2.2828
 3070TIP3   OH230700   5.522   2.106   1.067 -0.3391  0.5354 -0.0745
 3070TIP3    H130701   5.523   2.021   1.022  2.2130  0.7034 -0.3897
 3070TIP3    H230702   5.511   2.084   1.159  2.5754 -0.3159  0.1110
 3071TIP3   OH230703   1.430   5.480  12.028  0.7989 -0.6460 -0.4550
 3071TIP3    H130704   1.336   5.463  12.030  0.5274  0.9263  0.1923
 3071TIP3    H230705   1.443   5.538  11.953  0.9050  1.1552  0.9340
 3072TIP3   OH230706   0.388   5.339   2.131  0.0283  0.8654  0.1011
 3072TIP3    H130707   0.339   5.372   2.206 -1.6648  0.5007 -0.8282
 3072TIP3    H230708   0.465   5.396   2.126  1.0923 -0.2197  3.1687
 3073TIP3   OH230709   0.816   1.266   4.846 -0.9389  0.1890  0.8768
 3073TIP3    H130710   0.803   1.349   4.892 -0.5545  0.0266  1.2772
 3073TIP3    H230711   0.908   1.244   4.862 -1.3865 -0.9878  1.8965
 3074TIP3   OH230712   1.229   1.671  16.989  0.3519 -0.3083  0.1798
 3074TIP3    H130713   1.205   1.699  17.077 -1.8258 -0.0655 -0.4565
 3074TIP3    H230714   1.165   1.714  16.932  2.1090  0.0536 -1.5902
 3075TIP3   OH230715   3.541   2.321   4.097 -0.2473  0.5320 -0.2079
 3075TIP3    H130716   3.450   2.351   4.103 -0.3465  0.0715  0.6990
 3075TIP3    H230717   3.539   2.232   4.133  1.1212  1.6642  2.7403
 3076TIP3   OH230718   4.773   2.429  10.797  0.0076 -0.3716  0.0612
 3076TIP3    H130719   4.827   2.495  10.840  0.9708 -1.7154  0.9726
 3076TIP3    H230720   4.809   2.422  10.709  1.6369 -1.5443  0.7843
 3077TIP3   OH230721   1.380   2.224   0.706 -0.1036 -0.1399  0.3363
 3077TIP3    H130722   1.314   2.237   0.637 -0.2845 -0.6329  0.4154
 3077TIP3    H230723   1.359   2.139   0.743 -0.2942  0.3368  1.3203
 3078TIP3   OH230724   4.493   4.520   0.055 -0.3249  0.3230  0.2207
 3078TIP3    H130725   4.429   4.478   0.113  0.1513 -1.7843 -0.7253
 3078TIP3    H230726   4.440   4.558  -0.015 -0.6111 -1.0528 -0.3357
 3079TIP3   OH230727   4.533   1.225   2.519  0.4743 -0.4089  0.1978
 3079TIP3    H130728   4.572   1.227   2.432 -0.1202  0.5702 -0.0505
 3079TIP3    H230729   4.450   1.179   2.508  0.2619 -0.0251  0.1884
 3080TIP3   OH230730   3.511   5.587  12.790 -0.5839  0.4666  0.4142
 3080TIP3    H130731   3.532   5.577  12.883  0.5352 -0.2962  0.0815
 3080TIP3    H230732   3.590   5.559  12.744 -0.4104  2.7879 -0.7324
 3081TIP3   OH230733   0.293   1.092   5.496 -0.0431  0.1783  0.2793
 3081TIP3    H130734   0.332   1.006   5.507 -1.2601 -0.4178  0.0840
 3081TIP3    H230735   0.351   1.138   5.435  0.3503 -0.6719  0.0121
 3082TIP3   OH230736   6.388   5.424  15.086  0.6217  0.1518 -0.0955
 3082TIP3    H130737   6.426   5.452  15.003  0.9040  0.7298  0.2270
 3082TIP3    H230738   6.449   5.456  15.152  0.6188 -0.6788  0.3136
 3083TIP3   OH230739   5.021   0.025   0.214  0.1262  0.1978  0.4014
 3083TIP3    H130740   5.032  -0.048   0.153  2.0128  0.5359  0.3067
 3083TIP3    H230741   5.084   0.091   0.184 -1.6261  1.9351  0.4097
 3084TIP3   OH230742   3.196   5.664   4.335  0.2797 -0.6926  0.0151
 3084TIP3    H130743   3.290   5.670   4.348  0.2175 -0.0335  0.1422
 3084TIP3    H230744   3.186   5.655   4.240  0.4595 -0.6127 -0.0111
 3085TIP3   OH230745   1.823   0.617   5.457  0.0011  0.1832 -0.4835
 3085TIP3    H130746   1.835   0.712   5.455  1.8364  0.0763  2.1848
 3085TIP3    H230747   1.905   0.583   5.494 -1.0132 -2.3619 -0.4216
 3086TIP3   OH230748   2.647   3.182   0.960 -0.3136 -0.0009  0.0362
 3086TIP3    H130749   2.635   3.248   0.892  1.9724  0.9084  0.4552
 3086TIP3    H230750   2.741   3.167   0.962 -0.6657 -2.1871  0.9820
 3087TIP3   OH230751   5.681   0.592   5.547  0.0143 -0.3637  0.1553
 3087TIP3    H130752   5.769   0.608   5.580 -0.1054 -1.9650  1.2802
 3087TIP3    H230753   5.650   0.515   5.594 -0.7409 -1.8278 -2.6141
 3088TIP3   OH230754   6.387   0.026  13.855 -0.1626 -0.3068 -0.5678
 3088TIP3    H130755   6.432   0.035  13.939  0.2710 -0.2424 -0.8037
 3088TIP3    H230756   6.419   0.100  13.803 -1.9320  0.8070 -0.1280
 3089TIP3   OH230757   5.411   2.646  15.579 -0.3903 -0.3900 -0.0941
 3089TIP3    H130758   5.430   2.559  15.615 -2.5773 -0.5328  0.7752
 3089TIP3    H230759   5.491   2.696  15.594  0.8728 -2.1992 -0.5161
 3090TIP3   OH230760   0.208   4.847  16.866 -0.2617 -0.1944 -0.3841
 3090TIP3    H130761   0.170   4.853  16.779 -0.7881  1.2001 -0.0690
 3090TIP3    H230762   0.146   4.793  16.916  0.2144 -1.2882 -0.9436
 3091TIP3   OH230763   5.781   5.092  13.304  0.2842  0.1892  0.2953
 3091TIP3    H130764   5.690   5.118  13.296  0.1201  0.1497  1.8885
 3091TIP3    H230765   5.778   4.997  13.320  0.6627 -0.0127 -0.7742
 3092TIP3   OH230766   5.689   6.595  13.433 -0.5052  0.0159  0.1366
 3092TIP3    H130767   5.607   6.643  13.443 -0.2469  0.4655  0.1339
 3092TIP3    H230768   5.675   6.541  13.355 -0.5767  0.5513 -0.2217
 3093TIP3   OH230769   3.786   3.367   0.211 -0.2561  0.0828 -0.6666
 3093TIP3    H130770   3.816   3.377   0.121  0.8931 -0.2247 -0.3151
 3093TIP3    H230771   3.764   3.274   0.220  1.3924 -0.2557 -0.0827
 3094TIP3   OH230772   5.748   4.240   3.878  0.0580 -0.2786  0.0288
 3094TIP3    H130773   5.658   4.220   3.852  0.0489  0.6228 -0.6380
 3094TIP3    H230774   5.802   4.185   3.820 -0.0104  0.5673 -0.8438
 3095TIP3   OH230775   1.074   4.399   2.132  0.0007 -0.3682  0.0957
 3095TIP3    H130776   0.991   4.421   2.090  1.2315  1.7996 -1.2962
 3095TIP3    H230777   1.070   4.304   2.145 -1.9185 -0.5661 -1.6462
 3096TIP3   OH230778   5.478   4.882   2.595 -0.2583  0.3009 -0.3122
 3096TIP3    H130779   5.505   4.791   2.598 -2.1014 -0.2749 -0.3597
 3096TIP3    H230780   5.538   4.923   2.532  0.8866 -0.7557  0.0744
 3097TIP3   OH230781   3.377   6.637  15.799  0.1395 -0.0839  0.3161
 3097TIP3    H130782   3.293   6.676  15.773 -0.0099  0.5704  1.7190
 3097TIP3    H230783   3.375   6.639  15.895  1.9933  0.4619  0.3611
 3098TIP3   OH230784   1.727   6.683   1.095  0.1797  0.7021 -0.5995
 3098TIP3    H130785   1.808   6.639   1.122 -1.6745 -1.5245  1.5275
 3098TIP3    H230786   1.691   6.627   1.026 -0.2373  0.9475 -0.5849
 3099TIP3   OH230787   4.547   1.486  15.155 -0.2170 -0.2358  0.0354
 3099TIP3    H130788   4.570   1.397  15.180 -0.7029 -0.0551  1.1787
 3099TIP3    H230789   4.575   1.494  15.064 -1.4456 -2.0068 -0.5205
 3100TIP3   OH230790   2.769   2.473   4.749  0.6405 -0.0788 -0.0789
 3100TIP3    H130791   2.694   2.445   4.801  1.2018  0.6158  1.1295
 3100TIP3    H230792   2.732   2.500   4.666 -0.3304 -0.7334  0.1365
 3101TIP3   OH230793   0.457   1.251  15.380  0.9856  0.2849  0.1487
 3101TIP3    H130794   0.367   1.249  15.348  1.0131  0.1332  0.0802
 3101TIP3    H230795   0.469   1.165  15.422  1.4046 -0.0696 -0.6806
 3102TIP3   OH230796   0.551   6.494  13.261 -0.0129  0.1016 -0.2644
 3102TIP3    H130797   0.606   6.420  13.287  0.5407 -0.1477 -2.0833
 3102TIP3    H230798   0.462   6.463  13.272  0.1650  0.6214  3.0468
 3103TIP3   OH230799   3.174   3.542  16.928 -0.5378 -0.0400  0.2620
 3103TIP3    H130800   3.252   3.489  16.917  0.0498  0.9108 -0.1930
 3103TIP3    H230801   3.154   3.536  17.022  1.1998  1.2688  0.7421
 3104TIP3   OH230802   5.511   3.299  13.298 -0.1050 -0.0122 -0.0243
 3104TIP3    H130803   5.445   3.309  13.229 -1.5581 -4.6575  0.5197
 3104TIP3    H230804   5.591   3.276  13.252  0.1414  1.6063 -0.4255
 3105TIP3   OH230805   3.012   2.646   3.117 -0.0681 -0.4269 -0.4065
 3105TIP3    H130806   3.077   2.624   3.050 -1.7445 -4.4824 -0.8410
 3105TIP3    H230807   3.039   2.596   3.194 -1.4665 -0.4590  0.0783
 3106TIP3   OH230808   3.825   5.782   1.434  0.0485  0.0710 -0.4425
 3106TIP3    H130809   3.764   5.775   1.508 -1.8318 -1.5035 -2.0645
 3106TIP3    H230810   3.905   5.816   1.473 -0.7989 -0.9232  2.3692
 3107TIP3   OH230811   1.986   5.110  15.962 -0.3399  0.1740 -0.2808
 3107TIP3    H130812   1.996   5.037  15.901 -0.3710 -1.4225  1.5765
 3107TIP3    H230813   2.063   5.104  16.019 -0.8969  0.9391  0.5694
 3108TIP3   OH230814   0.031   5.256  11.507  0.2734 -0.6406  0.4345
 3108TIP3    H130815  -0.035   5.254  11.576  0.6135  0.2314  0.7849
 3108TIP3    H230816   0.049   5.163  11.489 -0.3290 -0.8765  1.0119
 3109TIP3   OH230817   3.107   6.663   3.066  0.3587 -0.1206  0.7048
 3109TIP3    H130818   3.040   6.597   3.085  0.8251 -0.9979 -0.6507
 3109TIP3    H230819   3.059   6.746   3.066 -0.4853 -0.6036  1.0665
 3110TIP3   OH230820   3.626   3.804  16.362  0.5465 -0.2169 -0.1279
 3110TIP3    H130821   3.684   3.729  16.377 -0.4763 -1.0075 -0.1010
 3110TIP3    H230822   3.552   3.789  16.421  1.6396  2.2795  1.9975
 3111TIP3   OH230823   0.393   5.879  14.228  0.3797  0.0269  0.3615
 3111TIP3    H130824   0.431   5.832  14.303  0.8726  1.6931  1.1858
 3111TIP3    H230825   0.312   5.916  14.262 -0.2455 -0.6380 -0.4192
 3112TIP3   OH230826   3.192   2.094  12.447 -0.4779  0.4970  0.5004
 3112TIP3    H130827   3.120   2.043  12.484  0.4170  1.0824  3.0801
 3112TIP3    H230828   3.164   2.185  12.456  0.5332  0.7203  1.3909
 3113TIP3   OH230829   2.964   0.787   6.505 -0.3565  0.0417  0.3806
 3113TIP3    H130830   2.887   0.737   6.532 -0.8715  0.2206 -0.7208
 3113TIP3    H230831   2.989   0.836   6.583 -2.6013  1.5681  0.1769
 3114TIP3   OH230832   3.418   6.732   3.690 -0.0822 -0.2522  0.0534
 3114TIP3    H130833   3.341   6.698   3.735  1.5870 -0.4115  2.8834
 3114TIP3    H230834   3.394   6.821   3.664 -0.6219  0.3257  2.4633
 3115TIP3   OH230835   4.182   3.930  14.599  0.1173  0.2512 -0.0005
 3115TIP3    H130836   4.103   3.955  14.552 -0.6364 -0.5246  0.8402
 3115TIP3    H230837   4.244   3.905  14.531 -0.8231 -0.4733 -0.5877
 3116TIP3   OH230838   1.014   3.811  13.309  0.2076 -0.3466  0.4990
 3116TIP3    H130839   1.035   3.771  13.393 -0.8220 -1.2695  0.3329
 3116TIP3    H230840   0.925   3.844  13.320  0.0710 -0.4586 -0.2246
 3117TIP3   OH230841   3.207   3.255  15.375 -0.2499  0.3108 -0.0958
 3117TIP3    H130842   3.140   3.212  15.321 -0.9595 -0.1170  1.1221
 3117TIP3    H230843   3.289   3.240  15.327 -0.9588  0.4617 -1.3674
 3118TIP3   OH230844   2.425   1.993  11.358 -0.9697 -0.0877  0.4729
 3118TIP3    H130845   2.407   2.085  11.340 -0.5898 -0.1028 -0.0189
 3118TIP3    H230846   2.345   1.960  11.400 -0.5350  0.8425  2.0771
 3119TIP3   OH230847   5.977   0.209  16.976 -0.0495 -0.1193  0.4006
 3119TIP3    H130848   5.934   0.127  17.002  0.3497 -1.1069 -1.9377
 3119TIP3    H230849   6.054   0.181  16.926 -0.4295  1.6742 -1.2586
 3120TIP3   OH230850   2.088   2.269  12.741 -0.4181  0.6013  0.4810
 3120TIP3    H130851   2.150   2.212  12.787 -0.1568 -0.4629 -1.1328
 3120TIP3    H230852   2.023   2.210  12.705 -0.7900  1.4382 -0.2384
 3121TIP3   OH230853   2.613   1.362  15.270 -0.1533 -0.1035 -0.4381
 3121TIP3    H130854   2.695   1.409  15.253  1.4005 -2.5899 -0.0722
 3121TIP3    H230855   2.624   1.328  15.359 -1.5275 -0.6189 -0.4595
 3122TIP3   OH230856   1.126   1.107  12.843  0.4234 -0.0453  0.2503
 3122TIP3    H130857   1.190   1.117  12.772 -2.8322  2.0550 -2.6084
 3122TIP3    H230858   1.149   1.175  12.906  1.4045  0.2587 -0.4279
 3123TIP3   OH230859   4.476   6.132  14.702  0.2204 -0.1708  0.2556
 3123TIP3    H130860   4.422   6.179  14.766 -2.8323 -1.2810 -1.3992
 3123TIP3    H230861   4.489   6.045  14.742  2.4654  0.6859  1.4954
 3124TIP3   OH230862   0.475   2.766  14.465  1.3623  0.4990  0.0470
 3124TIP3    H130863   0.457   2.721  14.548 -0.7972  1.7953  0.3381
 3124TIP3    H230864   0.475   2.859  14.489 -0.3008  0.9354 -1.5419
 3125TIP3   OH230865   5.938   4.129  11.966  0.2550 -0.1899  0.4924
 3125TIP3    H130866   5.985   4.048  11.983 -1.2552 -1.4261 -1.0403
 3125TIP3    H230867   5.975   4.162  11.884 -0.6020 -0.4592 -0.0064
 3126TIP3   OH230868   5.332   5.929  16.906 -0.3564  0.5706 -0.2143
 3126TIP3    H130869   5.404   5.991  16.907  1.3195 -1.3013 -0.7699
 3126TIP3    H230870   5.374   5.843  16.897 -2.7060 -0.4676 -1.9464
 3127TIP3   OH230871   2.884   4.484  16.904  0.7366 -0.3155  0.2480
 3127TIP3    H130872   2.818   4.530  16.852  0.5510  1.2192  1.8267
 3127TIP3    H230873   2.833   4.428  16.963  0.9196 -0.7572 -0.0013
 3128TIP3   OH230874   1.488   2.248  16.229  0.0416 -0.1884 -0.1437
 3128TIP3    H130875   1.461   2.326  16.180 -1.8394 -0.2977  0.6678
 3128TIP3    H230876   1.423   2.240  16.299  2.0734 -0.6546  1.7390
 3129TIP3   OH230877   1.572   1.552  16.069  0.0580  0.1651  0.3976
 3129TIP3    H130878   1.645   1.614  16.063 -0.8533  1.2241  0.1869
 3129TIP3    H230879   1.590   1.502  16.149  1.2219  0.1413  0.1283
 3130TIP3   OH230880   5.556   5.297   5.677 -0.0627  0.0244  0.1055
 3130TIP3    H130881   5.572   5.380   5.631  1.7670 -0.2715  0.1458
 3130TIP3    H230882   5.628   5.291   5.740  0.7827 -2.3661 -1.0122
 3131TIP3   OH230883   0.941   0.456  15.465 -0.1442  0.2717  0.3826
 3131TIP3    H130884   0.849   0.480  15.474 -0.1315  0.5663 -0.2622
 3131TIP3    H230885   0.988   0.538  15.480 -0.0319  0.3191 -0.2132
 3132TIP3   OH230886   5.751   0.919  14.716 -0.3144  0.2290  1.1765
 3132TIP3    H130887   5.706   0.961  14.643  1.4960 -0.4322 -0.3818
 3132TIP3    H230888   5.686   0.916  14.786 -1.5623  2.4036  0.1573
 3133TIP3   OH230889   3.123   6.012  17.271 -0.2860  0.3694  0.4254
 3133TIP3    H130890   3.106   5.974  17.185 -0.1914 -1.3491  1.1404
 3133TIP3    H230891   3.217   6.002  17.283 -0.1467  1.5006  0.3248
 3134TIP3   OH230892   5.187   0.519   4.444 -0.9528 -0.2317 -0.7836
 3134TIP3    H130893   5.198   0.481   4.531 -1.1096 -1.1389 -1.1527
 3134TIP3    H230894   5.276   0.537   4.414 -0.9181  0.4568 -0.2757
 3135TIP3   OH230895   6.777   5.873   4.141  0.4814 -0.1387  0.8646
 3135TIP3    H130896   6.823   5.885   4.058  2.7873 -3.6584  1.5263
 3135TIP3    H230897   6.685   5.867   4.117  1.3003 -3.4993 -1.7950
 3136TIP3   OH230898   1.697   4.027  13.694  0.6978 -0.4865  0.0986
 3136TIP3    H130899   1.772   4.021  13.753  0.6745 -0.2756  0.1526
 3136TIP3    H230900   1.658   4.112  13.715  1.4176  0.1492 -1.0869
 3137TIP3   OH230901   5.823   5.746  15.546  0.4302 -0.1044 -0.2766
 3137TIP3    H130902   5.885   5.754  15.474 -0.3814  1.9696 -0.7859
 3137TIP3    H230903   5.873   5.769  15.624  0.3790  1.3704 -0.6620
 3138TIP3   OH230904   6.386   0.172   3.405 -0.1185  0.0274 -0.1892
 3138TIP3    H130905   6.334   0.228   3.346 -0.8516 -0.7968 -0.3280
 3138TIP3    H230906   6.468   0.157   3.357 -0.9252 -1.0793 -1.2478
 3139TIP3   OH230907   6.684   4.451  11.267  0.3930  0.0027 -0.0910
 3139TIP3    H130908   6.597   4.414  11.284  0.4762 -0.0740  0.1731
 3139TIP3    H230909   6.668   4.527  11.211  0.1972 -0.2854 -0.4342
 3140TIP3   OH230910   6.320   2.764   0.670 -0.4278  0.7171  0.3188
 3140TIP3    H130911   6.266   2.808   0.736 -2.3448  0.1838 -0.8533
 3140TIP3    H230912   6.289   2.673   0.671  1.0334  0.2050  0.2053
 3141TIP3   OH230913   5.663   3.940  15.902 -0.2315  0.0850 -0.3691
 3141TIP3    H130914   5.580   3.970  15.863 -0.6864 -0.5807  0.0766
 3141TIP3    H230915   5.719   3.922  15.827 -0.9045 -0.6188 -0.7184
 3142TIP3   OH230916   2.294   5.813  13.770  0.1050  0.2715 -0.5161
 3142TIP3    H130917   2.241   5.887  13.799 -0.3820 -0.6249  0.8906
 3142TIP3    H230918   2.369   5.813  13.830  0.2493 -0.2135 -0.6982
 3143TIP3   OH230919   5.481   2.549   2.584 -0.4328 -0.4817 -0.0791
 3143TIP3    H130920   5.428   2.470   2.587 -0.9894 -0.1799 -1.8020
 3143TIP3    H230921   5.539   2.537   2.509  1.5162 -0.5237  1.3883
 3144TIP3   OH230922   4.236   3.465   3.018  0.0712 -0.1504  0.5166
 3144TIP3    H130923   4.216   3.373   3.000  2.0456 -0.8303  1.7145
 3144TIP3    H230924   4.292   3.463   3.096 -0.4393  2.1176  0.9891
 3145TIP3   OH230925   3.899   5.348   5.775  0.1470 -0.4019  0.2745
 3145TIP3    H130926   3.956   5.313   5.843  1.0962 -1.6275 -1.1341
 3145TIP3    H230927   3.935   5.435   5.756  0.2105 -0.2834  0.9265
 3146TIP3   OH230928   6.701   5.068   3.988 -0.1941  0.2015 -0.6171
 3146TIP3    H130929   6.648   5.122   3.929 -0.7732 -1.4923 -1.6796
 3146TIP3    H230930   6.647   5.057   4.066  0.3324  1.9609  0.0211
 3147TIP3   OH230931   4.767   1.793  15.535  0.1442 -0.5484 -0.2062
 3147TIP3    H130932   4.736   1.745  15.458  1.0281 -1.2364 -0.1418
 3147TIP3    H230933   4.775   1.883  15.504 -1.1568 -0.5021 -0.4336
 3148TIP3   OH230934   4.800   0.655   2.301 -0.8218 -0.3511  0.3301
 3148TIP3    H130935   4.874   0.650   2.241 -1.3865 -1.3599 -0.2823
 3148TIP3    H230936   4.836   0.695   2.380 -0.0037  0.6867 -0.5564
 3149TIP3   OH230937   5.067   3.667  15.756  0.1700  0.2191 -0.0330
 3149TIP3    H130938   5.146   3.657  15.703 -0.3750 -0.7446 -0.6733
 3149TIP3    H230939   5.069   3.595  15.818 -1.0331 -0.7846 -1.1343
 3150TIP3   OH230940   1.222   0.497   4.228  0.1064 -0.7074  0.1974
 3150TIP3    H130941   1.306   0.542   4.240  0.5985 -1.6039  0.1852
 3150TIP3    H230942   1.202   0.461   4.315  1.0901 -2.7797 -0.3855
 3151TIP3   OH230943   2.619   2.846  12.379 -0.0578 -0.3516  0.2206
 3151TIP3    H130944   2.597   2.862  12.470 -0.0874 -0.4022  0.2221
 3151TIP3    H230945   2.534   2.837  12.335 -0.0352 -1.2661  0.3567
 3152TIP3   OH230946   5.925   2.975   3.575 -0.6578  0.0701 -0.9486
 3152TIP3    H130947   5.978   2.919   3.633 -2.6064 -0.9201 -0.0881
 3152TIP3    H230948   5.980   3.052   3.561  0.1907 -0.0212  1.5803
 3153TIP3   OH230949   0.352   1.346   4.858 -0.4708 -0.1922 -0.3607
 3153TIP3    H130950   0.369   1.319   4.948  2.1594 -2.2275 -1.4080
 3153TIP3    H230951   0.402   1.427   4.847 -2.4318  1.1732  0.5831
 3154TIP3   OH230952   2.679   4.776  11.594  0.0510 -0.2912 -0.2682
 3154TIP3    H130953   2.599   4.799  11.641 -0.8934 -1.0629 -1.4837
 3154TIP3    H230954   2.669   4.683  11.574  0.3384  0.0920 -2.2247
 3155TIP3   OH230955   4.832   5.138   2.702  0.0750 -0.6709 -0.4344
 3155TIP3    H130956   4.812   5.046   2.721  1.2666 -1.1067 -1.1844
 3155TIP3    H230957   4.869   5.136   2.614 -0.6133  0.6404 -0.7619
 3156TIP3   OH230958   6.188   2.811   4.081 -0.1859  0.2110 -0.1988
 3156TIP3    H130959   6.100   2.823   4.117 -0.6276  0.0151 -1.1981
 3156TIP3    H230960   6.247   2.830   4.154 -1.0739 -0.5955  0.7277
 3157TIP3   OH230961   3.548   3.275  13.204 -0.9319 -0.4445 -0.1172
 3157TIP3    H130962   3.469   3.226  13.178 -1.8786  1.4547 -0.9174
 3157TIP3    H230963   3.556   3.260  13.298 -1.5830 -1.5896 -0.2337
 3158TIP3   OH230964   3.919   6.039   0.486 -0.1932 -0.5934  0.1947
 3158TIP3    H130965   3.865   6.104   0.531  2.6414  1.0132  1.4232
 3158TIP3    H230966   3.932   6.075   0.399 -2.5979 -1.9068 -0.7576
 3159TIP3   OH230967   3.263   5.167   0.160 -0.2301  0.6540  0.3825
 3159TIP3    H130968   3.199   5.238   0.157  0.1219  0.9820  0.7427
 3159TIP3    H230969   3.252   5.123   0.075 -0.9176  0.7190  0.4281
 3160TIP3   OH230970   1.245   6.313   2.833 -0.1265  0.4031 -0.2739
 3160TIP3    H130971   1.219   6.335   2.923 -3.7774  0.1857 -1.2139
 3160TIP3    H230972   1.272   6.397   2.795  0.2511  0.7041  0.6531
 3161TIP3   OH230973   1.641   3.004  14.784  0.5166 -0.1580 -0.5632
 3161TIP3    H130974   1.553   3.015  14.819  0.8944  2.1142 -0.2631
 3161TIP3    H230975   1.628   2.975  14.694 -0.5459  0.5376 -0.6400
 3162TIP3   OH230976   1.013   6.510   4.040 -0.0620  0.3199  0.0501
 3162TIP3    H130977   1.078   6.446   4.069  0.4223  1.0638  0.6180
 3162TIP3    H230978   0.936   6.457   4.019  0.7648 -0.5911 -0.7970
 3163TIP3   OH230979   2.906   2.976  12.633  0.3217 -0.0030  0.7190
 3163TIP3    H130980   2.983   2.961  12.687  0.5749  2.0595  0.9807
 3163TIP3    H230981   2.931   3.047  12.574 -1.4266  0.8591  0.9608
 3164TIP3   OH230982   6.395   3.849  16.752  0.1186  0.0895  0.0915
 3164TIP3    H130983   6.332   3.918  16.771  0.0828 -0.0625  0.5184
 3164TIP3    H230984   6.357   3.770  16.788  0.0656 -0.1974 -0.5769
 3165TIP3   OH230985   6.180   1.944   0.491  0.5131 -0.4429 -0.6411
 3165TIP3    H130986   6.269   1.916   0.467 -0.0427 -1.3980 -1.6258
 3165TIP3    H230987   6.123   1.893   0.434 -0.7285 -0.7018  0.8159
 3166TIP3   OH230988   3.213   6.153   5.812  0.1311  0.1890 -0.1476
 3166TIP3    H130989   3.140   6.175   5.870 -0.3787 -0.0898 -0.6699
 3166TIP3    H230990   3.207   6.058   5.802  1.7414 -0.0906  1.3477
 3167TIP3   OH230991   3.563   2.025  11.443  0.0046 -0.0637 -0.6155
 3167TIP3    H130992   3.550   2.120  11.436  0.2758 -0.1110 -1.8037
 3167TIP3    H230993   3.562   1.994  11.353 -0.7040 -1.2819 -0.1990
 3168TIP3   OH230994   0.673   6.334  15.794 -0.1724 -0.0352 -0.1046
 3168TIP3    H130995   0.587   6.337  15.751 -0.7868  0.6053  1.1258
 3168TIP3    H230996   0.726   6.399  15.746 -0.8159  0.5978  0.0256
 3169TIP3   OH230997   2.094   3.324  11.540  0.6676  0.4621  0.3747
 3169TIP3    H130998   2.119   3.260  11.473 -1.0893 -1.0302  1.0907
 3169TIP3    H230999   2.157   3.310  11.611  0.8401  0.1352  0.1585
 3170TIP3   OH231000   6.692   2.132   4.159 -0.3560  0.0057  0.1404
 3170TIP3    H131001   6.616   2.143   4.216  0.0349 -1.2488  0.9184
 3170TIP3    H231002   6.734   2.051   4.190 -1.0921 -1.6646 -2.9675
 3171TIP3   OH231003   5.119   3.975   0.086  0.1974  0.0551 -0.5568
 3171TIP3    H131004   5.159   4.020   0.011  0.2310  2.1784  0.6880
 3171TIP3    H231005   5.027   4.003   0.084 -0.2990 -1.6095 -1.0665
 3172TIP3   OH231006   3.649   5.409   3.791  0.1513  0.0303  0.5862
 3172TIP3    H131007   3.592   5.333   3.801  0.0928 -0.1325 -0.9296
 3172TIP3    H231008   3.593   5.478   3.756  0.6042  0.2337  0.2486
 3173TIP3   OH231009   6.162   4.672   6.220  0.0464 -0.2804 -0.6914
 3173TIP3    H131010   6.252   4.646   6.243  0.8086  0.3499 -2.8397
 3173TIP3    H231011   6.110   4.592   6.233  0.6552 -0.3165  1.8020
 3174TIP3   OH231012   4.692   5.884   6.475  0.1132 -0.0840 -1.2727
 3174TIP3    H131013   4.778   5.900   6.515  0.2552 -1.3962 -1.0120
 3174TIP3    H231014   4.709   5.887   6.381  0.1396  1.2217 -1.2230
 3175TIP3   OH231015   0.948   2.952  16.081 -0.4149  0.6237  0.5801
 3175TIP3    H131016   1.031   2.924  16.120 -1.0846  0.1560  1.7090
 3175TIP3    H231017   0.882   2.925  16.145 -1.2515  3.2359  0.8785
 3176TIP3   OH231018   6.497   1.272  11.249 -0.0704 -0.2578 -0.1802
 3176TIP3    H131019   6.518   1.206  11.315  1.6873  0.6817  0.2175
 3176TIP3    H231020   6.449   1.224  11.182  2.6320 -2.3031 -0.7069
 3177TIP3   OH231021   3.812   3.698   0.958 -0.0599 -0.4875 -0.1685
 3177TIP3    H131022   3.758   3.714   1.035  1.3541  0.9755  0.5436
 3177TIP3    H231023   3.816   3.603   0.951  1.2534 -0.6898  2.6203
 3178TIP3   OH231024   3.588   1.936   3.033  0.3358 -0.2087  0.2058
 3178TIP3    H131025   3.589   1.911   2.941  0.8199 -2.0677  0.6927
 3178TIP3    H231026   3.503   1.978   3.046 -0.1693 -0.9039 -0.8358
 3179TIP3   OH231027   6.157   1.231   5.209  0.3788 -0.6665 -0.8755
 3179TIP3    H131028   6.147   1.325   5.224  2.1366 -0.7064  0.5864
 3179TIP3    H231029   6.067   1.197   5.212 -0.2560  0.9127 -1.2674
 3180TIP3   OH231030   1.116   0.564   3.536  0.1313 -0.2458 -0.2560
 3180TIP3    H131031   1.185   0.524   3.588  2.1133 -0.0080 -2.5909
 3180TIP3    H231032   1.099   0.501   3.466  1.0462  1.4950 -2.1239
 3181TIP3   OH231033   1.989   1.015  12.452 -0.1576 -1.0426  0.0538
 3181TIP3    H131034   2.014   1.036  12.542  0.0741 -0.9515 -0.0318
 3181TIP3    H231035   2.068   1.033  12.401 -0.7122  0.2805 -0.3681
 3182TIP3   OH231036   4.955   5.259  11.696  0.1566 -0.2427  0.0218
 3182TIP3    H131037   4.987   5.343  11.663  1.5454 -0.2286  1.3596
 3182TIP3    H231038   4.870   5.280  11.736  1.3481  0.9278  2.0716
 3183TIP3   OH231039   0.691   3.649  14.845 -0.4182  0.5678  0.0810
 3183TIP3    H131040   0.677   3.632  14.938 -1.4176 -2.8094 -0.6137
 3183TIP3    H231041   0.786   3.656  14.836 -0.2233 -0.4548  1.1546
 3184TIP3   OH231042   3.226   2.111   2.008 -0.7679 -0.0926  0.3577
 3184TIP3    H131043   3.224   2.019   1.979 -0.4560 -0.1394  0.4841
 3184TIP3    H231044   3.276   2.109   2.090  1.0958  0.4859 -0.7327
 3185TIP3   OH231045   4.663   1.313   0.529  0.0801 -0.0389  0.5551
 3185TIP3    H131046   4.630   1.325   0.618  0.3525  1.9678  0.4287
 3185TIP3    H231047   4.710   1.230   0.531 -1.0221 -0.6425  1.9380
 3186TIP3   OH231048   0.803   3.354  14.021  0.6892  0.3484 -0.3819
 3186TIP3    H131049   0.835   3.433  14.065  0.9884 -0.3481  0.6849
 3186TIP3    H231050   0.709   3.368  14.013  0.7922  0.9724 -0.5194
 3187TIP3   OH231051   4.214   6.724  11.653  0.0241  0.0613  0.0922
 3187TIP3    H131052   4.168   6.773  11.722  0.2421 -0.7619  0.8433
 3187TIP3    H231053   4.160   6.736  11.575 -1.3836 -0.7433  0.9233
 3188TIP3   OH231054   5.443   1.876  14.286  0.0281  0.0201  0.5191
 3188TIP3    H131055   5.495   1.805  14.248  0.5582 -0.0023  1.2899
 3188TIP3    H231056   5.491   1.955  14.264  0.4232 -0.0062  1.2897
 3189TIP3   OH231057   6.617   6.796  15.146  0.2009  0.2716 -0.0208
 3189TIP3    H131058   6.595   6.741  15.071  0.1841 -0.8018  0.7632
 3189TIP3    H231059   6.567   6.877  15.132 -1.4490 -0.7277 -0.1147
 3190TIP3   OH231060   6.012   2.747  12.172  0.1091 -0.1960 -0.1123
 3190TIP3    H131061   5.955   2.676  12.142 -0.0865 -0.1824  0.2197
 3190TIP3    H231062   5.959   2.826  12.161 -0.2749 -0.2874  1.0719
 3191TIP3   OH231063   3.038   4.954   2.981  0.2135 -0.0586  0.1375
 3191TIP3    H131064   3.053   4.907   2.899 -0.0941  0.6102 -0.3121
 3191TIP3    H231065   3.117   4.941   3.032  0.7123  0.1365 -0.5784
 3192TIP3   OH231066   6.152   6.795   5.595  0.3476 -0.4271 -0.0671
 3192TIP3    H131067   6.207   6.830   5.525  1.5651 -1.6837  0.2505
 3192TIP3    H231068   6.142   6.867   5.657  2.1625 -0.3848  0.1879
 3193TIP3   OH231069   5.349   6.763  13.188  0.6824  0.5928  0.0194
 3193TIP3    H131070   5.257   6.788  13.176  0.0279 -1.3054  0.9546
 3193TIP3    H231071   5.374   6.723  13.105  0.7832  1.3958 -0.3495
 3194TIP3   OH231072   6.788   5.921  11.734  0.5099  0.3154 -0.1509
 3194TIP3    H131073   6.835   5.840  11.755  1.1777  0.3896 -1.2984
 3194TIP3    H231074   6.764   5.958  11.819 -0.5884 -1.5376  0.3816
 3195TIP3   OH231075   2.960   1.018   5.754 -0.3431 -0.0474  0.0433
 3195TIP3    H131076   3.034   1.035   5.812 -1.4884  0.4896  1.4004
 3195TIP3    H231077   2.958   1.094   5.695 -0.0910  0.1678  0.3093
 3196TIP3   OH231078   3.061   6.092   5.418 -0.3355 -0.6084 -0.3756
 3196TIP3    H131079   2.986   6.091   5.358  0.5182 -0.5571 -1.4556
 3196TIP3    H231080   3.067   6.002   5.450 -1.4193 -0.4013  0.4209
 3197TIP3   OH231081   5.990   3.756   0.814 -0.2811 -1.0597  0.5023
 3197TIP3    H131082   5.952   3.683   0.765 -0.1902 -1.6285  1.2595
 3197TIP3    H231083   6.037   3.808   0.749 -1.1211 -1.1704 -0.2002
 3198TIP3   OH231084   5.666   1.367   0.339 -0.1125  0.2447 -0.3372
 3198TIP3    H131085   5.761   1.363   0.349 -0.2316  0.9113  1.2765
 3198TIP3    H231086   5.651   1.374   0.245  1.4488  0.6075 -0.5596
 3199TIP3   OH231087   3.415   2.707   5.008 -0.2547 -0.3032  0.7701
 3199TIP3    H131088   3.384   2.751   5.088  2.2380 -0.4330  1.8455
 3199TIP3    H231089   3.387   2.616   5.019 -3.2145  0.4035 -0.2963
 3200TIP3   OH231090   0.232   0.076  13.541 -0.1323  0.3670  0.1178
 3200TIP3    H131091   0.246   0.123  13.459 -0.9845 -0.0226 -0.2493
 3200TIP3    H231092   0.318   0.077  13.584  0.6870 -0.7763 -1.4728
 3201TIP3   OH231093   3.778   2.800   3.591 -0.2157  0.3281  0.2286
 3201TIP3    H131094   3.720   2.737   3.548  0.2227  1.0738 -1.4739
 3201TIP3    H231095   3.847   2.746   3.631 -1.5726 -0.4929  1.5364
 3202TIP3   OH231096   3.089   5.500   1.053 -0.2458  0.6010 -0.3115
 3202TIP3    H131097   3.147   5.491   0.977 -0.7245  0.5526 -0.6803
 3202TIP3    H231098   3.005   5.465   1.022 -0.2574 -0.0889  0.4653
 3203TIP3   OH231099   1.391   3.088   4.210 -0.5115 -0.2790 -0.0417
 3203TIP3    H131100   1.360   3.163   4.159 -1.2815 -0.0724  0.7275
 3203TIP3    H231101   1.447   3.126   4.278 -0.2599 -0.4776 -0.1337
 3204TIP3   OH231102   0.640   6.070   5.031 -0.1259 -0.5152  0.7689
 3204TIP3    H131103   0.564   6.064   5.088  0.4813 -0.4862  1.6049
 3204TIP3    H231104   0.676   5.981   5.028 -1.9126 -1.2005 -2.0860
 3205TIP3   OH231105   4.902   6.062   4.072 -0.6295  0.1178  0.0601
 3205TIP3    H131106   4.894   6.008   4.151  0.9375  1.0174  0.8490
 3205TIP3    H231107   4.847   6.138   4.090 -0.3734  0.2621  0.2317
 3206TIP3   OH231108   5.280   6.007  15.239  0.0045  0.2471  0.1300
 3206TIP3    H131109   5.285   6.101  15.256  1.2040  0.4729 -1.3546
 3206TIP3    H231110   5.214   5.999  15.170  1.6593  0.2816 -1.5041
 3207TIP3   OH231111   2.868   3.136   1.890 -0.2627 -0.1272  0.0345
 3207TIP3    H131112   2.862   3.078   1.814  3.5940 -0.5323 -0.0390
 3207TIP3    H231113   2.863   3.077   1.965  0.6012 -0.2219  0.0159
 3208TIP3   OH231114   2.869   5.286  13.031  0.2731  0.1458 -0.4142
 3208TIP3    H131115   2.846   5.379  13.037  0.3756  0.1715 -0.4206
 3208TIP3    H231116   2.919   5.268  13.110  0.3269  0.1173 -0.4540
 3209TIP3   OH231117   3.948   3.673  13.855 -0.3233 -0.1776 -0.5576
 3209TIP3    H131118   3.927   3.754  13.809 -0.6368  0.5190  0.7814
 3209TIP3    H231119   3.863   3.637  13.880 -0.1310  0.0932  0.5301
 3210TIP3   OH231120   6.441   0.395   5.715  0.0827 -0.3514  0.5068
 3210TIP3    H131121   6.412   0.439   5.795  0.9160 -2.5165  2.0449
 3210TIP3    H231122   6.537   0.398   5.720  0.1400 -2.0335  0.4735
 3211TIP3   OH231123   1.421   1.012   0.872  0.4202 -0.6208  0.3566
 3211TIP3    H131124   1.388   1.020   0.962 -0.0477 -2.2597  0.3484
 3211TIP3    H231125   1.443   1.102   0.846 -1.2627  0.1145  1.4126
 3212TIP3   OH231126   6.608   1.876  16.707 -1.1526  0.2154 -0.3733
 3212TIP3    H131127   6.531   1.881  16.763 -0.7488 -0.5690  0.2724
 3212TIP3    H231128   6.680   1.856  16.767 -0.9730 -2.3023 -1.3534
 3213TIP3   OH231129   6.277   5.884   3.953 -0.4963  0.2599 -0.0607
 3213TIP3    H131130   6.217   5.956   3.969  0.2424  1.1545 -1.2338
 3213TIP3    H231131   6.288   5.842   4.038  1.2442  3.2041  1.2461
 3214TIP3   OH231132   5.314   2.273  11.816 -0.1787 -0.7818 -0.2044
 3214TIP3    H131133   5.325   2.187  11.855 -0.6749 -0.2853  1.0498
 3214TIP3    H231134   5.397   2.290  11.772 -0.5919 -2.5126 -1.7189
 3215TIP3   OH231135   3.038   5.300   0.808  0.4136  0.0320 -0.5743
 3215TIP3    H131136   3.008   5.347   0.730  0.1485  0.5605 -0.1577
 3215TIP3    H231137   2.960   5.253   0.839  0.1125  1.0303  0.2382
 3216TIP3   OH231138   0.357   5.133  14.615 -0.1466 -0.0150 -0.2422
 3216TIP3    H131139   0.287   5.068  14.626 -0.6829  0.1682 -2.4729
 3216TIP3    H231140   0.404   5.105  14.537  2.3725 -0.1887  1.2753
 3217TIP3   OH231141   6.206   4.162  10.685  0.4507  0.5904 -0.3962
 3217TIP3    H131142   6.281   4.107  10.708  1.0450  1.6508  0.2549
 3217TIP3    H231143   6.215   4.239  10.741 -1.8786  0.1293  0.6733
 3218TIP3   OH231144   2.430   2.128   0.586 -0.3640  0.3331 -0.0683
 3218TIP3    H131145   2.383   2.130   0.503 -0.4406  0.5222 -0.0206
 3218TIP3    H231146   2.517   2.164   0.566 -0.0418 -0.5348 -0.2785
 3219TIP3   OH231147   6.269   4.883  12.638 -1.1418  0.4516 -0.0358
 3219TIP3    H131148   6.323   4.891  12.716  1.0470  0.1435 -1.4582
 3219TIP3    H231149   6.244   4.790  12.635 -0.2856  0.2192 -0.2737
 3220TIP3   OH231150   5.886   0.958  14.381 -0.6109 -0.3726 -0.1771
 3220TIP3    H131151   5.936   1.040  14.385 -3.5634  1.6154 -1.6013
 3220TIP3    H231152   5.914   0.918  14.298  1.7106 -1.4398  1.0904
 3221TIP3   OH231153   0.772   1.401   5.776  0.1568 -0.1780  0.2171
 3221TIP3    H131154   0.688   1.361   5.752 -0.2016  0.6291  0.1251
 3221TIP3    H231155   0.748   1.483   5.818  0.8881 -0.1962  0.6810
 3222TIP3   OH231156   0.480   0.566  15.734 -0.9010 -0.0961  0.0580
 3222TIP3    H131157   0.499   0.650  15.692  1.0054  0.5888  2.2336
 3222TIP3    H231158   0.493   0.582  15.827  0.7545 -3.1520  0.4002
 3223TIP3   OH231159   2.674   1.329   2.184  0.5594 -0.6331  0.6110
 3223TIP3    H131160   2.689   1.305   2.275  2.2536  2.3917  1.1869
 3223TIP3    H231161   2.712   1.416   2.175 -0.6930 -0.3389 -2.6801
 3224TIP3   OH231162   6.818   2.794  15.322 -0.2826  0.3904 -0.1369
 3224TIP3    H131163   6.902   2.748  15.320  0.3902  1.6093  0.0630
 3224TIP3    H231164   6.841   2.886  15.315 -1.4788  0.8681  1.7932
 3225TIP3   OH231165   3.515   1.085  14.770  0.1498 -0.1092  0.4409
 3225TIP3    H131166   3.610   1.093  14.766  0.1898 -0.1076  1.2881
 3225TIP3    H231167   3.483   1.143  14.700  0.7733 -0.2452  0.0409
 3226TIP3   OH231168   0.822   0.989   1.386  0.3264  0.2660  0.3688
 3226TIP3    H131169   0.800   1.082   1.393  1.2300  0.3383  2.8258
 3226TIP3    H231170   0.889   0.985   1.318  0.1638  1.4018  0.1417
 3227TIP3   OH231171   0.401   2.186  15.920 -0.3297  0.4073  0.0737
 3227TIP3    H131172   0.379   2.222  16.006 -0.2136 -0.0677  0.3068
 3227TIP3    H231173   0.441   2.101  15.939  0.8223  0.8356 -0.3927
 3228TIP3   OH231174   2.066   3.335   4.092 -0.6252 -0.0348  0.0708
 3228TIP3    H131175   2.035   3.248   4.118 -1.1235  0.0145 -0.3403
 3228TIP3    H231176   2.092   3.324   4.001 -0.1456  0.1133  0.1882
 3229TIP3   OH231177   3.734   4.340   3.495 -0.0051 -0.3957  0.0766
 3229TIP3    H131178   3.772   4.359   3.581 -0.9692  1.1185  0.1782
 3229TIP3    H231179   3.804   4.361   3.434 -0.0983  0.7711  0.3608
 3230TIP3   OH231180   5.145   1.084  13.963 -0.0585  0.2945 -0.1761
 3230TIP3    H131181   5.080   1.139  13.918 -1.0676 -1.0822 -0.4455
 3230TIP3    H231182   5.147   1.117  14.052  1.3635  2.5387 -1.0255
 3231TIP3   OH231183   1.705   1.938   5.302  0.3212  0.0315  0.2336
 3231TIP3    H131184   1.618   1.932   5.263 -0.0758  0.6874  0.9912
 3231TIP3    H231185   1.760   1.882   5.248 -0.2104  0.9001 -1.2427
 3232TIP3   OH231186   2.073   1.273  13.908 -0.1106 -0.6661 -0.1892
 3232TIP3    H131187   2.099   1.197  13.962 -0.6762 -0.6745  0.0764
 3232TIP3    H231188   2.154   1.300  13.865  0.2339 -1.0147  0.2273
 3233TIP3   OH231189   6.218   2.216   1.970  0.3706  0.0477  0.0918
 3233TIP3    H131190   6.197   2.288   2.030  1.4975  0.4797 -0.0190
 3233TIP3    H231191   6.283   2.252   1.910 -0.3099 -0.5637 -1.0334
 3234TIP3   OH231192   1.102   5.450  14.955  0.2611 -0.1004 -0.4270
 3234TIP3    H131193   1.189   5.410  14.952  0.3856  0.0110  1.2761
 3234TIP3    H231194   1.042   5.379  14.932  0.6341 -0.7730  0.6241
 3235TIP3   OH231195   5.421   3.516  12.712 -0.7477  0.3430 -0.7075
 3235TIP3    H131196   5.435   3.474  12.627 -2.3183 -0.4532 -0.5851
 3235TIP3    H231197   5.347   3.575  12.699 -0.2955  1.0437 -0.1625
 3236TIP3   OH231198   3.483   5.503   2.493  0.8860  0.5804  0.6593
 3236TIP3    H131199   3.546   5.432   2.505  0.7852  0.5873  1.2350
 3236TIP3    H231200   3.404   5.460   2.461  1.5061  0.6971 -1.0644
 3237TIP3   OH231201   5.181   0.184   0.066  0.0527  0.1448  0.5441
 3237TIP3    H131202   5.170   0.278   0.052 -3.0852 -0.3990 -1.1954
 3237TIP3    H231203   5.228   0.154  -0.012 -1.4872 -0.1546 -0.2756
 3238TIP3   OH231204   0.796   5.036   5.798 -0.3161  0.3808 -0.4364
 3238TIP3    H131205   0.840   5.061   5.879 -0.0645  0.1710 -0.5060
 3238TIP3    H231206   0.722   4.982   5.826  1.6400 -2.4440 -0.4901
 3239TIP3   OH231207   3.402   3.629  12.403 -0.4932  0.2136 -0.0867
 3239TIP3    H131208   3.348   3.673  12.469  0.3518  0.5447  0.3942
 3239TIP3    H231209   3.389   3.681  12.324 -1.8946 -0.4747 -0.3112
 3240TIP3   OH231210   2.969   4.624  13.077 -0.0574  0.7004 -0.1056
 3240TIP3    H131211   3.009   4.602  12.993 -0.5227 -0.5618 -0.0012
 3240TIP3    H231212   2.990   4.550  13.134 -1.5782  0.5532  0.2733
 3241TIP3   OH231213   3.741   4.792  14.958  0.3363 -0.0734  0.0727
 3241TIP3    H131214   3.713   4.769  15.047 -1.2982  1.3939 -0.0425
 3241TIP3    H231215   3.747   4.707  14.913  0.9315 -0.8090  1.4808
 3242TIP3   OH231216   2.394   5.719  15.772 -0.2074  0.0248 -0.2219
 3242TIP3    H131217   2.359   5.649  15.717 -2.0634  0.1320  0.7893
 3242TIP3    H231218   2.319   5.777  15.788  0.9147  1.3780  0.2958
 3243TIP3   OH231219   6.366   4.597   5.046  0.1597 -0.1925  0.3967
 3243TIP3    H131220   6.444   4.611   4.992  0.1252 -1.4536  0.0087
 3243TIP3    H231221   6.298   4.649   5.003  0.4078 -0.3039 -0.1313
 3244TIP3   OH231222   1.331   4.495   2.155  0.0490  0.4153 -0.0982
 3244TIP3    H131223   1.237   4.475   2.159 -0.0274  0.7485 -0.1847
 3244TIP3    H231224   1.374   4.414   2.181 -0.2858  0.5835  0.9930
 3245TIP3   OH231225   4.345   5.828  14.607 -0.6127  0.0905 -0.1382
 3245TIP3    H131226   4.344   5.796  14.697 -1.2790  1.5730  0.4029
 3245TIP3    H231227   4.435   5.860  14.594 -0.8952  1.1663  0.4840
 3246TIP3   OH231228   6.228   0.643  13.623 -0.0605  0.4516 -0.1285
 3246TIP3    H131229   6.280   0.668  13.547  1.1026  0.4193  0.6518
 3246TIP3    H231230   6.139   0.632  13.589  0.0341  2.4528 -1.1167
 3247TIP3   OH231231   4.706   3.373  14.053 -0.7602 -0.4880 -0.6173
 3247TIP3    H131232   4.757   3.319  14.114 -0.5358  1.9305  1.3834
 3247TIP3    H231233   4.632   3.318  14.029 -2.1667 -0.6920  3.7354
 3248TIP3   OH231234   3.015   0.589  16.965  0.1815  0.0807  0.3345
 3248TIP3    H131235   3.004   0.507  16.916 -1.7285  1.0261 -0.8808
 3248TIP3    H231236   3.106   0.615  16.948  1.3315 -2.6305  2.1109
 3249TIP3   OH231237   6.586   4.911  16.169 -0.3029  0.0673  0.9756
 3249TIP3    H131238   6.675   4.881  16.150 -0.3056  0.0644  0.9664
 3249TIP3    H231239   6.544   4.914  16.083 -0.4382 -0.3408  1.0267
 3250TIP3   OH231240   0.592   1.704  11.998 -0.3023  0.6142 -0.2252
 3250TIP3    H131241   0.559   1.727  12.085  0.5819  0.2418  0.2200
 3250TIP3    H231242   0.525   1.646  11.961 -1.3831  1.9592 -0.3930
 3251TIP3   OH231243   1.129   0.801   4.514 -0.1542 -0.2149  0.2471
 3251TIP3    H131244   1.139   0.864   4.586 -0.7452  0.1431  0.0182
 3251TIP3    H231245   1.216   0.795   4.475  0.0268  0.0589  0.6113
 3252TIP3   OH231246   1.774   6.317   0.636 -0.0854 -0.1353  0.3054
 3252TIP3    H131247   1.734   6.235   0.607  2.4913 -1.4823  0.3807
 3252TIP3    H231248   1.834   6.341   0.566 -1.4453  2.2186 -0.1162
 3253TIP3   OH231249   0.053   4.146   0.203  0.8659  0.1542 -0.1197
 3253TIP3    H131250   0.071   4.211   0.135  0.7779  1.7979  1.4265
 3253TIP3    H231251   0.061   4.193   0.285 -0.7255 -1.4351  0.9812
 3254TIP3   OH231252   2.485   0.798   1.708  0.8595  0.0989  0.5254
 3254TIP3    H131253   2.578   0.808   1.690  0.6655  1.9396  0.4460
 3254TIP3    H231254   2.447   0.883   1.686 -1.0319 -1.0061 -0.6047
 3255TIP3   OH231255   5.582   2.985  13.222 -0.2636 -0.6584  0.1096
 3255TIP3    H131256   5.597   3.033  13.140 -0.1579 -0.7204  0.0925
 3255TIP3    H231257   5.574   2.894  13.195  1.0853 -0.8512  0.2964
 3256TIP3   OH231258   0.989   6.001   3.428 -0.0765  0.4826 -0.3637
 3256TIP3    H131259   0.917   6.043   3.476  0.4070  0.6700  0.1996
 3256TIP3    H231260   0.982   5.909   3.453  0.6098  0.6929  0.6337
 3257TIP3   OH231261   4.026   1.205  13.818 -0.0486  0.2235  0.1971
 3257TIP3    H131262   4.057   1.117  13.837  0.5403  0.0659 -1.3987
 3257TIP3    H231263   4.014   1.246  13.904  2.5819 -0.4082  0.9125
 3258TIP3   OH231264   1.794   5.303   0.938  0.0315  0.5048  0.0291
 3258TIP3    H131265   1.758   5.325   1.024 -1.5157 -1.3207 -0.1336
 3258TIP3    H231266   1.873   5.358   0.931  1.6586 -1.1862  3.7005
 3259TIP3   OH231267   4.314   0.615   4.301 -0.1170 -0.4455  0.4518
 3259TIP3    H131268   4.264   0.542   4.266  0.0528 -0.4494  0.2153
 3259TIP3    H231269   4.253   0.661   4.359  0.4903 -2.1580  2.5000
 3260TIP3   OH231270   1.818   1.154  14.691  0.3967 -0.2347  0.6162
 3260TIP3    H131271   1.874   1.134  14.766  0.5252  0.5499  0.7315
 3260TIP3    H231272   1.766   1.230  14.719  0.7128  0.3048 -0.2258
 3261TIP3   OH231273   0.699   0.254  16.793  0.1013  0.4064 -0.9353
 3261TIP3    H131274   0.634   0.272  16.860  1.4155 -1.4892  0.8838
 3261TIP3    H231275   0.732   0.341  16.768  0.1827  1.0873  1.4488
 3262TIP3   OH231276   4.986   0.557  11.625 -0.0022  0.3646 -0.1566
 3262TIP3    H131277   4.963   0.486  11.685 -0.8879  0.9219  0.1657
 3262TIP3    H231278   5.078   0.541  11.604 -0.3968 -1.3388 -0.7016
 3263TIP3   OH231279   3.443   5.989   4.879  0.3792  0.2369 -0.7658
 3263TIP3    H131280   3.357   6.031   4.880  0.6221  0.7804 -1.8021
 3263TIP3    H231281   3.454   5.959   4.788 -0.4355 -3.4610  0.2746
 3264TIP3   OH231282   0.044   3.445  10.325  0.3086 -0.1353  0.2892
 3264TIP3    H131283   0.038   3.351  10.309  2.7858 -0.2545 -0.2715
 3264TIP3    H231284   0.115   3.455  10.388 -0.5297  1.2956  1.0359
 3265TIP3   OH231285   3.475   5.323   4.529 -0.4406  0.3883 -0.4355
 3265TIP3    H131286   3.509   5.323   4.439  2.2880  1.7355  0.5591
 3265TIP3    H231287   3.461   5.231   4.549  0.5941 -0.0451 -1.6270
 3266TIP3   OH231288   3.058   0.886  11.476  0.3473  0.2352 -0.0853
 3266TIP3    H131289   3.071   0.795  11.449  0.4314  0.3988 -0.5887
 3266TIP3    H231290   2.965   0.890  11.502  0.7475 -0.4072  1.5474
 3267TIP3   OH231291   2.986   1.473   0.584 -0.0436  0.4825 -0.4765
 3267TIP3    H131292   2.919   1.477   0.516 -0.6178 -1.4074 -0.0703
 3267TIP3    H231293   2.941   1.434   0.659  1.0837  0.7315  0.3426
 3268TIP3   OH231294   1.220   3.240   6.052 -0.6491  0.3112  0.1643
 3268TIP3    H131295   1.247   3.243   6.144 -0.7496 -0.9860  0.2381
 3268TIP3    H231296   1.140   3.292   6.049 -0.7155  0.2551  0.8303
 3269TIP3   OH231297   2.568   5.356  14.362 -0.1675 -0.5215  0.6654
 3269TIP3    H131298   2.503   5.390  14.425 -0.6961 -0.2690 -0.0125
 3269TIP3    H231299   2.652   5.366  14.407 -0.6038 -0.9582  1.6046
 3270TIP3   OH231300   0.821   6.749   4.002  0.6471  0.1235  0.2965
 3270TIP3    H131301   0.871   6.686   4.054  1.7918  0.6512 -0.1297
 3270TIP3    H231302   0.803   6.821   4.063 -0.6588 -0.6113  0.7818
 3271TIP3   OH231303   2.496   6.138   2.588  0.4077 -0.4995  0.6533
 3271TIP3    H131304   2.514   6.055   2.544 -1.5409 -0.2467 -0.6546
 3271TIP3    H231305   2.408   6.161   2.561  1.0262  2.1561  0.7858
 3272TIP3   OH231306   2.971   3.559   5.651  0.1165 -0.1206 -0.3492
 3272TIP3    H131307   2.977   3.654   5.634 -0.7612 -0.0604 -0.3332
 3272TIP3    H231308   2.908   3.552   5.723 -0.2881 -0.7556 -0.7638
 3273TIP3   OH231309   3.048   3.072   4.197 -0.0923 -0.3878 -0.2773
 3273TIP3    H131310   2.968   3.087   4.146  0.2968  0.6788 -0.5903
 3273TIP3    H231311   3.097   3.009   4.145 -1.6142 -2.5752  0.8964
 3274TIP3   OH231312   2.779   5.668  11.697  0.2122  0.7281  0.0395
 3274TIP3    H131313   2.727   5.692  11.620 -0.0081  0.4699  0.1061
 3274TIP3    H231314   2.718   5.676  11.771  0.5795  1.5385  0.2642
 3275TIP3   OH231315   4.154   6.807   0.230 -0.3668  0.0401  0.3891
 3275TIP3    H131316   4.121   6.897   0.229  0.3941  0.3304  1.2215
 3275TIP3    H231317   4.149   6.781   0.322 -0.8122 -0.8605  0.1185
 3276TIP3   OH231318   3.760   0.551  11.502  0.3895 -0.5202 -0.7148
 3276TIP3    H131319   3.720   0.622  11.453  2.0647  1.7324  1.0342
 3276TIP3    H231320   3.688   0.510  11.549 -0.2598  1.9053  0.5013
 3277TIP3   OH231321   2.471   3.519   2.936  0.1477  0.1140  0.4411
 3277TIP3    H131322   2.542   3.463   2.966  0.6589  0.6267  0.1934
 3277TIP3    H231323   2.505   3.608   2.945 -1.2460  0.4804  2.3937
 3278TIP3   OH231324   0.047   5.839   6.863 -0.3285 -0.0235 -0.3881
 3278TIP3    H131325  -0.047   5.824   6.876 -0.1078 -2.1218 -1.0415
 3278TIP3    H231326   0.055   5.858   6.770 -0.2678  1.6856 -0.0543
 3279TIP3   OH231327   0.059   4.780  14.497  0.4566  0.1063  0.2777
 3279TIP3    H131328   0.033   4.873  14.499 -1.6014 -0.4367  3.9482
 3279TIP3    H231329   0.153   4.782  14.511  0.4817  1.6599  0.0323
 3280TIP3   OH231330   5.073   3.024  14.728 -0.4691  0.3007  0.2419
 3280TIP3    H131331   5.002   3.055  14.671 -0.7656 -1.5732 -0.4607
 3280TIP3    H231332   5.067   2.929  14.722  1.8522  0.1263  0.5147
 3281TIP3   OH231333   2.844   1.380  15.824  0.5644 -0.4584  0.3038
 3281TIP3    H131334   2.935   1.385  15.795  0.3552 -1.6588 -0.5734
 3281TIP3    H231335   2.847   1.408  15.915  1.6688  0.4226  0.0175
 3282TIP3   OH231336   0.927   5.165   2.467  0.2339 -0.2303  0.3081
 3282TIP3    H131337   0.839   5.156   2.504 -0.5397  1.1086 -1.1754
 3282TIP3    H231338   0.972   5.224   2.527  0.2608 -1.2248  1.2848
 3283TIP3   OH231339   6.393   4.643   0.038  0.3912  1.2430 -0.3993
 3283TIP3    H131340   6.485   4.652   0.017  0.3737 -1.1270 -1.6206
 3283TIP3    H231341   6.375   4.549   0.031 -1.9462  1.5705  0.5093
 3284TIP3   OH231342   1.636   3.286  14.086  0.3594  0.0608 -0.1545
 3284TIP3    H131343   1.638   3.308  14.179  1.0183 -1.8347  0.3150
 3284TIP3    H231344   1.574   3.214  14.080  0.7292 -0.1861 -1.0872
 3285TIP3   OH231345   3.018   5.807   2.298 -0.6714 -0.3923  0.3346
 3285TIP3    H131346   3.011   5.864   2.374 -0.7684  0.1018 -0.0435
 3285TIP3    H231347   2.932   5.811   2.257  0.5884  2.7813 -2.2344
 3286TIP3   OH231348   1.472   1.731   4.476  0.2240  0.0805  0.5280
 3286TIP3    H131349   1.479   1.816   4.519  0.4195 -1.5177  3.7563
 3286TIP3    H231350   1.529   1.673   4.526 -0.5343 -2.1808 -1.1027
 3287TIP3   OH231351   0.302   1.977   2.870 -0.2302  0.2700 -0.2813
 3287TIP3    H131352   0.368   1.915   2.836 -0.7173 -0.5006  0.1638
 3287TIP3    H231353   0.333   1.999   2.958  0.4355  1.3920 -0.7882
 3288TIP3   OH231354   3.324   1.008  13.003  0.3650  0.5914 -0.1204
 3288TIP3    H131355   3.296   0.974  12.918  0.7250  0.5698 -0.2303
 3288TIP3    H231356   3.283   1.094  13.010 -0.6797  0.0729  0.2245
 3289TIP3   OH231357   1.056   5.708  17.270 -0.1003  0.5642 -0.4594
 3289TIP3    H131358   1.018   5.670  17.191 -1.9575  0.5687  0.4002
 3289TIP3    H231359   1.123   5.646  17.297 -0.7134 -0.3516 -1.0278
 3290TIP3   OH231360   5.491   5.923  12.342  0.0635 -0.4504  0.0772
 3290TIP3    H131361   5.521   5.833  12.329  3.1473  0.5426 -0.1039
 3290TIP3    H231362   5.448   5.945  12.259 -0.0884 -1.5230 -0.1443
 3291TIP3   OH231363   3.349   6.455   2.042  0.3945 -0.0813 -0.4765
 3291TIP3    H131364   3.311   6.367   2.048  1.1794 -0.5224 -1.7384
 3291TIP3    H231365   3.280   6.513   2.071 -0.5005 -1.0494 -0.6427
 3292TIP3   OH231366   3.918   6.587   6.207  0.5732 -0.0897 -0.0944
 3292TIP3    H131367   3.842   6.561   6.155  1.0815 -0.5269 -0.6089
 3292TIP3    H231368   3.881   6.610   6.292 -0.1792  0.0134 -0.4439
 3293TIP3   OH231369   4.863   0.848  11.315 -0.0180  0.2220 -0.5321
 3293TIP3    H131370   4.880   0.842  11.409 -0.5023  0.6857 -0.4100
 3293TIP3    H231371   4.836   0.760  11.290  1.6396 -0.3038 -0.5506
 3294TIP3   OH231372   1.416   1.385   2.340  0.2881  0.4630 -0.2762
 3294TIP3    H131373   1.394   1.329   2.415  0.3685  1.5689  0.5885
 3294TIP3    H231374   1.383   1.472   2.365  0.4725  0.8783 -1.4526
 3295TIP3   OH231375   2.682   1.804   5.663 -0.0236  0.7244  0.3121
 3295TIP3    H131376   2.617   1.763   5.719  0.0940 -0.9114 -0.7347
 3295TIP3    H231377   2.742   1.847   5.724 -0.8688  0.4447  1.3604
 3296TIP3   OH231378   0.513   3.807   3.948 -0.2072 -0.2594 -0.3294
 3296TIP3    H131379   0.532   3.796   3.855  0.8512  0.8668 -0.2468
 3296TIP3    H231380   0.529   3.900   3.966 -0.6722 -0.4069  0.9123
 3297TIP3   OH231381   2.208   4.579   3.282  0.0909 -0.6187 -0.4324
 3297TIP3    H131382   2.159   4.613   3.357 -0.8814 -0.9019 -0.9319
 3297TIP3    H231383   2.180   4.634   3.208  1.6607  0.1976 -0.4450
 3298TIP3   OH231384   3.515   3.506  14.490  0.1110  0.4921  0.8219
 3298TIP3    H131385   3.479   3.589  14.520 -1.2885  0.1194  0.2255
 3298TIP3    H231386   3.442   3.462  14.446  1.1634 -0.5078  0.0217
 3299TIP3   OH231387   2.009   4.475   5.848  0.7376 -0.0976 -0.2427
 3299TIP3    H131388   2.097   4.496   5.818 -0.5801  2.1609 -2.7400
 3299TIP3    H231389   1.964   4.444   5.769 -0.3419 -2.5793  1.2873
 3300TIP3   OH231390   2.707   4.542  15.297  0.0892  0.4276  0.2967
 3300TIP3    H131391   2.762   4.621  15.298 -0.9338  1.1459  1.3989
 3300TIP3    H231392   2.653   4.551  15.219  3.1503 -1.4545 -2.1475
 3301TIP3   OH231393   2.643   0.213   5.902  0.3425 -0.0335  0.4873
 3301TIP3    H131394   2.738   0.203   5.911  0.3060 -0.4663  0.3878
 3301TIP3    H231395   2.606   0.150   5.964  0.1197 -0.1385  0.2488
 3302TIP3   OH231396   4.274   1.635   4.496  1.1974 -0.0584 -0.1378
 3302TIP3    H131397   4.206   1.597   4.441  1.0787  0.8878 -0.6514
 3302TIP3    H231398   4.233   1.711   4.537  1.7692  0.1697  0.0144
 3303TIP3   OH231399   1.416   5.820   1.755 -0.2064 -0.3173 -0.1956
 3303TIP3    H131400   1.331   5.841   1.717 -1.2682 -1.5475  1.4300
 3303TIP3    H231401   1.396   5.790   1.843  2.0008  0.1680  0.4944
 3304TIP3   OH231402   0.485   2.980   5.745  0.3088 -0.1044 -0.1074
 3304TIP3    H131403   0.531   3.009   5.824  2.7145 -1.1722 -1.0893
 3304TIP3    H231404   0.405   2.939   5.778  1.0350 -0.0969  1.7382
 3305TIP3   OH231405   6.173   3.890   4.159 -0.1985 -0.1051  0.1985
 3305TIP3    H131406   6.179   3.978   4.197 -0.6762  0.5890 -1.3064
 3305TIP3    H231407   6.160   3.905   4.065 -2.2346 -1.7460  0.1818
 3306TIP3   OH231408   5.146   2.365   0.619 -0.3560 -0.0992  0.1180
 3306TIP3    H131409   5.057   2.393   0.596  0.0745  2.1071  0.9982
 3306TIP3    H231410   5.177   2.433   0.679  1.2339 -1.8684  1.3332
 3307TIP3   OH231411   2.196   1.485   1.135  0.1152 -0.6148  0.0424
 3307TIP3    H131412   2.121   1.544   1.122  1.8624  1.4658 -0.8837
 3307TIP3    H231413   2.198   1.433   1.055 -0.7914 -1.2277  0.4033
 3308TIP3   OH231414   4.128   6.599  16.872  0.4360  0.7757 -0.7546
 3308TIP3    H131415   4.154   6.507  16.880 -0.9109  0.3988 -0.6316
 3308TIP3    H231416   4.058   6.599  16.807 -1.9340  1.2354  1.6943
 3309TIP3   OH231417   3.692   2.166  14.235 -0.2534 -0.2042 -0.6398
 3309TIP3    H131418   3.651   2.248  14.262 -0.2942 -0.0884 -1.0512
 3309TIP3    H231419   3.765   2.193  14.179  0.1044 -0.4250 -0.2802
 3310TIP3   OH231420   2.304   5.799   0.924  0.0479 -0.7273  0.2050
 3310TIP3    H131421   2.255   5.882   0.928  1.6732  0.2846 -0.3948
 3310TIP3    H231422   2.377   5.812   0.984  1.4906 -0.9436 -1.4927
 3311TIP3   OH231423   1.832   1.269  15.492  0.2776  0.1408  0.6489
 3311TIP3    H131424   1.899   1.245  15.429 -0.0717  0.0309  0.3132
 3311TIP3    H231425   1.820   1.363  15.481 -1.4215 -0.2424 -1.0906
 3312TIP3   OH231426   5.692   4.965   2.390 -0.1450 -0.4010 -0.2728
 3312TIP3    H131427   5.650   4.982   2.305 -0.6571 -0.1240  0.0333
 3312TIP3    H231428   5.738   5.046   2.411  0.9306 -0.8559 -0.8221
 3313TIP3   OH231429   3.202   2.693  14.094  0.4962  0.9818 -0.9116
 3313TIP3    H131430   3.198   2.665  14.186  1.6219 -1.4141 -1.5442
 3313TIP3    H231431   3.293   2.720  14.082  0.6785  0.0868 -1.6308
 3314TIP3   OH231432   2.556   5.945  14.409  0.1474 -0.5166  0.0213
 3314TIP3    H131433   2.527   5.919  14.497 -1.0877 -0.3901 -0.3369
 3314TIP3    H231434   2.532   5.872  14.353 -0.4145  0.0336 -0.4584
 3315TIP3   OH231435   4.038   4.233   0.459  0.6983 -0.2157 -0.9547
 3315TIP3    H131436   4.097   4.295   0.501  1.8622 -1.5960 -0.5141
 3315TIP3    H231437   4.094   4.161   0.431 -0.7693 -1.5478 -0.5407
 3316TIP3   OH231438   0.419   2.887  15.147  0.1463  0.1737 -0.0977
 3316TIP3    H131439   0.446   2.923  15.231 -0.5963  0.0580  0.2036
 3316TIP3    H231440   0.345   2.829  15.169 -0.6204  0.8251 -0.9296
 3317TIP3   OH231441   1.907   3.808   4.809 -0.6741  0.5550  0.3604
 3317TIP3    H131442   1.813   3.791   4.814 -1.0569  1.6992 -2.0702
 3317TIP3    H231443   1.914   3.904   4.810  0.4117  0.4907 -0.2778
 3318TIP3   OH231444   2.778   1.491  14.402 -0.1571 -0.0184  0.1763
 3318TIP3    H131445   2.690   1.490  14.364 -0.5346  0.9185  1.0415
 3318TIP3    H231446   2.766   1.468  14.494  0.5898 -0.5757  0.1483
 3319TIP3   OH231447   0.053   3.689  11.746  0.4521 -0.2645 -0.0783
 3319TIP3    H131448   0.060   3.613  11.688  0.3838 -0.3479  0.0222
 3319TIP3    H231449   0.116   3.752  11.711 -0.8534  0.3993 -1.3417
 3320TIP3   OH231450   6.118   3.725   4.443  0.0843 -0.0415 -0.2576
 3320TIP3    H131451   6.092   3.670   4.369  1.9522 -0.2108 -0.8170
 3320TIP3    H231452   6.202   3.763   4.416 -0.1280  1.3765  1.0157
 3321TIP3   OH231453   5.408   3.529  13.853  0.1182 -0.0676 -0.4187
 3321TIP3    H131454   5.385   3.524  13.945 -0.7332 -1.5692 -0.7029
 3321TIP3    H231455   5.324   3.524  13.807  0.5879  0.0345 -1.2972
 3322TIP3   OH231456   1.747   5.580  14.854  0.2011 -0.0649  0.1798
 3322TIP3    H131457   1.681   5.536  14.908 -0.0992  0.2286  0.0559
 3322TIP3    H231458   1.713   5.573  14.765  0.9810 -1.0621 -0.0528
 3323TIP3   OH231459   5.446   5.436   3.335  0.8500 -0.5683 -0.0800
 3323TIP3    H131460   5.394   5.355   3.342 -0.5545  0.4189  1.1944
 3323TIP3    H231461   5.452   5.468   3.425  1.8243  0.5080 -0.5208
 3324TIP3   OH231462   1.440   5.374   0.534 -0.3118  0.0472  0.3053
 3324TIP3    H131463   1.434   5.374   0.439 -1.6290 -0.7233  0.3924
 3324TIP3    H231464   1.354   5.346   0.565  0.2076 -0.0584  1.7187
 3325TIP3   OH231465   0.398   5.804   3.612  0.7394 -0.6670  0.8345
 3325TIP3    H131466   0.442   5.866   3.554 -0.0048 -0.9684 -0.0578
 3325TIP3    H231467   0.351   5.745   3.554  0.9830 -1.7290  1.7065
 3326TIP3   OH231468   2.844   0.625  13.639  0.2053 -0.0744  0.2212
 3326TIP3    H131469   2.782   0.571  13.591 -0.2325 -0.6182  1.3716
 3326TIP3    H231470   2.791   0.670  13.705  0.6354  1.4208 -0.4361
 3327TIP3   OH231471   5.354   4.832   5.633 -0.2762 -0.8377 -0.1093
 3327TIP3    H131472   5.405   4.797   5.559 -1.1175  0.2948 -1.2510
 3327TIP3    H231473   5.419   4.856   5.698  0.8737  2.4042 -2.3031
 3328TIP3   OH231474   2.857   6.397   3.264  0.5832  0.0409 -0.4089
 3328TIP3    H131475   2.816   6.483   3.256  1.1931  0.4418  0.6742
 3328TIP3    H231476   2.934   6.412   3.319 -0.0469 -1.4324  0.9186
 3329TIP3   OH231477   5.198   1.544  13.392  0.1144 -0.2873  0.1287
 3329TIP3    H131478   5.180   1.633  13.422  0.1388 -0.5394  0.8981
 3329TIP3    H231479   5.201   1.492  13.472  0.4809 -0.9117 -0.2891
 3330TIP3   OH231480   2.068   0.860   1.089  0.1249 -0.4885  0.4915
 3330TIP3    H131481   2.150   0.818   1.063  0.5946  0.4689  0.4328
 3330TIP3    H231482   2.083   0.953   1.076 -0.4403 -0.1847  1.9553
 3331TIP3   OH231483   4.388   1.553  12.044 -0.0999 -0.9704  0.1096
 3331TIP3    H131484   4.331   1.630  12.044  0.8736 -0.2109 -2.6724
 3331TIP3    H231485   4.385   1.522  12.135 -1.4897  1.5854  1.0010
 3332TIP3   OH231486   0.287   4.602  12.801  0.2329 -0.4399 -0.8019
 3332TIP3    H131487   0.348   4.590  12.728  1.3569 -2.5756  0.4355
 3332TIP3    H231488   0.201   4.590  12.762  0.7491 -0.2694 -2.0294
 3333TIP3   OH231489   6.680   5.620  15.077  0.2873  0.6895  0.4541
 3333TIP3    H131490   6.761   5.668  15.096  0.1002  1.8461 -1.5549
 3333TIP3    H231491   6.632   5.677  15.017 -1.9754 -0.0352  1.5294
 3334TIP3   OH231492   1.664   3.775  12.673 -0.1227 -0.1620  0.4982
 3334TIP3    H131493   1.697   3.709  12.613 -0.0691 -0.1772  0.5435
 3334TIP3    H231494   1.622   3.840  12.617  0.6259  0.2264  0.3880
 3335TIP3   OH231495   6.091   1.328   6.139  0.4939  0.7421 -0.1477
 3335TIP3    H131496   6.118   1.334   6.231  3.8337  1.1072 -1.0803
 3335TIP3    H231497   6.051   1.413   6.120 -3.0131 -0.3852  1.7115
 3336TIP3   OH231498   3.235   2.476  15.136 -0.2863  0.0524  0.3934
 3336TIP3    H131499   3.294   2.484  15.061 -1.2710 -0.9996 -0.5122
 3336TIP3    H231500   3.264   2.396  15.181  0.8520  1.1373  1.6599
 3337TIP3   OH231501   2.118   2.644  13.796  0.3618  0.6715 -0.0862
 3337TIP3    H131502   2.044   2.611  13.848  1.3763  1.0875  1.6820
 3337TIP3    H231503   2.105   2.738  13.793  1.8452  0.9899  1.9742
 3338TIP3   OH231504   0.552   5.430  15.514 -0.2771 -0.1515 -0.3029
 3338TIP3    H131505   0.464   5.454  15.543 -0.7973 -2.6075  0.2520
 3338TIP3    H231506   0.556   5.459  15.423 -1.3630  0.7198 -0.0834
 3339TIP3   OH231507   1.119   6.046  11.448 -0.2871  0.3243 -0.1286
 3339TIP3    H131508   1.174   5.995  11.388  1.3571  1.3551  0.4492
 3339TIP3    H231509   1.144   6.137  11.430 -1.7856  0.8056  0.1984
 3340TIP3   OH231510   6.637   4.478   0.594  0.2269 -0.3945 -0.5139
 3340TIP3    H131511   6.715   4.521   0.559  1.7038 -1.9131  0.8417
 3340TIP3    H231512   6.602   4.539   0.658 -0.4726  0.8529 -2.0393
 3341TIP3   OH231513   0.098   0.608  16.955  0.1648  0.3824  0.0563
 3341TIP3    H131514   0.049   0.573  17.030  2.3788 -1.9329  0.4983
 3341TIP3    H231515   0.131   0.693  16.986  0.2852 -0.1340  1.3873
 3342TIP3   OH231516   1.127   6.176   1.402  0.3835  0.1615  0.4051
 3342TIP3    H131517   1.178   6.130   1.469 -1.6077 -1.8877  0.5696
 3342TIP3    H231518   1.107   6.108   1.338 -1.4560  1.1211 -0.0457
 3343TIP3   OH231519   3.916   1.130   0.818 -0.0006  0.3431  0.5856
 3343TIP3    H131520   3.957   1.133   0.905  2.2648  1.7371 -0.4853
 3343TIP3    H231521   3.972   1.073   0.767 -0.9779  0.0324 -0.1616
 3344TIP3   OH231522   5.806   1.747   4.611  0.0063 -0.4009 -0.2911
 3344TIP3    H131523   5.848   1.825   4.647 -0.2316 -1.0894  1.5300
 3344TIP3    H231524   5.723   1.779   4.575  0.6609  0.4429 -1.0930
 3345TIP3   OH231525   2.636   4.214  16.110 -0.6697 -0.0464  0.0121
 3345TIP3    H131526   2.562   4.190  16.165 -0.9731 -0.7820 -0.7162
 3345TIP3    H231527   2.598   4.255  16.033 -0.2029  1.8871  0.7626
 3346TIP3   OH231528   4.409   0.971  13.480  0.2265  0.3491 -0.1541
 3346TIP3    H131529   4.329   0.980  13.429 -0.0338  0.1976  0.2292
 3346TIP3    H231530   4.457   0.900  13.437  0.5025  0.9518 -0.8387
 3347TIP3   OH231531   4.459   4.767   2.117  0.3000 -0.3784  0.3205
 3347TIP3    H131532   4.460   4.850   2.165  1.2710  1.3495 -2.5023
 3347TIP3    H231533   4.403   4.784   2.041 -0.2510 -2.6280  0.1885
 3348TIP3   OH231534   0.440   0.586   2.374 -0.6443  1.0894  0.2957
 3348TIP3    H131535   0.451   0.587   2.279  0.3326 -2.9137  0.2790
 3348TIP3    H231536   0.346   0.578   2.387 -0.8132  2.0100 -0.3014
 3349TIP3   OH231537   6.783   3.831  16.934  0.2426 -0.6046 -0.3136
 3349TIP3    H131538   6.705   3.886  16.932  0.9368  0.4553  1.0944
 3349TIP3    H231539   6.758   3.755  16.986  0.6732  0.5970  1.7096
 3350TIP3   OH231540   3.622   6.814   2.125 -0.6874  0.0742  0.4204
 3350TIP3    H131541   3.651   6.851   2.209  2.0198  1.3566 -1.0442
 3350TIP3    H231542   3.592   6.726   2.148  0.5791  0.1840  2.6668
 3351TIP3   OH231543   4.621   1.159   1.227  0.1569  0.2018 -0.0630
 3351TIP3    H131544   4.635   1.165   1.321  0.3128 -0.6964 -0.0238
 3351TIP3    H231545   4.681   1.223   1.190 -0.6455  1.3032  0.5003
 3352TIP3   OH231546   5.344   0.132   5.259 -0.5103  0.5405  0.1484
 3352TIP3    H131547   5.299   0.165   5.181 -2.5272  0.6496  1.3240
 3352TIP3    H231548   5.273   0.108   5.319  0.9741 -2.2394  0.8360
 3353TIP3   OH231549   2.527   3.659   4.404  0.3310  0.1347  0.0655
 3353TIP3    H131550   2.439   3.644   4.440 -0.0646  0.3402 -0.8031
 3353TIP3    H231551   2.572   3.576   4.418  0.0525  0.0755  0.6598
 3354TIP3   OH231552   0.417   0.774   3.743  0.2011 -0.0419 -0.3502
 3354TIP3    H131553   0.335   0.811   3.777  0.3778 -0.3909  0.4788
 3354TIP3    H231554   0.398   0.681   3.730  0.4357 -0.1033 -0.2540
 3355TIP3   OH231555   0.055   3.912   1.827  0.0653  0.2697  0.1054
 3355TIP3    H131556   0.069   3.923   1.921  0.3470 -3.0685  0.5065
 3355TIP3    H231557   0.129   3.859   1.798  0.0140  1.3122 -2.0275
 3356TIP3   OH231558   0.433   6.498   1.464 -0.4963  0.3541  0.4623
 3356TIP3    H131559   0.485   6.420   1.480 -0.2816 -0.1488 -2.4079
 3356TIP3    H231560   0.467   6.534   1.383 -2.3466  1.9597  0.3510
 3357TIP3   OH231561   4.402   2.739   1.384 -0.4529 -0.3132 -0.2892
 3357TIP3    H131562   4.462   2.680   1.427 -0.2894  0.0335 -0.0402
 3357TIP3    H231563   4.444   2.825   1.389 -0.5815 -0.2092 -0.8423
 3358TIP3   OH231564   1.373   1.202   3.479 -0.0988  0.1422 -0.2947
 3358TIP3    H131565   1.336   1.114   3.470  2.8623 -1.2337  0.3382
 3358TIP3    H231566   1.326   1.254   3.414 -1.7328 -1.9365 -0.8670
 3359TIP3   OH231567   4.404   1.306  13.734 -0.0455 -0.2008 -0.0823
 3359TIP3    H131568   4.332   1.294  13.671 -1.2137  0.2184  1.1428
 3359TIP3    H231569   4.427   1.398  13.726 -0.0726 -0.1889 -0.0244
 3360TIP3   OH231570   3.650   4.266   4.725  0.1194  0.4745  0.0797
 3360TIP3    H131571   3.683   4.199   4.786  0.5294  0.3484 -0.2765
 3360TIP3    H231572   3.730   4.305   4.689 -0.1212  0.2062 -0.7508
 3361TIP3   OH231573   2.907   2.323   3.240  0.1092 -0.1307 -0.4520
 3361TIP3    H131574   2.831   2.378   3.262 -0.5294 -1.2387  0.1292
 3361TIP3    H231575   2.932   2.350   3.152  2.4557  4.1529  1.3519
 3362TIP3   OH231576   6.422   2.392   4.877  0.8124  0.3106  0.1521
 3362TIP3    H131577   6.332   2.359   4.876  0.8083  0.3265 -0.1352
 3362TIP3    H231578   6.476   2.313   4.888  0.7080  0.4358  1.5733
 3363TIP3   OH231579   4.485   2.392  14.575 -0.2599 -0.3161  0.1854
 3363TIP3    H131580   4.473   2.472  14.627  0.2482 -0.0617 -0.0918
 3363TIP3    H231581   4.461   2.321  14.635 -0.2890  0.0164  0.5687
 3364TIP3   OH231582   2.416   5.207  13.935  0.0309  0.0302  0.5886
 3364TIP3    H131583   2.388   5.158  13.858 -1.5005 -0.0602  1.1846
 3364TIP3    H231584   2.360   5.285  13.935  0.6943  0.5162  1.0714
 3365TIP3   OH231585   6.391   4.386  14.350  0.7333 -0.2220  0.5490
 3365TIP3    H131586   6.484   4.405  14.337  0.3423  0.4210 -1.5200
 3365TIP3    H231587   6.389   4.305  14.400  2.4135 -0.4456  0.2590
 3366TIP3   OH231588   5.850   5.081  11.253  0.6822  0.3145  0.2519
 3366TIP3    H131589   5.769   5.099  11.206  0.1899  0.5462  1.1898
 3366TIP3    H231590   5.829   5.097  11.345  1.2564 -1.4329  0.7037
 3367TIP3   OH231591   5.011   3.372   1.858  0.3890  0.4268 -0.3002
 3367TIP3    H131592   5.011   3.400   1.767  0.3009  0.8187 -0.1819
 3367TIP3    H231593   4.920   3.380   1.886  0.4433  0.4647 -0.1335
 3368TIP3   OH231594   3.607   4.514  16.944  0.4616  0.3960  0.4458
 3368TIP3    H131595   3.559   4.498  17.026  0.9890 -0.1494  0.6508
 3368TIP3    H231596   3.677   4.449  16.945  0.2933  0.1954 -0.5848
 3369TIP3   OH231597   2.808   4.177  11.445  0.6629 -0.2709  0.4931
 3369TIP3    H131598   2.828   4.083  11.449 -0.0705 -0.5616 -1.9141
 3369TIP3    H231599   2.892   4.218  11.423  0.5326 -0.6083 -0.6939
 3370TIP3   OH231600   2.953   3.772  16.125 -0.1037  0.4363 -0.5456
 3370TIP3    H131601   2.889   3.722  16.175  0.8921 -0.6177 -0.3023
 3370TIP3    H231602   2.909   3.855  16.105 -1.5413 -0.2806 -0.4094
 3371TIP3   OH231603   1.807   1.160   0.588  1.3923 -0.3832 -0.4858
 3371TIP3    H131604   1.732   1.103   0.569  0.4554  0.1579  1.5225
 3371TIP3    H231605   1.789   1.239   0.537 -1.2803  1.1912  2.7516
 3372TIP3   OH231606   0.473   6.024   1.148  0.0530  0.0988  0.0989
 3372TIP3    H131607   0.428   5.969   1.084 -0.6209 -0.4357  1.0221
 3372TIP3    H231608   0.561   5.988   1.154 -0.2112 -0.5185  0.2591
 3373TIP3   OH231609   2.993   0.786  12.746 -0.1448 -0.0834 -0.1730
 3373TIP3    H131610   2.978   0.694  12.769  0.5075 -0.0374  0.4523
 3373TIP3    H231611   2.906   0.826  12.749 -0.3660 -0.5786  0.0253
 3374TIP3   OH231612   2.733   0.141  12.723 -0.5822  0.2732  0.5206
 3374TIP3    H131613   2.760   0.118  12.812 -0.6386  0.5571  0.6128
 3374TIP3    H231614   2.711   0.234  12.728  0.5401  0.5791 -0.0613
 3375TIP3   OH231615   1.442   1.930   0.241  0.0623  0.0478  0.2326
 3375TIP3    H131616   1.494   1.853   0.218 -0.5203  0.1239 -1.3769
 3375TIP3    H231617   1.352   1.906   0.222 -0.2770  0.6651  0.9992
 3376TIP3   OH231618   3.433   2.446   3.194  0.5926 -0.3480 -0.0433
 3376TIP3    H131619   3.520   2.470   3.164 -0.5441 -0.1493 -3.3629
 3376TIP3    H231620   3.373   2.487   3.132 -1.9921  0.8051  3.0461
 3377TIP3   OH231621   6.437   5.465  17.173  0.4558  0.5160  0.1252
 3377TIP3    H131622   6.429   5.554  17.207  0.8278  1.4545 -2.2100
 3377TIP3    H231623   6.350   5.426  17.185 -0.3204  1.9268 -0.9127
 3378TIP3   OH231624   2.723   3.392   3.089  0.1913  0.1648  0.5635
 3378TIP3    H131625   2.689   3.310   3.055 -0.9029  0.3446  1.2143
 3378TIP3    H231626   2.811   3.399   3.051 -0.0699 -0.8355 -0.2424
 3379TIP3   OH231627   5.474   6.074   1.255  0.0013 -0.4950 -0.9831
 3379TIP3    H131628   5.544   6.115   1.204 -0.0010 -0.3198 -0.8485
 3379TIP3    H231629   5.448   5.998   1.204 -0.5224  0.1099 -1.6305
 3380TIP3   OH231630   2.993   0.365  16.795 -0.3901  0.5721  0.3491
 3380TIP3    H131631   2.976   0.271  16.802 -0.7972  0.6976  1.1326
 3380TIP3    H231632   2.937   0.394  16.723 -0.2088  0.2046  0.0573
 3381TIP3   OH231633   5.164   5.337   4.998  0.1345  0.3584 -0.7103
 3381TIP3    H131634   5.132   5.335   5.088  1.1689 -0.6108 -0.3529
 3381TIP3    H231635   5.086   5.319   4.945  0.1502 -2.4936  0.1724
 3382TIP3   OH231636   0.220   5.833   1.715 -0.8767 -0.3014  0.3409
 3382TIP3    H131637   0.225   5.912   1.662  0.8795 -1.7928 -1.8140
 3382TIP3    H231638   0.173   5.860   1.794  1.0237  3.2295  0.3544
 3383TIP3   OH231639   3.424   0.985  12.544  0.4649  0.4852  0.0596
 3383TIP3    H131640   3.507   0.956  12.505  0.6767  0.7487  0.3061
 3383TIP3    H231641   3.373   0.905  12.556  1.5974  0.0385  2.0580
 3384TIP3   OH231642   3.480   6.425  12.006 -0.2134 -0.4371  0.0036
 3384TIP3    H131643   3.488   6.392  12.095 -0.4113 -2.2267 -0.6155
 3384TIP3    H231644   3.570   6.446  11.981  0.0758 -1.5734  0.0389
 3385TIP3   OH231645   1.331   4.422  16.366 -0.3043 -0.8543  0.3736
 3385TIP3    H131646   1.247   4.452  16.400  0.4876  1.4644  0.3686
 3385TIP3    H231647   1.346   4.476  16.288  1.3743 -0.9754  0.5988
 3386TIP3   OH231648   6.291   0.456   5.968 -0.4296  0.5188  0.3394
 3386TIP3    H131649   6.294   0.369   6.007 -1.1025 -0.0510 -0.8519
 3386TIP3    H231650   6.298   0.516   6.042 -1.3549 -0.5427  1.2999
 3387TIP3   OH231651   2.797   1.231   0.705  0.7881  0.2134  0.3350
 3387TIP3    H131652   2.730   1.224   0.638  0.9746  1.9670 -0.0696
 3387TIP3    H231653   2.758   1.191   0.783  0.1850 -0.9049 -0.5319
 3388TIP3   OH231654   2.879   3.766   5.107  0.1769 -0.5195  0.3672
 3388TIP3    H131655   2.913   3.696   5.162  1.7601 -0.4190 -0.4793
 3388TIP3    H231656   2.953   3.794   5.053 -0.7443  0.9687 -0.1784
 3389TIP3   OH231657   3.980   5.964   3.229  0.3398 -0.5480 -0.1275
 3389TIP3    H131658   3.918   5.971   3.302 -0.0443 -1.9876 -0.3055
 3389TIP3    H231659   4.063   5.939   3.269 -0.0221 -1.9538 -0.2385
 3390TIP3   OH231660   5.457   2.310  10.769  0.3928 -0.6411 -0.2416
 3390TIP3    H131661   5.475   2.222  10.802  1.0674 -0.0495  0.9881
 3390TIP3    H231662   5.386   2.298  10.706  0.9545 -2.1563 -0.5963
 3391TIP3   OH231663   4.054   6.132   3.524 -0.2884  0.2304  0.4512
 3391TIP3    H131664   4.026   6.200   3.463 -0.9474  1.0000  1.5869
 3391TIP3    H231665   4.147   6.121   3.507 -0.6182 -0.1310 -1.2351
 3392TIP3   OH231666   5.781   2.940   2.661 -0.2701  0.1846  0.0450
 3392TIP3    H131667   5.845   2.872   2.641 -0.8722 -0.2459 -0.4700
 3392TIP3    H231668   5.708   2.921   2.602 -0.9595  0.5313  0.7754
 3393TIP3   OH231669   6.186   0.185  16.810 -0.2532 -0.3176  0.2956
 3393TIP3    H131670   6.178   0.275  16.776 -0.7259  1.0862  3.9256
 3393TIP3    H231671   6.268   0.185  16.859  0.2578 -2.2118 -0.5165
 3394TIP3   OH231672   5.120   4.745  11.977  0.1694  0.1337 -0.0833
 3394TIP3    H131673   5.081   4.813  12.032 -0.7757 -0.9473  0.6195
 3394TIP3    H231674   5.171   4.691  12.038  1.7797  0.8033 -0.7987
 3395TIP3   OH231675   3.026   2.962   5.647 -0.5654 -0.0649 -0.6970
 3395TIP3    H131676   3.051   2.979   5.556 -2.8608  1.2705 -1.1283
 3395TIP3    H231677   3.109   2.956   5.694  0.6605 -0.6519 -2.8499
 3396TIP3   OH231678   5.059   2.246   0.207  0.4404  0.6788 -0.5892
 3396TIP3    H131679   5.142   2.211   0.240  0.2912  1.7786  1.0188
 3396TIP3    H231680   5.081   2.334   0.177 -0.0776  0.8388 -0.4983
 3397TIP3   OH231681   1.354   6.718  14.544  0.1135 -0.0952  0.5710
 3397TIP3    H131682   1.410   6.734  14.468  0.2978 -1.1602  0.4835
 3397TIP3    H231683   1.270   6.691  14.506  0.2020 -0.6139  0.7489
 3398TIP3   OH231684   5.909   6.284  15.240 -0.3636  0.1272 -0.3027
 3398TIP3    H131685   5.935   6.220  15.306 -0.3563  1.6272  1.1832
 3398TIP3    H231686   5.924   6.240  15.156  0.7092 -1.3883  0.6677
 3399TIP3   OH231687   4.394   1.644  17.256 -0.1503 -0.4599  0.6010
 3399TIP3    H131688   4.316   1.643  17.202 -0.2026  0.7696  0.6462
 3399TIP3    H231689   4.365   1.610  17.341 -0.6970  0.2121  0.6895
 3400TIP3   OH231690   3.846   1.246   0.550 -0.4471  0.2275  0.3324
 3400TIP3    H131691   3.820   1.337   0.536  0.4182  0.4671  0.3054
 3400TIP3    H231692   3.873   1.242   0.642  1.2614  0.4200 -0.1568
 3401TIP3   OH231693   1.813   3.213  14.928  0.3907  0.0080 -0.1052
 3401TIP3    H131694   1.729   3.176  14.902 -0.2529  0.2438  1.5677
 3401TIP3    H231695   1.864   3.138  14.959  0.7121 -0.1029 -0.9027
 3402TIP3   OH231696   5.354   3.016  11.723  0.0399  0.2559  0.5517
 3402TIP3    H131697   5.266   2.980  11.738 -0.1299  0.6324  0.4576
 3402TIP3    H231698   5.412   2.942  11.740 -0.3503 -0.2682 -0.3225
 3403TIP3   OH231699   1.642   2.567   1.731  0.3335  0.1902 -0.0604
 3403TIP3    H131700   1.645   2.619   1.811  0.2125  2.1873 -1.3122
 3403TIP3    H231701   1.564   2.597   1.685  0.0284 -1.4178 -0.6086
 3404TIP3   OH231702   1.260   4.155  14.383 -0.1064 -0.2773 -0.5386
 3404TIP3    H131703   1.294   4.168  14.472 -0.6933 -0.5265 -0.2748
 3404TIP3    H231704   1.249   4.244  14.349 -0.4324 -0.1641 -0.1501
 3405TIP3   OH231705   4.575   4.469   2.995 -0.2035  0.7501 -0.0300
 3405TIP3    H131706   4.490   4.437   3.026 -0.8151 -0.2299 -2.5935
 3405TIP3    H231707   4.619   4.391   2.961  0.9148  1.5838 -0.5337
 3406TIP3   OH231708   1.441   4.556   6.186 -0.0137 -0.2141  0.0101
 3406TIP3    H131709   1.347   4.543   6.177  0.1638 -1.8879  0.3776
 3406TIP3    H231710   1.458   4.640   6.143 -1.5870 -0.1551 -0.5316
 3407TIP3   OH231711   2.412   1.424   0.330  0.3415  0.1381 -0.2718
 3407TIP3    H131712   2.327   1.401   0.367  0.2725 -0.8013 -1.0023
 3407TIP3    H231713   2.421   1.368   0.253  0.9733  1.2784 -1.0507
 3408TIP3   OH231714   4.805   4.809   2.389  0.2206  0.2463  0.0673
 3408TIP3    H131715   4.781   4.717   2.377 -0.3039  0.4933 -0.8625
 3408TIP3    H231716   4.807   4.845   2.300 -1.1784  1.5174  0.5252
 3409TIP3   OH231717   1.889   0.847  14.218 -1.2867  0.6238 -0.5276
 3409TIP3    H131718   1.837   0.810  14.289 -2.1798  0.7436 -1.1170
 3409TIP3    H231719   1.910   0.772  14.162  0.1240  0.3859  0.2883
 3410TIP3   OH231720   2.864   6.444   4.612  0.5452 -0.3913  0.4731
 3410TIP3    H131721   2.827   6.366   4.655  1.4566 -0.4896  1.1027
 3410TIP3    H231722   2.915   6.409   4.539 -1.5388 -0.1861 -1.1378
 3411TIP3   OH231723   0.090   5.011  11.409  0.4122 -0.0685  0.7165
 3411TIP3    H131724   0.150   5.023  11.336  2.3750 -3.0450  1.7519
 3411TIP3    H231725   0.010   4.977  11.369  0.5102  0.8614 -0.3010
 3412TIP3   OH231726   0.845   3.921  14.355 -0.2953  0.7218 -0.0029
 3412TIP3    H131727   0.941   3.911  14.359 -0.4178 -0.3411  0.5678
 3412TIP3    H231728   0.830   4.013  14.375  0.5736  0.7471  0.5874
 3413TIP3   OH231729   1.894   3.343   0.274 -0.1226  0.3392  0.8083
 3413TIP3    H131730   1.966   3.402   0.294  0.5161  0.1073 -0.7132
 3413TIP3    H231731   1.870   3.304   0.358  1.0898  0.8952  1.4261
 3414TIP3   OH231732   4.794   2.601  17.061 -0.3928  0.0528 -0.1461
 3414TIP3    H131733   4.763   2.687  17.032 -0.8221  0.3257  1.0849
 3414TIP3    H231734   4.876   2.619  17.108 -0.0548 -0.2987 -0.6049
 3415TIP3   OH231735   4.496   5.674   3.472 -0.6163 -0.3113 -0.5240
 3415TIP3    H131736   4.482   5.768   3.458  0.5716 -0.2718 -1.5209
 3415TIP3    H231737   4.563   5.650   3.408  0.0183 -1.5734  0.5961
 3416TIP3   OH231738   1.376   1.382  15.097  0.1780  0.1157  0.1787
 3416TIP3    H131739   1.338   1.355  15.181  1.1532  0.8012  0.8441
 3416TIP3    H231740   1.317   1.345  15.031 -0.3134 -0.8564  1.1514
 3417TIP3   OH231741   2.404   1.805  14.828 -0.3765  0.9964 -0.1439
 3417TIP3    H131742   2.378   1.731  14.883 -0.9122  0.5222 -1.0361
 3417TIP3    H231743   2.375   1.782  14.740  0.3211  1.8381 -0.6041
 3418TIP3   OH231744   2.876   0.370  14.246  0.1833 -0.3023  0.3636
 3418TIP3    H131745   2.791   0.365  14.290 -0.9897  1.6021 -1.6067
 3418TIP3    H231746   2.903   0.279  14.236 -1.3130 -0.9050  1.5832
 3419TIP3   OH231747   3.689   1.219   1.239 -0.5848 -0.5373 -0.0029
 3419TIP3    H131748   3.601   1.182   1.238 -1.2002  0.8781  0.2524
 3419TIP3    H231749   3.677   1.311   1.217  1.1792 -0.9996 -3.2998
 3420TIP3   OH231750   5.414   6.097  15.654 -0.1349  0.4869 -0.4488
 3420TIP3    H131751   5.460   6.050  15.724 -0.8465 -0.2172 -0.4425
 3420TIP3    H231752   5.445   6.187  15.661 -1.8360  0.9065  2.1674
 3421TIP3   OH231753   6.620   2.048  14.094  0.3392 -0.0878  0.2740
 3421TIP3    H131754   6.529   2.074  14.079 -0.4419 -2.4812  0.7195
 3421TIP3    H231755   6.671   2.127  14.073 -1.8844  1.5960  0.9684
 3422TIP3   OH231756   1.498   2.796   5.796 -0.2914  0.1174  0.1609
 3422TIP3    H131757   1.428   2.771   5.856  0.0099  1.9131  1.3007
 3422TIP3    H231758   1.455   2.806   5.711 -0.7866 -2.0829  0.1333
 3423TIP3   OH231759   0.540   4.297   5.944 -0.3969 -0.7598  0.0929
 3423TIP3    H131760   0.562   4.210   5.912 -0.5158 -0.6520 -0.2823
 3423TIP3    H231761   0.467   4.326   5.889  0.6476  0.2015 -0.8265
 3424TIP3   OH231762   4.759   2.271   4.533 -0.2935  0.5378 -0.2578
 3424TIP3    H131763   4.745   2.181   4.562  0.4566  0.2351 -0.8509
 3424TIP3    H231764   4.766   2.321   4.615  2.2884 -0.3902  0.1177
 3425TIP3   OH231765   4.698   0.066   2.864 -0.4550 -0.2189  0.2760
 3425TIP3    H131766   4.666  -0.021   2.888  3.1163 -1.4540  0.8277
 3425TIP3    H231767   4.728   0.056   2.773 -2.4786  1.1970 -0.5993
 3426TIP3   OH231768   0.630   6.409  15.099  0.3086  0.3450  0.1078
 3426TIP3    H131769   0.693   6.389  15.029 -1.3255  0.9819 -1.5828
 3426TIP3    H231770   0.629   6.331  15.153  1.6168 -0.1519 -0.5549
 3427TIP3   OH231771   2.634   5.686  11.473  0.1034  0.5010  0.0773
 3427TIP3    H131772   2.586   5.762  11.506  0.0046  0.3240  0.3410
 3427TIP3    H231773   2.603   5.676  11.383  0.8209  1.3478 -0.2706
 3428TIP3   OH231774   5.929   3.852   2.506  0.0549  0.3259  0.0223
 3428TIP3    H131775   5.950   3.758   2.504 -0.6970  0.1507  0.1769
 3428TIP3    H231776   5.886   3.869   2.422 -0.1244  0.4526  0.1384
 3429TIP3   OH231777   2.264   6.565   0.904 -0.5949 -0.1388 -0.1103
 3429TIP3    H131778   2.268   6.600   0.993 -2.5208  0.6433 -0.2872
 3429TIP3    H231779   2.201   6.493   0.910 -1.4717  0.5317 -0.9974
 3430TIP3   OH231780   5.684   0.333   2.609  0.0410  0.1360 -0.1296
 3430TIP3    H131781   5.740   0.357   2.536 -0.5411 -0.2322 -0.6988
 3430TIP3    H231782   5.737   0.351   2.687  2.0841 -2.9700 -0.7194
 3431TIP3   OH231783   3.874   3.249  16.960 -0.1492 -0.3209  0.3915
 3431TIP3    H131784   3.925   3.203  16.893 -1.5743 -2.3956  0.6719
 3431TIP3    H231785   3.803   3.291  16.911 -0.6089 -1.0034  0.4529
 3432TIP3   OH231786   4.041   5.821  16.991 -0.3625  0.4152  0.6484
 3432TIP3    H131787   4.113   5.777  16.947 -0.7240  0.5106 -0.0542
 3432TIP3    H231788   3.963   5.797  16.941 -0.5388  2.0000  0.1137
 3433TIP3   OH231789   4.768   5.674  11.759 -0.4147 -0.0326  0.3186
 3433TIP3    H131790   4.699   5.715  11.708 -1.1501 -1.2553  0.3228
 3433TIP3    H231791   4.723   5.634  11.833  0.0791 -2.2924 -0.5720
 3434TIP3   OH231792   0.380   3.639  11.343  0.0174  0.6297 -0.1117
 3434TIP3    H131793   0.369   3.582  11.266 -0.0024 -1.2896  1.2717
 3434TIP3    H231794   0.294   3.679  11.356 -0.8959 -1.5638  0.8264
 3435TIP3   OH231795   6.518   3.966  14.465  0.0949  0.2878 -0.1027
 3435TIP3    H131796   6.447   3.904  14.447 -0.2440  0.3944  0.8167
 3435TIP3    H231797   6.552   3.989  14.379 -0.5063 -0.3257 -0.5147
 3436TIP3   OH231798   4.806   5.374  13.331  0.5199  0.2544 -0.1459
 3436TIP3    H131799   4.882   5.321  13.306  1.3334  1.6996 -0.7753
 3436TIP3    H231800   4.819   5.393  13.424  0.1786 -0.6966  0.1085
 3437TIP3   OH231801   3.621   4.044   2.356 -0.1645 -0.2577 -0.6479
 3437TIP3    H131802   3.635   4.138   2.371 -0.4123 -0.4654  1.0602
 3437TIP3    H231803   3.533   4.039   2.319  0.0738  0.2244 -1.2913
 3438TIP3   OH231804   2.699   1.372  15.586  0.0552  0.1732 -0.1940
 3438TIP3    H131805   2.610   1.356  15.618  0.4305 -0.1721  0.6950
 3438TIP3    H231806   2.752   1.382  15.665  1.1252 -1.3956 -0.6684
 3439TIP3   OH231807   3.486   5.116   4.030  0.8207  0.1576 -0.1649
 3439TIP3    H131808   3.418   5.146   3.969  1.1110  1.6003  0.2038
 3439TIP3    H231809   3.558   5.177   4.019  1.9568 -1.1701 -0.3124
 3440TIP3   OH231810   1.675   1.878  12.516 -0.0751 -0.0209  0.1284
 3440TIP3    H131811   1.738   1.807  12.527  0.3868  0.2140 -0.9277
 3440TIP3    H231812   1.670   1.892  12.422 -0.2963  1.2283  0.3108
 3441TIP3   OH231813   5.293   5.283   5.802 -0.0743 -0.4322 -0.5074
 3441TIP3    H131814   5.380   5.281   5.763  1.1586 -1.4131  2.1897
 3441TIP3    H231815   5.275   5.192   5.826 -1.3892 -0.0608 -0.0302
 3442TIP3   OH231816   3.880   5.924   3.580 -0.4221  0.3330  0.2542
 3442TIP3    H131817   3.803   5.922   3.523  0.0260 -0.6292 -0.3221
 3442TIP3    H231818   3.935   5.994   3.545 -0.4662  0.2020 -0.0708
 3443TIP3   OH231819   0.943   1.587   6.978 -0.0257 -0.1158 -0.0657
 3443TIP3    H131820   0.918   1.679   6.982 -2.3557 -0.7220  0.0287
 3443TIP3    H231821   1.023   1.586   6.926  0.0939  1.9694  0.0502
 3444TIP3   OH231822   5.460   1.678   1.759 -0.1949  0.3493  0.3918
 3444TIP3    H131823   5.514   1.733   1.816  2.0946 -0.9423 -0.4492
 3444TIP3    H231824   5.380   1.663   1.809  1.4938 -0.2593  3.0254
 3445TIP3   OH231825   4.391   5.722  16.213 -0.1252  0.4544  1.0095
 3445TIP3    H131826   4.463   5.766  16.168 -1.7383 -0.6507 -2.8458
 3445TIP3    H231827   4.312   5.765  16.180 -1.3509  0.7664  4.1746
 3446TIP3   OH231828   0.620   1.767   5.714  0.4851 -0.0303 -0.0817
 3446TIP3    H131829   0.585   1.683   5.746 -1.1630  0.2757 -1.0263
 3446TIP3    H231830   0.558   1.832   5.747  1.1454  0.7055 -0.2983
 3447TIP3   OH231831   0.216   3.874  10.434 -0.1033  0.2600  0.3602
 3447TIP3    H131832   0.272   3.878  10.357  0.3605  0.6272  0.7129
 3447TIP3    H231833   0.196   3.965  10.454 -1.2085  0.1124 -0.0366
 3448TIP3   OH231834   0.105   4.715  11.488  0.6674  0.3286 -0.5314
 3448TIP3    H131835   0.153   4.771  11.428 -2.2404 -0.0098 -3.3605
 3448TIP3    H231836   0.127   4.626  11.460  0.1669  0.1664 -0.4186
 3449TIP3   OH231837   2.617   2.262  16.371  0.0289  1.0099  0.4825
 3449TIP3    H131838   2.698   2.291  16.415  0.8713  0.7944 -0.9030
 3449TIP3    H231839   2.585   2.341  16.327  0.0936  0.8275  0.1111
 3450TIP3   OH231840   5.042   1.062  12.011  0.4209  0.4398  0.5691
 3450TIP3    H131841   5.009   0.986  11.964 -0.5134  0.5336  1.0681
 3450TIP3    H231842   4.981   1.133  11.989  1.8282  1.2990 -0.6637
 3451TIP3   OH231843   2.219   4.255   2.103 -1.0932  0.0889  0.1434
 3451TIP3    H131844   2.229   4.228   2.012 -0.2379  0.4348  0.1323
 3451TIP3    H231845   2.293   4.312   2.120  0.3526 -2.1836  1.8862
 3452TIP3   OH231846   3.780   3.412   5.095  0.1181 -0.0053 -0.0993
 3452TIP3    H131847   3.754   3.355   5.024  0.5135 -0.2288 -0.0634
 3452TIP3    H231848   3.749   3.499   5.069 -0.0256 -0.1451 -0.3883
 3453TIP3   OH231849   0.477   0.830   5.002 -0.2365  0.1337 -0.0325
 3453TIP3    H131850   0.493   0.812   5.094  0.8986  0.4143 -0.1673
 3453TIP3    H231851   0.554   0.880   4.973  0.3668 -1.6126 -1.6119
 3454TIP3   OH231852   4.571   5.082  16.390 -0.1778  0.2646 -0.3240
 3454TIP3    H131853   4.563   4.998  16.436  0.4616  0.2150 -0.2914
 3454TIP3    H231854   4.578   5.057  16.298 -0.7303  0.3246 -0.3827
 3455TIP3   OH231855   5.015   2.154   1.932  0.4380  0.0357  0.0966
 3455TIP3    H131856   5.106   2.133   1.955  0.4921  0.0065 -0.1400
 3455TIP3    H231857   4.984   2.208   2.004  0.9681  0.8841 -0.3003
 3456TIP3   OH231858   4.616   5.144   2.178  0.1008 -0.2494  0.4353
 3456TIP3    H131859   4.524   5.135   2.202 -0.3752  1.5874 -0.5792
 3456TIP3    H231860   4.647   5.055   2.164 -2.2754 -0.7367 -1.9031
 3457TIP3   OH231861   2.701   3.088   5.309 -0.9810 -0.2385 -0.1531
 3457TIP3    H131862   2.660   3.012   5.352 -0.6259  1.6357  3.7399
 3457TIP3    H231863   2.631   3.127   5.257 -2.3599 -0.7863  1.2592
 3458TIP3   OH231864   5.730   5.921  11.635 -0.5154  0.3057 -0.4354
 3458TIP3    H131865   5.674   5.994  11.608  0.6715  1.3306 -0.1463
 3458TIP3    H231866   5.763   5.885  11.553  0.0781  1.0360 -0.5212
 3459TIP3   OH231867   0.526   2.665   5.841 -0.0984 -0.1550 -0.1358
 3459TIP3    H131868   0.432   2.683   5.827  0.4006  2.1014 -0.8328
 3459TIP3    H231869   0.554   2.734   5.901  1.5676  0.4512 -1.5836
 3460TIP3   OH231870   1.727   4.392   5.416 -0.5578 -0.3550  0.0585
 3460TIP3    H131871   1.800   4.405   5.356  0.0388 -1.9668  0.4057
 3460TIP3    H231872   1.746   4.449   5.490  1.0460 -1.7466  0.7405
 3461TIP3   OH231873   0.403   0.088  16.800  0.7277 -0.0477 -0.0099
 3461TIP3    H131874   0.365   0.156  16.857  1.1692  0.0515  0.1658
 3461TIP3    H231875   0.358   0.007  16.827  0.2572  0.1568 -0.1680
 3462TIP3   OH231876   4.281   1.514  16.422 -0.2128  0.1430 -0.3791
 3462TIP3    H131877   4.322   1.433  16.453  0.7600  0.9332  0.4429
 3462TIP3    H231878   4.343   1.549  16.358 -0.6351  0.2572 -0.7313
 3463TIP3   OH231879   4.407   2.682  13.630 -0.0840 -0.3724 -0.0593
 3463TIP3    H131880   4.449   2.724  13.556  0.9704 -0.5204  0.4443
 3463TIP3    H231881   4.383   2.595  13.598 -0.5403 -0.0791 -0.5208
 3464TIP3   OH231882   4.557   6.125   2.620 -0.0852 -0.1498 -0.2141
 3464TIP3    H131883   4.511   6.041   2.624  1.3399 -0.9939 -1.2806
 3464TIP3    H231884   4.641   6.109   2.661  0.0562  0.8503 -0.1069
 3465TIP3   OH231885   5.725   6.120   3.699  0.5818  0.1649  0.0021
 3465TIP3    H131886   5.700   6.033   3.669  1.1898 -0.3517  0.9648
 3465TIP3    H231887   5.798   6.145   3.642  0.3227  0.1092 -0.3585
 3466TIP3   OH231888   4.647   5.621   6.395  0.1079  0.5482  0.5410
 3466TIP3    H131889   4.663   5.716   6.392 -1.0276  0.7250 -0.6258
 3466TIP3    H231890   4.729   5.584   6.428  0.8660  1.8761  0.2087
 3467TIP3   OH231891   5.844   1.343   2.108 -0.2094 -0.0890  0.0036
 3467TIP3    H131892   5.752   1.359   2.091  0.1533  0.5229 -1.4853
 3467TIP3    H231893   5.847   1.256   2.147 -1.3585 -0.3404 -0.4712
 3468TIP3   OH231894   4.797   2.914  16.004 -0.3054  0.5527 -0.0949
 3468TIP3    H131895   4.718   2.953  15.966  0.7354  2.3940 -0.4260
 3468TIP3    H231896   4.797   2.944  16.095  0.1731  0.8373 -0.1851
 3469TIP3   OH231897   6.664   6.467   4.737 -0.3545  0.2009  0.1688
 3469TIP3    H131898   6.654   6.562   4.725 -1.4242  0.0037 -0.6028
 3469TIP3    H231899   6.595   6.443   4.799 -1.1372 -0.3241 -0.8970
 3470TIP3   OH231900   3.288   0.528  13.882  0.6311  0.2451 -0.3888
 3470TIP3    H131901   3.195   0.520  13.902  1.1395 -1.5055  1.5318
 3470TIP3    H231902   3.295   0.515  13.788 -1.0030 -0.2673 -0.4419
 3471TIP3   OH231903   3.801   5.852  14.423  0.3262 -0.1431 -0.3199
 3471TIP3    H131904   3.712   5.816  14.432 -0.0191  0.8347  0.1885
 3471TIP3    H231905   3.836   5.809  14.344 -1.3289  0.9553 -1.6963
 3472TIP3   OH231906   0.822   0.744   3.063 -0.1050 -0.2408  0.3836
 3472TIP3    H131907   0.774   0.784   2.990  1.2111 -0.7355 -0.7736
 3472TIP3    H231908   0.755   0.726   3.129 -1.3483 -0.0033 -0.7978
 3473TIP3   OH231909   1.216   4.544  12.992  0.0291  0.3090  0.0001
 3473TIP3    H131910   1.287   4.481  12.977  0.3902  1.1992 -2.3123
 3473TIP3    H231911   1.225   4.570  13.083  0.7349 -1.9306  0.6204
 3474TIP3   OH231912   4.449   3.780  10.389  0.4074 -0.0440 -0.3176
 3474TIP3    H131913   4.413   3.824  10.312 -0.0155  0.4758  0.1662
 3474TIP3    H231914   4.538   3.816  10.397  0.4534 -0.1011 -0.5659
 3475TIP3   OH231915   2.706   1.576  16.973  0.3136 -0.2612 -0.0046
 3475TIP3    H131916   2.700   1.491  17.017 -2.6347 -0.3782 -0.5568
 3475TIP3    H231917   2.670   1.638  17.036  0.1549  0.2092 -0.5590
 3476TIP3   OH231918   2.221   6.420   4.512  0.2934 -0.0477 -0.1769
 3476TIP3    H131919   2.297   6.446   4.460 -0.3402  3.4983  0.5465
 3476TIP3    H231920   2.150   6.477   4.482 -0.8391  0.0207  2.4553
 3477TIP3   OH231921   4.707   0.170  13.045  0.4045  0.4555  0.5755
 3477TIP3    H131922   4.647   0.113  12.997  0.8721  0.9428 -0.6183
 3477TIP3    H231923   4.702   0.254  12.998  0.2664  1.1808  1.8718
 3478TIP3   OH231924   1.707   5.420   4.226  0.3487  0.9767 -0.1418
 3478TIP3    H131925   1.678   5.501   4.268 -0.9434  0.6443 -0.3582
 3478TIP3    H231926   1.650   5.410   4.150  1.6407  0.7568 -1.0947
 3479TIP3   OH231927   1.266   5.278   3.768  0.5881  0.4949  0.3986
 3479TIP3    H131928   1.287   5.231   3.848 -0.7106 -0.3200  0.2688
 3479TIP3    H231929   1.324   5.354   3.769  2.5972 -1.0240  0.6680
 3480TIP3   OH231930   4.218   2.305  16.789  0.0230  0.0238  0.3641
 3480TIP3    H131931   4.169   2.376  16.747 -0.9553 -0.2959  0.9462
 3480TIP3    H231932   4.283   2.280  16.724 -1.5547 -0.5368 -1.0418
 3481TIP3   OH231933   3.913   2.944   0.815 -0.2534 -0.0596 -0.1367
 3481TIP3    H131934   3.823   2.976   0.804 -0.4852 -0.3033  0.9989
 3481TIP3    H231935   3.967   3.009   0.771 -0.7610  1.6748  1.7450
 3482TIP3   OH231936   1.107   2.825   3.153 -0.4204  0.3598  0.4604
 3482TIP3    H131937   1.199   2.835   3.128 -0.5076  0.0299  0.0130
 3482TIP3    H231938   1.103   2.862   3.241  0.1064  0.5338  0.4178
 3483TIP3   OH231939   2.285   0.081   2.390  0.2485 -0.4345  0.3982
 3483TIP3    H131940   2.252   0.049   2.474  2.9659 -0.7958  1.3757
 3483TIP3    H231941   2.349   0.148   2.414  2.1980 -1.6311 -1.3057
 3484TIP3   OH231942   2.906   6.644  13.274  0.4921  0.3908  0.1190
 3484TIP3    H131943   2.980   6.671  13.219  1.2172 -0.9131  0.4223
 3484TIP3    H231944   2.946   6.589  13.342 -0.9311 -1.5009 -0.5382
 3485TIP3   OH231945   6.157   2.611   1.140  0.3568 -0.0221 -0.9538
 3485TIP3    H131946   6.244   2.571   1.131  1.0298  0.8852  1.0933
 3485TIP3    H231947   6.173   2.705   1.128 -0.5566  0.0341 -1.7709
 3486TIP3   OH231948   5.566   6.429   3.509 -0.3173  0.0995  0.1625
 3486TIP3    H131949   5.563   6.409   3.603 -1.3203  0.7356  0.2767
 3486TIP3    H231950   5.488   6.482   3.494  0.8164  1.5821 -0.6663
 3487TIP3   OH231951   5.040   1.065   2.823  0.1055 -0.7908  0.3414
 3487TIP3    H131952   5.074   1.154   2.831 -0.4108 -0.6381  0.8728
 3487TIP3    H231953   5.067   1.037   2.735 -1.2364  0.5587 -0.5279
 3488TIP3   OH231954   0.809   6.170  11.826  0.1780 -0.0999  0.1526
 3488TIP3    H131955   0.826   6.264  11.829 -1.5863  0.2357  0.2050
 3488TIP3    H231956   0.721   6.162  11.789 -0.4763 -1.6228  1.9436
 3489TIP3   OH231957   3.276   4.747  12.560 -0.2234  0.0681  0.1185
 3489TIP3    H131958   3.232   4.664  12.578 -1.2115  0.5091 -0.1715
 3489TIP3    H231959   3.339   4.727  12.491 -0.4236 -0.4571  0.0882
 3490TIP3   OH231960   1.711   2.944   3.368  0.0797 -0.0820  0.4557
 3490TIP3    H131961   1.646   2.994   3.318  0.5563  0.5055  0.4203
 3490TIP3    H231962   1.770   2.909   3.301 -0.7698 -1.4540  0.4056
 3491TIP3   OH231963   0.057   4.763   3.242 -0.4485  0.2560  0.4821
 3491TIP3    H131964  -0.020   4.814   3.269  1.0818  2.9932 -0.1464
 3491TIP3    H231965   0.130   4.805   3.287  0.7160 -2.4504  1.2416
 3492TIP3   OH231966   5.443   1.659  17.111  0.1564  0.0163  0.3422
 3492TIP3    H131967   5.419   1.730  17.052  0.3109 -2.3547 -2.7160
 3492TIP3    H231968   5.360   1.624  17.143 -0.0817 -0.7355 -1.0527
 3493TIP3   OH231969   1.429   5.402  11.004  0.5709 -0.1194  0.8374
 3493TIP3    H131970   1.458   5.450  11.082  0.1816  1.4603  0.0056
 3493TIP3    H231971   1.429   5.466  10.934 -0.3756 -1.2261 -0.1988
 3494TIP3   OH231972   4.394   5.211  11.540 -0.3998 -0.0468  0.2271
 3494TIP3    H131973   4.318   5.177  11.494  0.5143 -2.0696  0.1777
 3494TIP3    H231974   4.417   5.144  11.604  2.1962 -0.1339 -0.7144
 3495TIP3   OH231975   2.838   5.754   5.959  0.4390 -0.2606  0.3271
 3495TIP3    H131976   2.777   5.810   6.008 -0.5099 -0.9042 -0.1034
 3495TIP3    H231977   2.925   5.779   5.992 -0.0475  0.7055  0.9083
 3496TIP3   OH231978   3.388   1.661  13.814 -0.3847 -0.4207  0.0813
 3496TIP3    H131979   3.460   1.652  13.753 -1.4048 -0.2350 -1.1719
 3496TIP3    H231980   3.430   1.676  13.899  1.0090  0.7517 -0.8006
 3497TIP3   OH231981   0.317   2.087   1.055 -0.4704  0.3687 -0.0146
 3497TIP3    H131982   0.382   2.027   1.018 -1.2205 -0.7165  0.4025
 3497TIP3    H231983   0.365   2.170   1.067  0.5781 -0.1446 -0.5706
 3498TIP3   OH231984   2.879   5.584  11.315  0.0102 -0.4007  0.0492
 3498TIP3    H131985   2.833   5.532  11.249 -2.6761  1.4931  0.3282
 3498TIP3    H231986   2.822   5.580  11.392 -0.2765  2.8147  0.0904
 3499TIP3   OH231987   1.607   1.149   2.649 -0.0914  0.3929  0.0250
 3499TIP3    H131988   1.514   1.170   2.662 -0.3077  0.3554 -1.4039
 3499TIP3    H231989   1.609   1.054   2.639  0.0796  0.4133 -0.1315
 3500TIP3   OH231990   0.234   5.588   3.463  0.1690  0.0257 -0.1816
 3500TIP3    H131991   0.182   5.545   3.530  0.6476 -0.9391 -0.4220
 3500TIP3    H231992   0.180   5.662   3.434 -0.4450 -0.1238  0.5795
 3501TIP3   OH231993   2.608   6.526   1.026 -0.1467 -0.5489  0.6888
 3501TIP3    H131994   2.650   6.497   1.107 -0.2200 -0.8499  0.6199
 3501TIP3    H231995   2.540   6.461   1.010  0.5300 -1.0567 -0.1585
 3502TIP3   OH231996   3.712   0.193  15.179 -0.3338 -0.8179 -0.1342
 3502TIP3    H131997   3.806   0.174  15.167  0.1190  1.9110 -1.2089
 3502TIP3    H231998   3.707   0.235  15.265 -0.2932  0.5665 -0.7863
 3503TIP3   OH231999   3.609   3.515   0.538  0.1573 -0.6801 -0.0520
 3503TIP3    H132000   3.602   3.570   0.616  0.2263 -2.3033  1.1396
 3503TIP3    H232001   3.704   3.507   0.523  0.1178  0.8344 -1.2018
 3504TIP3   OH232002   4.939   3.076  14.492  0.1654  0.1565  0.0336
 3504TIP3    H132003   5.010   3.057  14.430  0.1795 -0.8103  0.3304
 3504TIP3    H232004   4.898   2.991  14.508  0.0665  0.4125  1.2203
 3505TIP3   OH232005   2.122   5.264  11.785 -0.1937  0.0537  0.0550
 3505TIP3    H132006   2.057   5.264  11.714 -0.4446  2.3866  0.2433
 3505TIP3    H232007   2.085   5.322  11.852 -1.3461 -4.3473  3.4752
 3506TIP3   OH232008   2.265   6.476   5.642 -0.1157  1.0469  0.2618
 3506TIP3    H132009   2.170   6.476   5.651 -0.0553  0.8094  1.0096
 3506TIP3    H232010   2.294   6.410   5.706  0.5213  0.8401 -0.2389
 3507TIP3   OH232011   1.152   6.571   4.330 -0.3978  0.1226  0.5586
 3507TIP3    H132012   1.131   6.648   4.276  0.3509  0.4631  0.7526
 3507TIP3    H232013   1.212   6.604   4.396  0.9757 -0.9001 -0.1576
 3508TIP3   OH232014   1.180   3.233  12.174 -0.9672 -0.5651  0.0238
 3508TIP3    H132015   1.247   3.185  12.222 -1.5275 -0.8309  0.5549
 3508TIP3    H232016   1.132   3.280  12.242  0.9030  2.4514 -0.6515
 3509TIP3   OH232017   4.823   3.307   3.280 -0.4547 -0.8708  0.0958
 3509TIP3    H132018   4.914   3.311   3.250 -0.1078 -0.8162  1.1400
 3509TIP3    H232019   4.791   3.223   3.248 -0.0861 -0.8136 -0.4273
 3510TIP3   OH232020   1.890   2.906   0.709  0.3983  0.8009 -0.1260
 3510TIP3    H132021   1.831   2.941   0.775 -0.5288  0.2888 -0.6751
 3510TIP3    H232022   1.965   2.873   0.759  0.8942  2.7765  0.4515
 3511TIP3   OH232023   4.960   4.305   3.715  0.1690  0.0687  0.0377
 3511TIP3    H132024   4.996   4.234   3.662  0.6005  0.4845 -0.2237
 3511TIP3    H232025   4.865   4.296   3.706  0.2494  0.8641 -1.7459
 3512TIP3   OH232026   3.088   2.861  13.166  0.0914  0.0507 -0.2305
 3512TIP3    H132027   3.041   2.944  13.173  0.9657  0.4703  0.7762
 3512TIP3    H232028   3.174   2.878  13.204  0.5179 -1.1368 -0.6179
 3513TIP3   OH232029   3.917   0.608   0.776  0.2108  0.0613  0.2930
 3513TIP3    H132030   3.923   0.610   0.871 -1.3490 -1.9218  0.4599
 3513TIP3    H232031   3.877   0.524   0.756  0.4882  0.4624 -2.1263
 3514TIP3   OH232032   4.826   4.236   2.235  0.4001 -0.5835  0.0011
 3514TIP3    H132033   4.775   4.165   2.276 -0.9123  1.0163  1.1983
 3514TIP3    H232034   4.815   4.222   2.141  0.2080 -2.0052  0.2219
 3515TIP3   OH232035   1.952   2.455   5.027  0.4607 -0.8814  0.0221
 3515TIP3    H132036   1.954   2.503   5.110 -1.1731  0.0241 -0.4543
 3515TIP3    H232037   2.036   2.476   4.986 -0.1336  1.4231 -0.0785
 3516TIP3   OH232038   0.039   0.321  13.303 -0.3255 -0.0231 -0.1494
 3516TIP3    H132039  -0.009   0.389  13.351  1.6172  1.9974 -0.9960
 3516TIP3    H232040   0.130   0.333  13.330  0.3301 -0.8931 -1.9460
 3517TIP3   OH232041   2.264   2.157   4.666 -0.0495  0.5506 -0.3274
 3517TIP3    H132042   2.189   2.192   4.713  0.9353  0.6278  1.2517
 3517TIP3    H232043   2.235   2.072   4.633 -0.3012 -0.2411  1.8355
 3518TIP3   OH232044   4.557   3.143  11.568  0.8535 -0.5597  0.0312
 3518TIP3    H132045   4.546   3.074  11.504  1.0918  0.8713 -1.5841
 3518TIP3    H232046   4.483   3.132  11.628  0.8534 -2.1418 -0.2396
 3519TIP3   OH232047   2.249   1.548  13.959  0.2203 -0.3108 -0.3165
 3519TIP3    H132048   2.228   1.528  13.868  0.3416  3.3976 -1.2195
 3519TIP3    H232049   2.341   1.575  13.958 -0.4258  2.0307  0.4982
 3520TIP3   OH232050   2.965   2.781   3.666 -0.1396  0.3280  0.3583
 3520TIP3    H132051   3.048   2.829   3.666  0.4237 -0.6291  1.1842
 3520TIP3    H232052   2.962   2.737   3.581  1.3507 -1.5843  1.2692
 3521TIP3   OH232053   3.508   0.001  15.339  0.6364  0.4427 -0.2390
 3521TIP3    H132054   3.484   0.022  15.429 -1.6051  1.4116 -1.0461
 3521TIP3    H232055   3.597   0.037  15.329  0.4402  1.3567  1.2139
 3522TIP3   OH232056   0.756   4.505   3.610  0.3059 -0.6841  0.1735
 3522TIP3    H132057   0.767   4.473   3.700  1.9194 -0.0165  0.2247
 3522TIP3    H232058   0.734   4.597   3.620 -1.6885 -1.0882 -0.0778
 3523TIP3   OH232059   2.727   5.044  16.936  0.5099 -0.1883 -0.0345
 3523TIP3    H132060   2.652   5.054  16.877  0.2601  0.2406  0.3509
 3523TIP3    H232061   2.729   4.950  16.955  1.9769 -0.7049 -2.5012
 3524TIP3   OH232062   1.618   6.431   1.372  0.2120  0.0442 -0.4272
 3524TIP3    H132063   1.657   6.388   1.296  1.7396 -0.4415  0.6104
 3524TIP3    H232064   1.524   6.424   1.358  0.4813  0.6871 -2.6766
 3525TIP3   OH232065   4.185   2.150  12.504  0.4293 -0.0840  0.4177
 3525TIP3    H132066   4.162   2.233  12.461 -1.7175  0.3325  2.2391
 3525TIP3    H232067   4.101   2.106  12.517  0.9776 -0.3210  3.7872
 3526TIP3   OH232068   0.129   5.111  16.888 -0.2802 -0.4405 -0.3295
 3526TIP3    H132069   0.041   5.074  16.878  0.3942 -2.0380 -0.5058
 3526TIP3    H232070   0.188   5.036  16.884  1.0775  0.5589  0.2627
 3527TIP3   OH232071   5.007   5.169   4.299 -0.2375 -0.0733 -0.1873
 3527TIP3    H132072   4.933   5.154   4.240 -0.6904 -1.3426  0.6869
 3527TIP3    H232073   5.033   5.082   4.329  0.2068  0.5128  1.2112
 3528TIP3   OH232074   3.901   3.959   1.935  0.1848 -0.3916 -0.3627
 3528TIP3    H132075   3.964   3.889   1.923  0.6261  0.0842 -0.8482
 3528TIP3    H232076   3.897   4.004   1.851  0.3547  0.5318  0.1103
 3529TIP3   OH232077   5.940   2.446  15.773 -0.0224 -0.4625 -0.0642
 3529TIP3    H132078   5.868   2.414  15.718 -0.7819  1.2273 -0.0989
 3529TIP3    H232079   6.006   2.476  15.711  0.0275 -0.5492 -0.0516
 3530TIP3   OH232080   3.283   5.703  14.038  0.0282  0.4306  0.4743
 3530TIP3    H132081   3.371   5.684  14.072 -0.0990 -1.1291 -0.0531
 3530TIP3    H232082   3.236   5.620  14.045 -1.5618  1.3800  1.1952
 3531TIP3   OH232083   3.299   5.612   4.824  0.0665 -0.6958 -0.5701
 3531TIP3    H132084   3.297   5.573   4.911 -0.1192 -1.3898 -0.8799
 3531TIP3    H232085   3.206   5.622   4.801  0.0936 -1.8503 -1.2669
 3532TIP3   OH232086   0.591   5.614   3.073 -0.1566 -0.2875  0.2248
 3532TIP3    H132087   0.509   5.632   3.027 -0.3922 -1.4650  0.1760
 3532TIP3    H232088   0.599   5.519   3.073  1.2633 -0.1859  0.1432
 3533TIP3   OH232089   4.024   0.876   3.805 -0.0456  0.5988  0.1255
 3533TIP3    H132090   3.936   0.841   3.815  0.4201 -1.4814 -2.4222
 3533TIP3    H232091   4.044   0.917   3.889 -2.5519 -0.9127  1.4993
 3534TIP3   OH232092   3.864   0.721  11.136 -0.3113  0.2595  0.1962
 3534TIP3    H132093   3.813   0.760  11.065 -1.3233 -1.7349 -0.2143
 3534TIP3    H232094   3.887   0.634  11.103  2.5958  0.7744  0.7594
 3535TIP3   OH232095   0.554   5.557  17.261 -0.0353 -0.6478  0.5410
 3535TIP3    H132096   0.637   5.550  17.214  1.1536 -1.5799  2.6907
 3535TIP3    H232097   0.563   5.496  17.335 -3.3988 -2.2060 -0.2489
 3536TIP3   OH232098   5.919   2.783  11.706 -0.0614  0.1802 -0.0252
 3536TIP3    H132099   6.009   2.757  11.725  0.3804  1.3130 -0.5005
 3536TIP3    H232100   5.886   2.814  11.791  0.1958  0.3308  0.0221
 3537TIP3   OH232101   3.061   0.860   2.643  0.3830  0.1133  0.3549
 3537TIP3    H132102   3.121   0.922   2.685  0.2534 -0.0853  0.8217
 3537TIP3    H232103   2.978   0.871   2.690 -0.0310  0.5862 -0.4665
 3538TIP3   OH232104   3.483   1.772  15.542  0.2225  0.7172 -0.2326
 3538TIP3    H132105   3.525   1.849  15.580  0.2053  0.4320  0.3597
 3538TIP3    H232106   3.399   1.804  15.509 -1.2413  0.3086  2.9003
 3539TIP3   OH232107   5.280   1.062  13.421 -0.1803 -0.6562 -0.6971
 3539TIP3    H132108   5.241   1.041  13.506 -1.1802 -1.2761 -1.2941
 3539TIP3    H232109   5.206   1.095  13.369  1.1210  3.3879 -0.1244
 3540TIP3   OH232110   3.080   0.117  12.479  0.3914  0.2930  0.1125
 3540TIP3    H132111   3.159   0.082  12.521 -0.0318  0.9927  1.5383
 3540TIP3    H232112   3.080   0.210  12.502 -1.4798  0.0525  1.1811
 3541TIP3   OH232113   4.150   1.874  14.680 -0.1157  0.1230  0.6665
 3541TIP3    H132114   4.170   1.860  14.772  1.3514  0.8532  0.4649
 3541TIP3    H232115   4.059   1.905  14.680 -0.0765  0.2652  1.8813
 3542TIP3   OH232116   1.113   2.984   5.989 -0.1132 -0.2622  0.6141
 3542TIP3    H132117   1.068   2.969   6.072 -3.3237 -0.6112 -1.0947
 3542TIP3    H232118   1.127   3.079   5.987  0.2195 -0.2832  1.6571
 3543TIP3   OH232119   4.602   6.534  11.669 -0.2315  0.2051 -0.2911
 3543TIP3    H132120   4.587   6.522  11.576 -1.5000 -0.9558  0.0478
 3543TIP3    H232121   4.565   6.456  11.710  1.6750 -0.0349  1.0622
 3544TIP3   OH232122   1.845   5.569   1.834  0.1566 -0.7607 -0.5125
 3544TIP3    H132123   1.794   5.544   1.911 -0.8166  0.6115 -0.6889
 3544TIP3    H232124   1.845   5.490   1.779 -0.9193 -1.0930 -0.0562
 3545TIP3   OH232125   5.101   4.117  12.095 -0.6500  0.3274  0.6376
 3545TIP3    H132126   5.013   4.128  12.132 -2.7325 -0.6036 -3.6780
 3545TIP3    H232127   5.101   4.027  12.061  1.9981  0.3209  0.5832
 3546TIP3   OH232128   1.036   3.308   0.129  0.3583 -0.2735 -0.6050
 3546TIP3    H132129   1.101   3.256   0.082  1.4093  0.1327  0.3650
 3546TIP3    H232130   1.060   3.297   0.222 -2.5756 -2.3122 -0.0307
 3547TIP3   OH232131   1.005   5.803  12.473  0.0186  0.1186 -0.0220
 3547TIP3    H132132   0.995   5.897  12.489 -1.0887  0.0178 -0.0811
 3547TIP3    H232133   1.095   5.794  12.442  0.0284  1.2064 -0.3472
 3548TIP3   OH232134   4.539   4.088  16.777  0.3045  0.6364  0.2426
 3548TIP3    H132135   4.543   3.997  16.749 -1.0992  1.2386 -2.0052
 3548TIP3    H232136   4.449   4.100  16.807  1.1192  0.6802  2.7415
 3549TIP3   OH232137   1.819   2.043   5.993 -0.0239 -0.3213  0.2912
 3549TIP3    H132138   1.805   1.949   6.007 -0.3011 -0.3448 -0.1364
 3549TIP3    H232139   1.882   2.047   5.921 -0.1547 -0.1803  0.1824
 3550TIP3   OH232140   2.484   6.755  16.752  0.2737  0.7974  0.0310
 3550TIP3    H132141   2.546   6.682  16.763  0.6511  0.7148 -2.2908
 3550TIP3    H232142   2.398   6.713  16.753  0.1784  0.9365  3.4949
 3551TIP3   OH232143   6.297   3.810   2.107 -0.4352 -0.1861 -0.2478
 3551TIP3    H132144   6.376   3.852   2.073  0.8159 -1.5041  0.9900
 3551TIP3    H232145   6.261   3.874   2.168 -0.4561  0.5072 -0.9724
 3552TIP3   OH232146   2.124   2.578   1.268 -0.3373 -0.3363  0.1477
 3552TIP3    H132147   2.115   2.600   1.176 -0.8200  0.5555  0.4021
 3552TIP3    H232148   2.077   2.495   1.278  2.3667 -2.0988 -1.0170
 3553TIP3   OH232149   3.693   6.417  15.476  0.0445  0.0988 -0.0187
 3553TIP3    H132150   3.718   6.388  15.564  0.8479  0.2593 -0.1861
 3553TIP3    H232151   3.724   6.346  15.419  0.8801  0.6893 -0.3096
 3554TIP3   OH232152   1.595   6.220   1.989 -0.1045  0.3032  0.0755
 3554TIP3    H132153   1.671   6.267   1.955 -1.1377  1.2696 -0.9593
 3554TIP3    H232154   1.536   6.212   1.913 -0.5664 -1.3711  0.6028
 3555TIP3   OH232155   4.114   4.353   2.968 -0.1570  0.6553 -0.2784
 3555TIP3    H132156   4.035   4.326   2.922 -0.9053  1.3650  0.5716
 3555TIP3    H232157   4.178   4.285   2.948 -1.4688 -0.8012  0.3732
 3556TIP3   OH232158   0.784   2.497  11.507 -0.0518 -0.0291 -0.3228
 3556TIP3    H132159   0.868   2.459  11.534  0.1245 -1.5524 -2.8972
 3556TIP3    H232160   0.722   2.424  11.511 -0.8941  0.6917 -0.1083
 3557TIP3   OH232161   1.120   3.275   5.061 -0.0495 -0.1682  0.1752
 3557TIP3    H132162   1.206   3.309   5.084  0.1494  0.8215 -1.8908
 3557TIP3    H232163   1.086   3.238   5.142  1.8438  0.4528  1.2811
 3558TIP3   OH232164   2.160   2.826   2.996 -0.2803  0.2496  0.6936
 3558TIP3    H132165   2.203   2.874   3.066  0.1277 -0.1138  0.6897
 3558TIP3    H232166   2.111   2.893   2.948  2.4473  1.1109 -0.9604
 3559TIP3   OH232167   6.294   6.582  14.969 -0.5832 -0.0924 -0.1859
 3559TIP3    H132168   6.265   6.604  15.057  0.3373  0.5991 -0.0537
 3559TIP3    H232169   6.212   6.571  14.919 -1.1205 -1.0994  0.8827
 3560TIP3   OH232170   5.142   1.528  14.927 -0.3584 -0.5973 -0.3228
 3560TIP3    H132171   5.205   1.550  14.858  0.2008 -0.4436  0.2339
 3560TIP3    H232172   5.193   1.479  14.992 -1.1342 -1.7368 -0.5553
 3561TIP3   OH232173   2.004   2.069   3.398  0.1513 -0.3634 -0.2482
 3561TIP3    H132174   1.982   2.161   3.416  0.6371 -0.0714 -1.1382
 3561TIP3    H232175   2.079   2.052   3.455  0.8783  0.1836 -1.0276
 3562TIP3   OH232176   3.533   3.197   4.943  0.0840 -0.1159  0.0411
 3562TIP3    H132177   3.460   3.247   4.907  1.1651  0.3291 -1.5880
 3562TIP3    H232178   3.530   3.114   4.896  2.5570  1.1222 -2.4357
 3563TIP3   OH232179   4.550   4.634  14.107  0.7811 -0.6281 -0.3155
 3563TIP3    H132180   4.579   4.675  14.025  2.0088 -0.6179  0.1224
 3563TIP3    H232181   4.610   4.669  14.174 -0.5340 -0.2392  0.6776
 3564TIP3   OH232182   6.309   6.508   4.396 -0.5577  0.4622  0.8735
 3564TIP3    H132183   6.358   6.439   4.440 -1.4381 -0.6296  0.1808
 3564TIP3    H232184   6.244   6.536   4.460 -2.3238 -1.6409  0.0789
 3565TIP3   OH232185   0.372   5.985   2.104 -0.1182 -0.7221  0.2875
 3565TIP3    H132186   0.386   5.909   2.162 -2.0672 -0.4006  1.2146
 3565TIP3    H232187   0.376   6.060   2.163  1.9997 -0.0475 -0.6630
 3566TIP3   OH232188   5.653   6.047   2.808  0.6484  0.7070  0.3540
 3566TIP3    H132189   5.627   6.009   2.891  2.0504  0.4154  0.6771
 3566TIP3    H232190   5.739   6.008   2.789 -0.5406 -0.8176 -2.2422
 3567TIP3   OH232191   6.157   0.161   2.785 -0.0013  0.2000  0.0473
 3567TIP3    H132192   6.211   0.219   2.732  0.7872 -0.6406 -0.0775
 3567TIP3    H232193   6.068   0.174   2.752  0.2999  0.6418 -0.5953
 3568TIP3   OH232194   6.349   3.035   0.340  0.0566  0.4667  0.2545
 3568TIP3    H132195   6.417   2.968   0.346 -1.0667 -0.6967  0.3703
 3568TIP3    H232196   6.285   3.009   0.407  0.3239  2.5150  1.3398
 3569TIP3   OH232197   1.641   5.841  15.274 -0.1769  0.4345 -0.3208
 3569TIP3    H132198   1.733   5.836  15.249 -0.0621 -0.0564  0.1795
 3569TIP3    H232199   1.592   5.818  15.195  0.1465  0.0274 -0.3973
 3570TIP3   OH232200   1.848   6.061  13.478 -0.9343 -0.2152 -0.3641
 3570TIP3    H132201   1.820   6.151  13.499 -2.5167 -0.2089 -2.3274
 3570TIP3    H232202   1.943   6.066  13.471 -0.9497  1.1520  0.1906
 3571TIP3   OH232203   1.120   0.665  17.156  0.1133  0.0431  0.0043
 3571TIP3    H132204   1.127   0.698  17.246  1.3006 -0.0830 -0.0327
 3571TIP3    H232205   1.179   0.590  17.153 -0.0737 -0.0776 -0.8294
 3572TIP3   OH232206   6.091   5.385   2.473 -0.3538 -0.3594 -0.0385
 3572TIP3    H132207   5.996   5.392   2.459 -0.0344  2.4971 -1.0823
 3572TIP3    H232208   6.099   5.346   2.560 -2.4852 -0.4966  0.1389
 3573TIP3   OH232209   2.709   6.150   4.400  0.1505 -0.0181 -0.0720
 3573TIP3    H132210   2.646   6.093   4.445  0.5158  0.7528  1.4571
 3573TIP3    H232211   2.710   6.230   4.453  1.3940  0.4987 -0.8729
 3574TIP3   OH232212   6.151   5.756  17.286  0.5396 -0.3526 -0.0957
 3574TIP3    H132213   6.202   5.676  17.276  0.9781 -0.2009  0.8607
 3574TIP3    H232214   6.187   5.799  17.364  1.4611  1.6494 -1.5852
 3575TIP3   OH232215   5.114   0.928  10.755  0.5158 -0.5268 -0.5467
 3575TIP3    H132216   5.188   0.867  10.764  0.5151 -0.5375 -0.6198
 3575TIP3    H232217   5.072   0.903  10.673  1.9464  1.1455 -1.8020
 3576TIP3   OH232218   0.065   5.539  17.266  0.2220  0.1024  0.3828
 3576TIP3    H132219  -0.006   5.502  17.214  0.8190 -2.4778  1.3044
 3576TIP3    H232220   0.129   5.568  17.201 -1.2770  1.7075 -0.4265
 3577TIP3   OH232221   3.331   4.245  16.304 -0.0529 -0.3052 -0.2075
 3577TIP3    H132222   3.322   4.334  16.337 -0.2172 -0.2782 -0.3290
 3577TIP3    H232223   3.381   4.254  16.223 -0.1714 -0.3103 -0.2843
 3578TIP3   OH232224   2.985   3.578   1.473 -0.2237  0.4964  0.0904
 3578TIP3    H132225   2.896   3.558   1.501  0.5996 -2.0345  1.0381
 3578TIP3    H232226   3.025   3.622   1.548  0.3807 -1.5650  1.0070
 3579TIP3   OH232227   5.839   0.370   3.643 -0.0650  0.0744  0.6943
 3579TIP3    H132228   5.832   0.343   3.552 -1.8492 -1.4327  1.2569
 3579TIP3    H232229   5.914   0.321   3.677 -0.4297 -0.6334  0.4764
 3580TIP3   OH232230   6.522   4.629   4.514 -0.1412 -0.1979 -0.5026
 3580TIP3    H132231   6.510   4.600   4.604 -0.2618 -0.3572 -0.5679
 3580TIP3    H232232   6.590   4.696   4.518 -0.9190  0.5880 -0.1358
 3581TIP3   OH232233   2.217   0.141  14.865  0.1848  0.1182 -0.1346
 3581TIP3    H132234   2.201   0.234  14.845  0.4649  0.1457 -0.2341
 3581TIP3    H232235   2.140   0.114  14.915 -0.1703  0.2488 -0.6068
 3582TIP3   OH232236   4.062   4.302   6.266  0.0019 -0.2959  0.6691
 3582TIP3    H132237   3.988   4.317   6.206  1.0046  0.4561 -0.3984
 3582TIP3    H232238   4.059   4.376   6.327 -1.0972 -1.1286  1.6628
 3583TIP3   OH232239   5.381   2.889   2.222  0.0298  0.3186  0.2263
 3583TIP3    H132240   5.305   2.906   2.278  0.8876  0.0554  1.4837
 3583TIP3    H232241   5.389   2.793   2.221  0.8012  0.3710  0.7283
 3584TIP3   OH232242   3.118   0.001  15.118  0.2153  0.4522 -0.2406
 3584TIP3    H132243   3.118  -0.009  15.213  0.5698 -1.6531 -0.4412
 3584TIP3    H232244   3.204   0.039  15.098 -0.3070  1.9908  0.3643
 3585TIP3   OH232245   6.613   1.995  11.895  0.2351 -0.0627 -0.4733
 3585TIP3    H132246   6.579   2.027  11.978  2.7530  0.2905  0.4734
 3585TIP3    H232247   6.535   1.979  11.841 -1.3437  1.2677  1.3615
 3586TIP3   OH232248   3.990   6.679   1.001  0.0088  0.4298 -0.0358
 3586TIP3    H132249   3.983   6.587   1.025  0.7478 -0.0733 -1.6279
 3586TIP3    H232250   4.072   6.708   1.040 -0.1578  0.3733  0.3551
 3587TIP3   OH232251   6.358   5.837   0.388 -0.2166  0.1166  0.4715
 3587TIP3    H132252   6.412   5.913   0.412 -1.8590  1.4124  0.1078
 3587TIP3    H232253   6.305   5.867   0.315 -0.0034 -1.7834 -0.4909
 3588TIP3   OH232254   4.196   1.652  14.059 -0.3767  0.5379 -0.2221
 3588TIP3    H132255   4.183   1.746  14.056  3.8379  1.2033 -0.4561
 3588TIP3    H232256   4.203   1.632  14.153  3.0861  1.2357 -0.2618
 3589TIP3   OH232257   4.495   4.781  11.554  0.2398  0.6175 -0.0607
 3589TIP3    H132258   4.499   4.727  11.633  1.4115  1.7165  0.6363
 3589TIP3    H232259   4.566   4.747  11.499 -2.0438 -1.7331 -1.7043
 3590TIP3   OH232260   0.330   6.588   3.097 -0.0032  0.1284 -0.5343
 3590TIP3    H132261   0.415   6.558   3.064 -0.2428  0.1749 -1.2127
 3590TIP3    H232262   0.348   6.675   3.134 -0.1384  1.0663 -2.5897
 3591TIP3   OH232263   3.530   5.685   3.690 -0.1168  0.6114 -0.6954
 3591TIP3    H132264   3.485   5.768   3.704 -1.4228 -0.1631 -0.2138
 3591TIP3    H232265   3.460   5.621   3.681  0.7881 -0.0300 -3.7927
 3592TIP3   OH232266   6.780   3.406  15.384  0.4364  0.0203 -0.2354
 3592TIP3    H132267   6.764   3.371  15.296  0.4525  0.1905 -0.3064
 3592TIP3    H232268   6.709   3.370  15.437 -0.6589  1.4106 -0.7155
 3593TIP3   OH232269   6.331   1.921   5.889 -0.0701  0.0584 -0.6628
 3593TIP3    H132270   6.266   1.903   5.957 -0.1030  1.6560 -0.2547
 3593TIP3    H232271   6.379   1.997   5.921  2.8584 -1.8156 -0.3703
 3594TIP3   OH232272   3.923   4.384   1.447  0.0033  0.2991 -0.0900
 3594TIP3    H132273   3.889   4.296   1.462  1.8140 -0.1318  1.4709
 3594TIP3    H232274   3.885   4.409   1.362 -0.8044 -1.8270 -0.3890
 3595TIP3   OH232275   2.080   4.077  11.538 -0.1573  0.0143 -0.5190
 3595TIP3    H132276   2.083   4.113  11.450 -2.2675 -0.6850 -0.9031
 3595TIP3    H232277   1.989   4.049  11.550  0.8151 -2.8171  0.6981
 3596TIP3   OH232278   3.491   1.139   0.634 -0.2007 -0.1023  0.6612
 3596TIP3    H132279   3.431   1.144   0.560 -0.7452  1.5659  1.1823
 3596TIP3    H232280   3.497   1.046   0.654 -0.2374 -0.5522 -1.3107
 3597TIP3   OH232281   4.172   3.369  12.475  0.1596 -0.3378 -0.2506
 3597TIP3    H132282   4.218   3.288  12.495  0.2588 -0.5319 -1.2735
 3597TIP3    H232283   4.080   3.350  12.494  0.3810 -0.1924  1.0267
 3598TIP3   OH232284   5.749   1.850  15.287  1.0508 -0.1412  0.4636
 3598TIP3    H132285   5.830   1.900  15.283  0.5514  0.7599  1.3673
 3598TIP3    H232286   5.743   1.821  15.378 -1.0055  2.1339  1.0922
 3599TIP3   OH232287   1.294   5.574   4.049  0.3177  0.0724 -0.2725
 3599TIP3    H132288   1.255   5.647   4.097 -1.1173 -0.3173 -0.8225
 3599TIP3    H232289   1.311   5.609   3.962 -1.6965 -0.6365 -0.9735
 3600TIP3   OH232290   6.301   0.355   6.598  0.5210 -0.3375 -0.0401
 3600TIP3    H132291   6.260   0.285   6.548 -0.8355 -1.3379  2.3645
 3600TIP3    H232292   6.247   0.363   6.676  1.5428  2.3715  0.4472
 3601TIP3   OH232293   2.163   4.262  16.981 -0.3333 -0.4655  0.0291
 3601TIP3    H132294   2.120   4.307  16.909  1.0870 -1.1373 -1.2754
 3601TIP3    H232295   2.098   4.202  17.015 -1.2359  0.3544 -0.2355
 3602TIP3   OH232296   2.785   3.928  11.004 -0.1286  0.3681 -0.0822
 3602TIP3    H132297   2.819   3.863  11.066  0.9326  0.2173 -0.7978
 3602TIP3    H232298   2.705   3.889  10.970 -2.3444  1.7235  3.3465
 3603TIP3   OH232299   6.048   1.103  10.555  0.5120 -0.1698 -0.4208
 3603TIP3    H132300   6.113   1.123  10.623 -0.7097  1.7019  0.2396
 3603TIP3    H232301   6.086   1.029  10.507  1.7982 -0.9868  1.7502
 3604TIP3   OH232302   3.732   0.391  15.425  0.5478 -0.1938 -0.6245
 3604TIP3    H132303   3.697   0.449  15.357  1.0317 -0.9680 -1.5416
 3604TIP3    H232304   3.676   0.408  15.501  1.1979  2.0689 -0.6111
 3605TIP3   OH232305   5.300   2.775  13.582 -0.1085 -0.7370 -0.1707
 3605TIP3    H132306   5.271   2.792  13.492  0.0004 -0.7317 -0.2050
 3605TIP3    H232307   5.395   2.786  13.578 -0.1230 -0.5462 -0.0138
 3606TIP3   OH232308   0.525   4.285  15.264  0.0131  0.1130 -0.0184
 3606TIP3    H132309   0.550   4.193  15.271 -0.6514 -0.1219 -0.6124
 3606TIP3    H232310   0.483   4.305  15.348 -0.9253 -0.4753 -0.3348
 3607TIP3   OH232311   2.793   4.753  14.076 -0.1513 -0.0119 -0.2934
 3607TIP3    H132312   2.821   4.666  14.105  0.4338  0.3335  0.1858
 3607TIP3    H232313   2.757   4.739  13.989 -0.3091 -0.7812 -0.1097
 3608TIP3   OH232314   4.627   1.757   5.940 -0.7364  0.2202  0.6425
 3608TIP3    H132315   4.678   1.832   5.971  0.0867 -0.5240  1.1096
 3608TIP3    H232316   4.570   1.736   6.013 -2.2119  1.4602 -0.1127
 3609TIP3   OH232317   0.395   2.055   5.104 -0.5210 -0.5244  0.4531
 3609TIP3    H132318   0.355   1.982   5.150 -0.4009 -0.5283  0.5552
 3609TIP3    H232319   0.435   2.107   5.174  0.5071 -1.0506  0.2605
 3610TIP3   OH232320   2.023   6.703  14.369  0.7006 -0.1764  0.2478
 3610TIP3    H132321   2.077   6.631  14.402  0.8837  1.1254  2.9779
 3610TIP3    H232322   1.941   6.696  14.419  0.1398  0.5945 -0.5613
 3611TIP3   OH232323   6.024   1.063  11.805 -0.0054  0.0338 -0.0180
 3611TIP3    H132324   6.026   1.032  11.715 -2.0924  0.7886 -0.3348
 3611TIP3    H232325   6.032   0.984  11.858 -0.0209 -0.5236 -0.8406
 3612TIP3   OH232326   0.591   3.459  16.970 -0.0635 -0.5857 -0.4846
 3612TIP3    H132327   0.635   3.526  16.917  1.1348 -1.7192 -0.9614
 3612TIP3    H232328   0.605   3.486  17.060 -0.2606  0.2166 -0.6901
 3613TIP3   OH232329   0.118   0.322   0.730 -0.3599  0.0797  0.7747
 3613TIP3    H132330   0.184   0.390   0.743 -0.6637  0.1187  2.2647
 3613TIP3    H232331   0.166   0.240   0.739  0.2229  0.0681 -2.1773
 3614TIP3   OH232332   0.587   2.814  10.823 -0.1680 -0.1351  0.2006
 3614TIP3    H132333   0.561   2.731  10.783  1.4660  0.3423 -1.9716
 3614TIP3    H232334   0.663   2.792  10.878 -0.1792 -0.2036  0.1889
 3615TIP3   OH232335   2.623   3.603   5.031  0.5148 -0.5928 -0.0583
 3615TIP3    H132336   2.671   3.604   5.114 -0.5667  0.3858  0.5552
 3615TIP3    H232337   2.691   3.588   4.965  2.1085  3.4738  0.5469
 3616TIP3   OH232338   1.721   2.428  12.782  0.4854 -0.0263 -0.3335
 3616TIP3    H132339   1.671   2.479  12.718 -0.6858  0.1740  0.7153
 3616TIP3    H232340   1.799   2.482  12.800 -0.5724  1.2799  0.5063
 3617TIP3   OH232341   0.549   4.989   1.640  0.1773 -0.2061 -0.4855
 3617TIP3    H132342   0.619   4.929   1.664 -0.0418 -1.1754 -2.1913
 3617TIP3    H232343   0.592   5.072   1.622  0.7192 -0.4078 -0.1033
 3618TIP3   OH232344   2.887   1.955  16.995 -0.2686  0.6441  0.0114
 3618TIP3    H132345   2.926   2.008  17.065  1.4988 -0.5169 -0.0414
 3618TIP3    H232346   2.930   1.869  17.004 -1.0942  0.0522 -1.5768
 3619TIP3   OH232347   1.379   4.565  16.922  0.4310  0.0395  0.0727
 3619TIP3    H132348   1.345   4.628  16.859  1.7698 -0.4266 -1.1602
 3619TIP3    H232349   1.456   4.607  16.960  0.9470 -0.5729 -0.2737
 3620TIP3   OH232350   1.780   2.575  11.028  0.2462 -0.4315  0.1109
 3620TIP3    H132351   1.800   2.666  11.006  3.0515 -0.7811  1.0963
 3620TIP3    H232352   1.696   2.558  10.984 -2.1966  3.7042  2.8101
 3621TIP3   OH232353   0.963   3.053  14.607  0.3078  0.3100 -0.0793
 3621TIP3    H132354   0.939   3.118  14.541 -1.3276 -0.5274 -0.3040
 3621TIP3    H232355   0.899   3.065  14.678  1.0550  0.1031  0.6456
 3622TIP3   OH232356   6.124   2.817  10.955 -0.4095 -0.2573 -0.1529
 3622TIP3    H132357   6.159   2.847  10.871 -1.1159  2.6212  0.5292
 3622TIP3    H232358   6.051   2.759  10.932  0.1794 -0.4813 -1.5118
 3623TIP3   OH232359   6.133   1.796  13.813  0.1401  0.2982  0.0517
 3623TIP3    H132360   6.131   1.743  13.734 -1.5164  1.1260 -0.4909
 3623TIP3    H232361   6.084   1.876  13.790  0.3974  0.9335  1.6221
 3624TIP3   OH232362   4.118   5.769  14.399  0.0565  0.3107 -0.2327
 3624TIP3    H132363   4.194   5.742  14.451 -0.6787 -0.5643  0.4086
 3624TIP3    H232364   4.148   5.846  14.352  1.6357 -0.5538 -0.6931
 3625TIP3   OH232365   5.998   1.899   1.933 -0.3247 -0.1816  0.3767
 3625TIP3    H132366   6.083   1.920   1.894  0.8302  1.6670  3.6539
 3625TIP3    H232367   5.992   1.804   1.928  1.2671 -0.2149 -1.2814
 3626TIP3   OH232368   5.949   3.769   4.870 -0.0825 -0.5117 -0.0358
 3626TIP3    H132369   5.959   3.700   4.935 -0.8150  0.8170  1.5337
 3626TIP3    H232370   5.889   3.731   4.805 -0.8126 -1.2179  1.0180
 3627TIP3   OH232371   2.370   5.284   1.690  0.3267 -0.2135 -0.0715
 3627TIP3    H132372   2.351   5.197   1.726 -0.5031  0.1374  0.3605
 3627TIP3    H232373   2.463   5.297   1.707  0.4012 -0.9193  0.0867
 3628TIP3   OH232374   2.021   2.983  13.609  0.2806  0.2196 -0.0070
 3628TIP3    H132375   1.969   3.056  13.574 -0.4859 -0.1381  0.3882
 3628TIP3    H232376   1.958   2.925  13.650  0.9389 -0.4757  0.0428
 3629TIP3   OH232377   3.644   1.794   3.824 -0.0110  0.1977 -0.1903
 3629TIP3    H132378   3.695   1.730   3.772 -2.2786 -1.1660 -0.8042
 3629TIP3    H232379   3.592   1.841   3.760 -1.3779 -0.1359  0.6609
 3630TIP3   OH232380   4.656   0.791  14.991  0.5782  0.2444  0.4431
 3630TIP3    H132381   4.749   0.801  14.969  0.5419 -0.6058 -0.1501
 3630TIP3    H232382   4.611   0.858  14.940  0.9959  1.4776  1.6985
 3631TIP3   OH232383   2.602   5.672  11.929  0.3491 -0.8331  0.1424
 3631TIP3    H132384   2.659   5.600  11.954  1.9253  0.4057  0.2444
 3631TIP3    H232385   2.593   5.725  12.008  0.5825 -0.0273 -0.3586
 3632TIP3   OH232386   4.944   4.664   3.946  0.6519 -0.5187  0.1664
 3632TIP3    H132387   4.921   4.638   3.857 -1.8017 -1.1784  0.9628
 3632TIP3    H232388   4.921   4.757   3.950  0.2717 -0.6203  0.2845
 3633TIP3   OH232389   6.372   1.738  14.619 -0.0602 -0.7608  0.2589
 3633TIP3    H132390   6.361   1.672  14.551 -1.4195 -0.8575  0.5568
 3633TIP3    H232391   6.354   1.692  14.701  0.0073 -0.2707  0.5548
 3634TIP3   OH232392   2.639   4.297   1.987  0.2767  0.3353 -0.1939
 3634TIP3    H132393   2.668   4.272   1.899 -0.9597 -0.0692 -0.4914
 3634TIP3    H232394   2.719   4.329   2.030  0.6967  1.5643 -1.8137
 3635TIP3   OH232395   0.498   6.019   3.445 -0.2313  0.4621 -0.3395
 3635TIP3    H132396   0.419   6.060   3.411 -2.2085 -2.6621  0.3166
 3635TIP3    H232397   0.526   5.959   3.375 -0.6400 -1.2434  0.9274
 3636TIP3   OH232398   0.158   5.519   6.555  0.4272 -0.3266 -0.0138
 3636TIP3    H132399   0.115   5.436   6.573  2.4292 -1.3020  0.4178
 3636TIP3    H232400   0.228   5.525   6.620  1.9948  0.3977 -1.6872
 3637TIP3   OH232401   2.510   4.948   5.637 -0.0298  0.2399  0.1843
 3637TIP3    H132402   2.548   4.931   5.724 -0.0150 -0.3659  0.0619
 3637TIP3    H232403   2.423   4.909   5.641  0.2470 -0.4261 -0.3193
 3638TIP3   OH232404   6.143   1.882  13.494  0.1897  0.1183  0.2124
 3638TIP3    H132405   6.141   1.797  13.538  0.0813  0.1251  0.2201
 3638TIP3    H232406   6.127   1.861  13.401  0.9182  0.0539  0.1026
 3639TIP3   OH232407   6.613   1.870   5.244  0.1497  0.4323 -0.5691
 3639TIP3    H132408   6.588   1.871   5.152  1.6042  1.7408 -0.9769
 3639TIP3    H232409   6.696   1.918   5.247  0.1620  0.3427  1.4146
 3640TIP3   OH232410   0.253   1.868   5.532 -0.0234 -0.0835  0.2824
 3640TIP3    H132411   0.315   1.940   5.545  0.8949 -1.0125  1.1183
 3640TIP3    H232412   0.221   1.847   5.620  2.4866 -3.1023  0.5906
 3641TIP3   OH232413   4.589   1.657   1.038  0.0037 -0.0351 -0.2471
 3641TIP3    H132414   4.520   1.603   0.999  2.1765 -1.4780 -2.2476
 3641TIP3    H232415   4.583   1.640   1.132 -0.7729 -2.0626 -0.6485
 3642TIP3   OH232416   3.533   1.068   4.364  0.2097  0.1430  0.0491
 3642TIP3    H132417   3.486   1.097   4.443 -0.4579  0.4653 -0.4598
 3642TIP3    H232418   3.558   0.978   4.383 -1.1228 -0.2260  0.1102
 3643TIP3   OH232419   5.003   1.221  14.177 -0.4019 -0.0484  0.7088
 3643TIP3    H132420   5.053   1.167  14.239 -1.1298 -0.0188  1.3329
 3643TIP3    H232421   5.021   1.311  14.205  1.6451  0.0935 -0.9780
 3644TIP3   OH232422   1.768   0.359   5.124  0.2239  0.2246  0.3622
 3644TIP3    H132423   1.808   0.304   5.191 -0.0763  0.1408  0.4771
 3644TIP3    H232424   1.811   0.334   5.043 -0.9195 -1.2254  0.1752
 3645TIP3   OH232425   1.579   5.158  10.999  0.3063  0.2204  0.3592
 3645TIP3    H132426   1.530   5.086  10.958  1.1757 -1.4561  2.1439
 3645TIP3    H232427   1.524   5.235  10.988 -0.5506 -0.6809 -1.8081
 3646TIP3   OH232428   5.890   4.102   3.688 -0.0745 -0.4185 -0.1108
 3646TIP3    H132429   5.842   4.040   3.632  1.2706 -0.3833 -1.3414
 3646TIP3    H232430   5.971   4.055   3.711 -0.6703 -0.4857  1.9482
 3647TIP3   OH232431   0.814   0.130   2.237  0.1020  0.0744 -0.1746
 3647TIP3    H132432   0.886   0.175   2.194  1.1920  0.2431  1.7909
 3647TIP3    H232433   0.778   0.194   2.298 -0.3213 -0.7116  0.4114
 3648TIP3   OH232434   1.980   5.035   5.905  1.0112  0.4243 -0.4630
 3648TIP3    H132435   1.997   5.119   5.948 -1.6830  0.5232  0.5341
 3648TIP3    H232436   2.028   4.971   5.956  3.0286  1.3262 -1.1828
 3649TIP3   OH232437   5.537   3.460  17.080  0.0082 -0.5075 -0.2302
 3649TIP3    H132438   5.628   3.447  17.051 -0.9879 -0.7722 -3.3572
 3649TIP3    H232439   5.519   3.551  17.060 -0.5555 -0.5573  0.0596
 3650TIP3   OH232440   2.688   3.609  12.626  0.0067 -0.0038 -0.4742
 3650TIP3    H132441   2.782   3.623  12.637 -0.2235  1.2138  0.0253
 3650TIP3    H232442   2.670   3.528  12.674  0.4311  0.9778  1.4007
 3651TIP3   OH232443   4.870   0.788   1.340 -0.7168 -0.2258 -0.2406
 3651TIP3    H132444   4.843   0.779   1.432 -4.7949 -1.6589 -1.4630
 3651TIP3    H232445   4.940   0.723   1.330  0.2000  0.3717  1.9904
 3652TIP3   OH232446   6.673   5.573  12.770  0.4106  0.1229 -0.5496
 3652TIP3    H132447   6.696   5.665  12.782 -1.4176  0.5101  0.1000
 3652TIP3    H232448   6.645   5.567  12.678 -0.5467  0.4745 -0.2918
 3653TIP3   OH232449   4.182   3.291   2.671  0.0783  0.3689  0.1824
 3653TIP3    H132450   4.125   3.350   2.621 -1.2657 -1.0765 -0.0463
 3653TIP3    H232451   4.253   3.346   2.702 -1.0011  2.0474 -0.2677
 3654TIP3   OH232452   2.279   5.306  11.334 -0.1621 -0.6031  0.5357
 3654TIP3    H132453   2.218   5.374  11.360 -1.6264 -2.3884  1.9293
 3654TIP3    H232454   2.225   5.240  11.291  1.2886 -0.7038 -1.1966
 3655TIP3   OH232455   6.409   4.633  12.791  0.0531 -0.0447 -0.0833
 3655TIP3    H132456   6.347   4.625  12.719 -1.2328 -1.7781  1.1707
 3655TIP3    H232457   6.491   4.598  12.757  0.0409  1.1753 -1.3831
 3656TIP3   OH232458   5.255   4.328   2.064 -0.1196  0.0536 -0.2021
 3656TIP3    H132459   5.344   4.360   2.051 -0.0828 -0.5111 -1.3783
 3656TIP3    H232460   5.251   4.246   2.014 -1.2478 -0.0197 -0.0159
 3657TIP3   OH232461   5.915   4.920   1.175 -0.3357  0.4307  0.6131
 3657TIP3    H132462   5.942   4.917   1.083  0.5919 -0.5685  0.9110
 3657TIP3    H232463   5.841   4.861   1.180  0.3963 -0.4837  0.7554
 3658TIP3   OH232464   1.627   1.932  11.587  0.1621  0.2454  0.0411
 3658TIP3    H132465   1.583   1.848  11.598  1.8296 -0.9327 -1.9012
 3658TIP3    H232466   1.688   1.937  11.660  0.5369 -0.5641 -0.2100
 3659TIP3   OH232467   4.572   1.752   1.772  0.4194 -0.0527  0.1345
 3659TIP3    H132468   4.519   1.730   1.849 -1.2840  0.6936 -0.7945
 3659TIP3    H232469   4.592   1.845   1.783  0.4277 -0.0177 -0.1685
 3660TIP3   OH232470   4.825   4.395  15.026 -0.3361 -0.6687 -0.2273
 3660TIP3    H132471   4.821   4.321  14.965 -0.1807 -0.9156  0.0599
 3660TIP3    H232472   4.774   4.366  15.102 -0.1831 -0.5255 -0.0682
 3661TIP3   OH232473   6.062   2.392  11.800  0.5429  0.4539 -0.2749
 3661TIP3    H132474   6.087   2.424  11.713  1.3971  0.7926  0.0815
 3661TIP3    H232475   6.082   2.299  11.798  1.0383  0.5569 -0.2841
 3662TIP3   OH232476   2.501   3.511  15.166 -0.1462  0.3366  0.5596
 3662TIP3    H132477   2.532   3.581  15.108 -0.0120  1.3077  1.8012
 3662TIP3    H232478   2.478   3.439  15.106 -0.5113  1.5173 -0.7467
 3663TIP3   OH232479   0.856   0.377  14.761  0.2418 -0.8988 -0.6159
 3663TIP3    H132480   0.948   0.352  14.755  0.7257  0.4291  0.7846
 3663TIP3    H232481   0.848   0.416  14.848 -1.5645 -0.6843 -0.8678
 3664TIP3   OH232482   0.790   2.706  12.950 -0.0355 -0.2607  0.0208
 3664TIP3    H132483   0.715   2.656  12.916 -1.1600  1.2446  0.2500
 3664TIP3    H232484   0.864   2.678  12.896 -1.1121 -0.4635 -1.3685
 3665TIP3   OH232485   0.858   2.522   2.825 -0.6993 -0.2267  0.0202
 3665TIP3    H132486   0.942   2.538   2.869  0.8825 -2.6967 -1.9769
 3665TIP3    H232487   0.797   2.503   2.896  0.5435  1.0451  1.4727
 3666TIP3   OH232488   5.492   1.631   4.906 -0.4002 -0.5111 -0.1955
 3666TIP3    H132489   5.541   1.619   4.987 -0.5799 -0.2995 -0.0545
 3666TIP3    H232490   5.496   1.547   4.862 -0.5828 -0.7225  0.1909
 3667TIP3   OH232491   3.519   3.141  11.237 -0.3795  0.3232  0.5924
 3667TIP3    H132492   3.561   3.065  11.197 -0.3149  0.6765 -0.0255
 3667TIP3    H232493   3.546   3.214  11.182  0.5703  0.9824  1.9069
 3668TIP3   OH232494   0.328   6.148   3.206 -0.0125 -0.3416  0.5221
 3668TIP3    H132495   0.251   6.185   3.162 -0.2083 -0.4482  0.7706
 3668TIP3    H232496   0.317   6.053   3.198  0.0022 -0.3602  0.7144
 3669TIP3   OH232497   6.279   3.992  13.480 -0.2367  0.6318 -0.3666
 3669TIP3    H132498   6.276   3.902  13.447  0.7390  0.7654 -0.8436
 3669TIP3    H232499   6.217   4.039  13.425 -2.6573 -0.2574  1.5360
 3670TIP3   OH232500   2.399   0.393   3.840  0.0381 -0.2279  0.1242
 3670TIP3    H132501   2.440   0.374   3.924 -1.7008  0.4857  1.1457
 3670TIP3    H232502   2.377   0.486   3.844 -1.2609 -0.4961 -0.5803
 3671TIP3   OH232503   5.903   3.173   3.285 -0.5285  0.1690 -0.4786
 3671TIP3    H132504   5.951   3.209   3.360 -0.6005 -2.2288  0.7819
 3671TIP3    H232505   5.954   3.095   3.260 -2.4325 -1.0430 -0.6660
 3672TIP3   OH232506   5.961   6.421  14.787 -0.2086 -0.1443 -0.6155
 3672TIP3    H132507   5.898   6.364  14.832 -2.0697  1.0391 -1.6425
 3672TIP3    H232508   6.043   6.372  14.789 -1.2986 -2.0091  0.2130
 3673TIP3   OH232509   4.236   6.776   5.417 -0.5337  0.9479  0.2857
 3673TIP3    H132510   4.267   6.771   5.507  0.4430  2.8793  0.0900
 3673TIP3    H232511   4.245   6.687   5.383  2.0622  0.8619  1.1269
 3674TIP3   OH232512   5.374   4.240  11.590  0.3509  0.3359  0.2593
 3674TIP3    H132513   5.292   4.241  11.541 -0.4701  2.0297  1.5896
 3674TIP3    H232514   5.420   4.162  11.559 -1.0450  0.2386 -1.6598
 3675TIP3   OH232515   2.205   5.426   5.262 -0.3139  0.2668 -0.4259
 3675TIP3    H132516   2.268   5.359   5.235  0.9095  1.7380 -1.2741
 3675TIP3    H232517   2.255   5.507   5.266 -2.1878  1.5286 -1.3756
 3676TIP3   OH232518   0.254   0.953  16.174  0.1363 -0.0961  0.5699
 3676TIP3    H132519   0.238   0.902  16.254 -1.7218  0.2956  0.4716
 3676TIP3    H232520   0.207   1.035  16.189  1.2022  0.6647 -0.2332
 3677TIP3   OH232521   2.729   2.848   4.778 -0.0257  0.3680 -0.3072
 3677TIP3    H132522   2.660   2.913   4.789 -1.8677 -1.2168 -2.1615
 3677TIP3    H232523   2.704   2.777   4.837  0.6904  0.2814 -0.0998
 3678TIP3   OH232524   6.692   5.308   4.539 -0.2263 -0.0825 -0.7060
 3678TIP3    H132525   6.624   5.254   4.498 -1.6232 -0.9134  2.5796
 3678TIP3    H232526   6.759   5.318   4.471 -1.7394 -2.6611 -2.6561
 3679TIP3   OH232527   4.345   1.066   2.166 -0.0523 -0.0019 -0.0344
 3679TIP3    H132528   4.327   1.009   2.091 -0.4939 -0.3293  0.3185
 3679TIP3    H232529   4.388   1.009   2.229 -1.9358 -0.3417  0.9608
 3680TIP3   OH232530   0.942   5.918   6.447  0.2007  0.5332  0.0817
 3680TIP3    H132531   0.968   5.839   6.495  0.9433 -0.2246 -1.5444
 3680TIP3    H232532   0.867   5.952   6.496 -0.1598 -1.2160  0.7756
 3681TIP3   OH232533   2.618   0.568  14.429 -0.3624 -0.3330 -0.3116
 3681TIP3    H132534   2.602   0.605  14.516 -0.0301  0.3916 -0.5512
 3681TIP3    H232535   2.613   0.644  14.370 -1.2850 -0.9217 -1.0124
 3682TIP3   OH232536   3.477   6.446   0.686 -0.1070 -0.7341 -0.2302
 3682TIP3    H132537   3.387   6.478   0.679 -0.0636 -0.9789 -2.1431
 3682TIP3    H232538   3.468   6.351   0.694 -0.0155 -0.7958 -0.8204
 3683TIP3   OH232539   6.672   5.230   1.463  0.0886  0.1733  0.6543
 3683TIP3    H132540   6.602   5.290   1.491  1.2109  1.6398  0.3712
 3683TIP3    H232541   6.730   5.224   1.539  0.5327  0.2785  0.3241
 3684TIP3   OH232542   5.902   4.281   2.582 -0.4183  0.4646 -0.3500
 3684TIP3    H132543   5.849   4.296   2.504  1.6896 -0.1208 -1.9383
 3684TIP3    H232544   5.861   4.206   2.625 -0.4373 -0.4668 -1.9614
 3685TIP3   OH232545   2.361   6.685   1.465 -0.6832 -0.2809 -0.6588
 3685TIP3    H132546   2.292   6.668   1.528  1.5412  0.2368  2.0371
 3685TIP3    H232547   2.413   6.604   1.464 -0.0627  0.1131 -0.9327
 3686TIP3   OH232548   5.267   0.273   3.344  0.1118 -0.0382  0.0087
 3686TIP3    H132549   5.209   0.332   3.391 -1.1215 -0.7655 -0.5745
 3686TIP3    H232550   5.288   0.318   3.263 -0.3792 -0.1640 -0.1876
 3687TIP3   OH232551   2.909   3.593   0.078 -0.4214  0.0622  0.2875
 3687TIP3    H132552   2.854   3.653   0.128 -1.0887  0.0234 -0.3972
 3687TIP3    H232553   2.879   3.505   0.104  1.0160 -0.0107  1.8123
 3688TIP3   OH232554   5.760   5.193   1.727 -0.1737  0.5546  0.5618
 3688TIP3    H132555   5.789   5.107   1.759 -0.4508  0.2792  0.0786
 3688TIP3    H232556   5.665   5.186   1.724 -0.2328  1.0987  1.1381
 3689TIP3   OH232557   4.418   4.057  16.070 -0.5167  0.3158 -0.3181
 3689TIP3    H132558   4.342   3.999  16.060 -0.2255  0.0900 -1.2654
 3689TIP3    H232559   4.489   4.012  16.024  0.4052  0.1348  1.2824
 3690TIP3   OH232560   0.108   3.111  14.533  0.6102  0.1903  0.4481
 3690TIP3    H132561   0.172   3.119  14.604 -1.1696  0.4312  2.0641
 3690TIP3    H232562   0.161   3.102  14.454  2.6410  0.7005  1.7096
 3691TIP3   OH232563   3.560   3.150   2.691 -0.2331  0.3450  0.0941
 3691TIP3    H132564   3.490   3.182   2.634 -1.1347  0.1530  1.0826
 3691TIP3    H232565   3.623   3.222   2.695 -0.4464  0.5772 -0.6763
 3692TIP3   OH232566   1.977   5.850  16.975 -0.2739 -0.3040  0.4361
 3692TIP3    H132567   2.016   5.911  16.912 -1.9138  0.7559  0.4078
 3692TIP3    H232568   2.024   5.866  17.056 -0.8265  1.1682  0.4814
 3693TIP3   OH232569   1.653   1.751   4.196 -0.4359  0.0801  0.5714
 3693TIP3    H132570   1.718   1.822   4.201 -0.7232  0.4217 -0.5252
 3693TIP3    H232571   1.569   1.796   4.197 -0.6724 -0.3684  1.9726
 3694TIP3   OH232572   1.989   5.410  16.863 -0.4938 -0.1496  0.0919
 3694TIP3    H132573   2.071   5.391  16.818 -1.6434 -2.4668 -1.1421
 3694TIP3    H232574   1.922   5.368  16.809 -2.5762  2.2227  0.7328
 3695TIP3   OH232575   3.484   6.128   0.909  0.1547 -0.6797  0.5160
 3695TIP3    H132576   3.483   6.033   0.918 -0.9282 -0.5230  2.0632
 3695TIP3    H232577   3.552   6.157   0.971 -0.9301 -0.2987  1.5335
 3696TIP3   OH232578   2.753   5.189  13.299  0.2255 -0.5191  0.1045
 3696TIP3    H132579   2.716   5.101  13.298  0.6784 -0.7034 -0.4731
 3696TIP3    H232580   2.780   5.202  13.391  0.9439 -1.3168  0.0139
 3697TIP3   OH232581   3.767   6.232  12.471 -0.3984  0.0045  0.5086
 3697TIP3    H132582   3.855   6.208  12.444 -0.6037  0.1412 -0.2976
 3697TIP3    H232583   3.732   6.154  12.515 -0.1767 -0.3279  0.0930
 3698TIP3   OH232584   0.217   1.090  15.614 -0.4696 -0.2819  0.9228
 3698TIP3    H132585   0.307   1.067  15.637 -0.3147 -0.6199  0.0042
 3698TIP3    H232586   0.209   1.067  15.521 -1.4185  0.0044  0.9256
 3699TIP3   OH232587   6.704   5.772  14.266 -0.6378 -0.3781  0.2736
 3699TIP3    H132588   6.684   5.726  14.185 -0.2101 -2.4480  1.3134
 3699TIP3    H232589   6.753   5.709  14.318 -1.0900  0.8505  2.2443
 3700TIP3   OH232590   6.397   1.214  17.139 -0.2656 -0.3736 -0.0709
 3700TIP3    H132591   6.445   1.133  17.154  2.3886  1.1501 -0.0707
 3700TIP3    H232592   6.337   1.220  17.213  2.6006 -0.1975  2.3386
 3701TIP3   OH232593   5.657   4.184  11.304 -0.8590 -0.5419 -0.6285
 3701TIP3    H132594   5.631   4.269  11.340 -0.1856 -0.5626 -0.0924
 3701TIP3    H232595   5.717   4.206  11.233 -0.6146 -0.5738 -0.4310
 3702TIP3   OH232596   0.624   2.427  14.072  0.7326  0.3911 -0.0342
 3702TIP3    H132597   0.532   2.404  14.079  0.8782  0.0427  0.7998
 3702TIP3    H232598   0.624   2.522  14.057  0.3299  1.1443  4.1157
 3703TIP3   OH232599   3.114   0.363  13.124  0.3105 -0.0444  0.2313
 3703TIP3    H132600   3.120   0.448  13.168  2.6598 -1.1908  2.3077
 3703TIP3    H232601   3.065   0.308  13.185 -1.2523 -0.1990 -1.1269
 3704TIP3   OH232602   5.483   1.972  16.332 -0.0998  0.0946 -0.2438
 3704TIP3    H132603   5.569   1.940  16.307 -0.4412 -0.9896 -0.0926
 3704TIP3    H232604   5.446   2.008  16.252 -0.4319 -1.6077 -0.8843
 3705TIP3   OH232605   2.059   2.151  17.013  0.5406 -0.0774 -0.0266
 3705TIP3    H132606   1.976   2.190  16.986  0.3583 -0.4096  0.0506
 3705TIP3    H232607   2.058   2.155  17.108  0.6933  0.0786 -0.0302
 3706TIP3   OH232608   6.186   3.954  12.911 -0.0616  0.6298 -0.5907
 3706TIP3    H132609   6.218   3.869  12.881  0.1853  1.0533 -1.5290
 3706TIP3    H232610   6.103   3.935  12.953  0.3770 -0.1841 -0.0774
 3707TIP3   OH232611   3.519   6.318  10.604 -0.1039 -0.7968 -0.5897
 3707TIP3    H132612   3.499   6.230  10.573 -1.1249 -1.1121  0.9113
 3707TIP3    H232613   3.450   6.373  10.566 -0.4674 -0.9310 -0.1254
 3708TIP3   OH232614   2.180   5.097   3.376 -0.3560 -0.4469  0.2169
 3708TIP3    H132615   2.214   5.010   3.399  0.7228 -0.1852 -0.3595
 3708TIP3    H232616   2.239   5.158   3.421 -0.4738  0.0014 -0.2358
 3709TIP3   OH232617   4.886   2.487  16.616 -0.2764  0.0164 -0.3312
 3709TIP3    H132618   4.952   2.418  16.623 -0.7766 -0.2556  2.1306
 3709TIP3    H232619   4.865   2.491  16.523  1.1997 -1.7815 -0.7769
 3710TIP3   OH232620   4.709   4.938  11.768 -0.2244  0.6151 -0.3261
 3710TIP3    H132621   4.618   4.946  11.742 -0.3853 -0.2360 -0.0609
 3710TIP3    H232622   4.707   4.942  11.864 -0.3185 -2.1159 -0.1525
 3711TIP3   OH232623   4.755   1.653   2.938 -0.3092 -0.4722  0.8317
 3711TIP3    H132624   4.711   1.738   2.950  0.5438  0.1902 -0.6744
 3711TIP3    H232625   4.686   1.595   2.907 -0.7327 -0.1389  1.1402
 3712TIP3   OH232626   2.774   1.960   0.021 -0.1557 -0.0417  0.0717
 3712TIP3    H132627   2.857   2.002  -0.003 -0.9954  0.2997 -2.3656
 3712TIP3    H232628   2.717   2.032   0.048 -0.3570 -0.0248 -0.3897
 3713TIP3   OH232629   0.101   6.048  13.126  0.1307  0.3401  0.1953
 3713TIP3    H132630   0.124   5.968  13.079  0.7105  0.6370 -0.0282
 3713TIP3    H232631   0.013   6.031  13.161 -0.0115 -0.1460 -0.3943
 3714TIP3   OH232632   0.473   2.469  16.526 -0.5300  0.3073  0.0447
 3714TIP3    H132633   0.449   2.560  16.510 -1.6870 -0.1857 -1.1743
 3714TIP3    H232634   0.393   2.428  16.559 -0.0132 -0.2582  0.6098
 3715TIP3   OH232635   2.332   5.888  17.047  0.0211  0.0651 -0.3327
 3715TIP3    H132636   2.323   5.829  16.972 -0.6278 -0.7304  0.3483
 3715TIP3    H232637   2.390   5.958  17.016  0.0223 -0.4187 -1.4669
 3716TIP3   OH232638   5.130   1.334   2.164 -0.1434 -0.1237 -0.3044
 3716TIP3    H132639   5.170   1.378   2.239  0.9243 -1.2015 -0.2202
 3716TIP3    H232640   5.192   1.264   2.142 -1.5007 -1.1736 -0.8256
 3717TIP3   OH232641   4.694   6.678  16.156 -0.6634 -0.7720  0.0678
 3717TIP3    H132642   4.690   6.757  16.102  1.1403 -0.4835  0.3254
 3717TIP3    H232643   4.657   6.609  16.100 -0.0174 -0.2211 -1.0595
 3718TIP3   OH232644   3.342   1.927  14.491  0.5264  0.3825  0.1835
 3718TIP3    H132645   3.292   1.991  14.542  2.4902  2.0882  0.0227
 3718TIP3    H232646   3.320   1.946  14.400  1.9771  1.5937  0.0753
 3719TIP3   OH232647   4.099   6.815  13.778  0.1403  0.4803 -0.0957
 3719TIP3    H132648   4.132   6.740  13.828 -0.9611  0.0394 -0.0241
 3719TIP3    H232649   4.073   6.777  13.694  1.7179  1.1699 -0.9232
 3720TIP3   OH232650   1.063   0.685   5.414 -0.7458  0.2691  0.0440
 3720TIP3    H132651   1.084   0.647   5.329  1.7563  0.8891  0.3418
 3720TIP3    H232652   1.052   0.610   5.472  0.4460 -0.1074 -0.1981
 3721TIP3   OH232653   2.860   4.690  13.380 -0.4635  0.8504  0.1400
 3721TIP3    H132654   2.901   4.742  13.311  0.5170  1.5024  1.1998
 3721TIP3    H232655   2.900   4.721  13.461 -0.2051 -1.2335  0.8482
 3722TIP3   OH232656   6.113   5.836   4.291  0.4447 -0.2194 -0.2609
 3722TIP3    H132657   6.093   5.827   4.384  0.7025  0.0236 -0.1807
 3722TIP3    H232658   6.207   5.821   4.285  0.5544  0.4884 -0.3823
 3723TIP3   OH232659   4.606   5.521  13.239 -0.1581 -0.1423  0.4329
 3723TIP3    H132660   4.677   5.490  13.295  0.9230  1.8511  0.1962
 3723TIP3    H232661   4.627   5.487  13.152  0.6860  0.7242  0.2976
 3724TIP3   OH232662   4.887   1.380   2.098  0.0256 -0.4087  0.4126
 3724TIP3    H132663   4.861   1.472   2.095  0.9242 -0.2075 -1.1588
 3724TIP3    H232664   4.981   1.381   2.112  0.4394 -1.0471 -2.1265
 3725TIP3   OH232665   4.022   3.879  15.107 -0.3984 -0.4321  1.0020
 3725TIP3    H132666   4.028   3.948  15.172  0.5279  0.0799  0.3743
 3725TIP3    H232667   4.033   3.923  15.023  2.7896 -1.6463  0.7088
 3726TIP3   OH232668   3.504   1.099   2.025 -0.3087 -0.4043 -1.0600
 3726TIP3    H132669   3.593   1.070   2.041  0.3336  2.1151  0.1149
 3726TIP3    H232670   3.449   1.026   2.052  1.3173 -1.1675  0.2291
 3727TIP3   OH232671   1.952   6.420  16.717 -0.0993  0.3176 -0.6919
 3727TIP3    H132672   1.999   6.356  16.769 -0.5006 -0.1114 -0.8562
 3727TIP3    H232673   1.991   6.413  16.629  0.4264  0.8875 -0.5126
 3728TIP3   OH232674   4.577   6.619  14.241  0.6036 -0.2833 -0.0732
 3728TIP3    H132675   4.526   6.538  14.235 -0.2641  0.0301  2.3807
 3728TIP3    H232676   4.611   6.619  14.331  1.7299  1.4082 -0.4708
 3729TIP3   OH232677   1.089   0.439  15.777  0.4558 -0.0256 -0.3686
 3729TIP3    H132678   1.067   0.370  15.840  3.2009 -0.3025  0.3477
 3729TIP3    H232679   1.042   0.414  15.698 -0.1249 -1.6777  0.4668
 3730TIP3   OH232680   2.168   0.699  10.434  0.5105 -0.3230  0.2133
 3730TIP3    H132681   2.111   0.695  10.357 -0.8740 -2.1289  1.3181
 3730TIP3    H232682   2.199   0.610  10.446  1.7578  0.2055  0.9989
 3731TIP3   OH232683   0.001   3.662  15.252  0.1728 -0.2863  0.3909
 3731TIP3    H132684  -0.042   3.666  15.167 -1.6932 -0.0470  1.3161
 3731TIP3    H232685  -0.002   3.569  15.276  1.7258 -0.5275 -0.2991
 3732TIP3   OH232686   6.121   5.964  10.880  0.6303 -0.1887  0.0347
 3732TIP3    H132687   6.056   6.032  10.863 -0.0866 -0.9780 -0.3540
 3732TIP3    H232688   6.195   5.988  10.824 -0.3125 -0.7293 -1.4759
 3733TIP3   OH232689   3.750   1.841   5.690 -0.2159  0.6680 -0.4851
 3733TIP3    H132690   3.803   1.789   5.751 -2.0002  0.4318  0.8833
 3733TIP3    H232691   3.810   1.910   5.660  1.1287 -0.1097  0.3450
 3734TIP3   OH232692   2.134   1.367   4.877 -0.1724 -0.1178  0.2086
 3734TIP3    H132693   2.225   1.366   4.848  0.3313 -1.2282  1.7191
 3734TIP3    H232694   2.135   1.418   4.958 -0.8370 -0.4203  0.4131
 3735TIP3   OH232695   0.792   4.053   6.404  0.4363  0.0961  0.0680
 3735TIP3    H132696   0.715   4.090   6.360  0.2072  0.1226  0.4845
 3735TIP3    H232697   0.858   4.121   6.399  0.2291  0.3132  0.2549
 3736TIP3   OH232698   5.656   6.000  14.599  0.2425 -0.5928 -0.0266
 3736TIP3    H132699   5.614   5.990  14.513 -0.6072  0.5562  0.2400
 3736TIP3    H232700   5.601   6.063  14.645  1.2355 -0.4813  1.0258
 3737TIP3   OH232701   2.931   2.388  15.838  0.1835  0.3061  0.3393
 3737TIP3    H132702   2.920   2.408  15.745 -1.3893 -0.8929  0.2514
 3737TIP3    H232703   2.949   2.473  15.878  0.4562  0.8987 -1.0064
 3738TIP3   OH232704   2.294   1.172  14.668  0.1783  0.0660  0.0861
 3738TIP3    H132705   2.382   1.151  14.696 -0.2026 -1.0691  0.4620
 3738TIP3    H232706   2.261   1.091  14.629 -1.4025 -0.1381  1.7612
 3739TIP3   OH232707   1.422   4.833  14.570 -0.1332 -0.2485  0.0312
 3739TIP3    H132708   1.335   4.793  14.573  0.2012 -0.9980 -0.0322
 3739TIP3    H232709   1.421   4.887  14.491 -0.2579 -0.9299 -0.4423
 3740TIP3   OH232710   2.380   2.884   3.748  0.1174  0.6088 -0.3635
 3740TIP3    H132711   2.442   2.923   3.809 -0.5805  1.4190 -0.1719
 3740TIP3    H232712   2.365   2.796   3.783 -0.2160  1.0361  0.5933
 3741TIP3   OH232713   6.187   3.897  16.462  0.0355  0.8213 -0.0665
 3741TIP3    H132714   6.173   3.884  16.368 -1.1680  0.3729  0.1606
 3741TIP3    H232715   6.198   3.808  16.496 -2.1280  0.7682  0.5859
 3742TIP3   OH232716   2.157   5.449   1.743  0.1320 -0.0561  0.4262
 3742TIP3    H132717   2.246   5.415   1.734  0.2073  0.3256 -0.2922
 3742TIP3    H232718   2.159   5.500   1.824  1.1278  1.6635 -0.6448
 3743TIP3   OH232719   4.708   2.678   6.539 -0.3248  0.1050  0.4867
 3743TIP3    H132720   4.789   2.724   6.562  0.2958 -0.1572 -1.1014
 3743TIP3    H232721   4.660   2.742   6.486 -0.1301 -0.5534 -0.4829
 3744TIP3   OH232722   3.810   4.074   4.859  0.1056 -0.0124  0.3343
 3744TIP3    H132723   3.869   4.006   4.828  1.7412  2.5657 -2.4318
 3744TIP3    H232724   3.868   4.143   4.891 -1.4283  1.8156 -0.7586
 3745TIP3   OH232725   0.632   5.811   2.748 -0.5472 -0.1390  0.0166
 3745TIP3    H132726   0.704   5.797   2.809 -0.8295 -1.5947  0.0375
 3745TIP3    H232727   0.602   5.900   2.766  0.2432 -0.0804  1.0772
 3746TIP3   OH232728   2.969   2.280   4.812 -0.0737 -0.3624 -0.0008
 3746TIP3    H132729   2.911   2.215   4.851 -0.6754  0.3064  0.2249
 3746TIP3    H232730   2.911   2.343   4.770  0.5120 -0.1012 -0.4319
 3747TIP3   OH232731   0.427   5.790   5.072 -0.1353  0.4981 -0.2932
 3747TIP3    H132732   0.413   5.719   5.009  0.1541  0.8164 -0.7219
 3747TIP3    H232733   0.459   5.746   5.151  0.8760  0.2298 -0.8439
 3748TIP3   OH232734   4.320   6.787   0.011  0.1811  0.0525 -0.1467
 3748TIP3    H132735   4.273   6.782   0.095  1.4005 -1.5582  0.4613
 3748TIP3    H232736   4.370   6.868   0.016 -1.6023  1.1909 -0.3206
 3749TIP3   OH232737   3.682   0.116   3.768 -0.3958 -0.1686 -0.1602
 3749TIP3    H132738   3.662   0.182   3.834  3.1729  0.4335  0.4004
 3749TIP3    H232739   3.686   0.034   3.818 -2.1523 -0.4501 -0.4271
 3750TIP3   OH232740   5.702   6.573  15.702  0.6340 -0.4021 -0.4961
 3750TIP3    H132741   5.672   6.658  15.733 -1.6531  0.5427 -4.8764
 3750TIP3    H232742   5.790   6.590  15.668 -0.0872  0.4533 -2.0129
 3751TIP3   OH232743   1.755   2.690   0.450  0.1069  0.4361 -0.3224
 3751TIP3    H132744   1.726   2.748   0.379  0.7197  1.7922  0.5179
 3751TIP3    H232745   1.849   2.681   0.436  0.0537 -0.1512 -0.2960
 3752TIP3   OH232746   2.675   0.450  13.269  0.6288 -0.8533 -0.7560
 3752TIP3    H132747   2.698   0.441  13.362 -0.4175  0.3778 -0.3497
 3752TIP3    H232748   2.628   0.534  13.265  1.7226 -0.3003 -2.6101
 3753TIP3   OH232749   2.099   6.154   5.845 -0.2062  0.1426  0.2001
 3753TIP3    H132750   2.007   6.180   5.851 -0.1195  0.6020 -0.4168
 3753TIP3    H232751   2.111   6.128   5.753  0.4781  0.8241  0.0942
 3754TIP3   OH232752   2.470   5.272  12.095 -0.0449 -0.3262  0.4241
 3754TIP3    H132753   2.495   5.341  12.156  0.7777 -0.0771 -0.1852
 3754TIP3    H232754   2.450   5.317  12.013 -0.5714 -0.7065  0.3401
 3755TIP3   OH232755   1.041   2.334   0.871  0.0540  0.3391  0.0417
 3755TIP3    H132756   1.014   2.242   0.873  0.4213  0.1549 -2.5652
 3755TIP3    H232757   1.063   2.351   0.780 -1.7843  3.5374  0.1053
 3756TIP3   OH232758   3.751   0.889   5.881 -0.0341 -0.6349  0.0300
 3756TIP3    H132759   3.739   0.795   5.893  0.6690 -0.5959  1.1008
 3756TIP3    H232760   3.716   0.927   5.962 -0.5015  0.0341 -0.4897
 3757TIP3   OH232761   3.223   5.703   3.147  0.3883 -0.1544  0.6887
 3757TIP3    H132762   3.169   5.764   3.197  0.7870  1.9905 -1.3938
 3757TIP3    H232763   3.165   5.671   3.077  0.0449 -2.5868  2.0094
 3758TIP3   OH232764   4.814   1.634   1.698 -0.0852 -0.1808  0.0413
 3758TIP3    H132765   4.727   1.670   1.715 -0.5156 -0.8241 -0.7533
 3758TIP3    H232766   4.798   1.543   1.671  0.8849 -0.5241  0.5880
 3759TIP3   OH232767   0.647   4.084  16.933 -0.3981 -0.0252 -0.2356
 3759TIP3    H132768   0.660   4.160  16.876  1.4336  0.4610  0.7721
 3759TIP3    H232769   0.733   4.042  16.937 -0.8318 -0.8366  1.0522
 3760TIP3   OH232770   1.299   3.019   1.899  0.1800 -0.8798  0.4782
 3760TIP3    H132771   1.383   3.058   1.876 -0.9944  1.9367  0.7538
 3760TIP3    H232772   1.284   3.046   1.990 -0.3720 -2.5253  0.8847
 3761TIP3   OH232773   1.806   1.568   4.400  0.1483 -0.3696 -0.1446
 3761TIP3    H132774   1.752   1.614   4.335  0.9716  0.5779 -0.1503
 3761TIP3    H232775   1.789   1.613   4.482  1.7693  0.6414 -0.3443
 3762TIP3   OH232776   3.829   2.512  12.017 -0.1772  0.1355 -0.8683
 3762TIP3    H132777   3.901   2.563  11.979  0.0422 -0.7148 -1.5834
 3762TIP3    H232778   3.772   2.492  11.944 -2.2175  2.4991 -0.0073
 3763TIP3   OH232779   5.496   0.884  13.366  0.4798  0.0381 -0.4485
 3763TIP3    H132780   5.423   0.933  13.404  1.3849  0.1981  1.1406
 3763TIP3    H232781   5.469   0.866  13.276 -0.7481  1.6463 -0.4187
 3764TIP3   OH232782   1.909   4.634  16.792  0.1694 -0.3382  0.0369
 3764TIP3    H132783   1.874   4.554  16.753  0.7885 -0.3517 -0.5087
 3764TIP3    H232784   1.875   4.704  16.736 -0.2529 -0.2272  0.4299
 3765TIP3   OH232785   3.815   3.413   6.003  0.1428 -0.2220 -0.5109
 3765TIP3    H132786   3.907   3.394   6.023  0.0708 -1.1490 -1.0344
 3765TIP3    H232787   3.785   3.336   5.954 -0.5434  0.6397 -1.4744
 3766TIP3   OH232788   4.594   2.521   4.851  0.1567  0.4724 -0.2523
 3766TIP3    H132789   4.645   2.505   4.931 -0.1949 -1.1962 -0.3284
 3766TIP3    H232790   4.602   2.439   4.801  0.1238  1.3957 -1.7932
 3767TIP3   OH232791   1.489   0.027   1.937 -0.4858 -0.3634 -0.5881
 3767TIP3    H132792   1.551  -0.036   1.972 -0.8819 -1.1049 -1.2064
 3767TIP3    H232793   1.522   0.047   1.850 -0.2591  0.4284 -0.3231
 3768TIP3   OH232794   1.933   4.507  15.824  0.2210  0.3427  0.1494
 3768TIP3    H132795   1.906   4.498  15.916  1.0384 -0.8869  0.2864
 3768TIP3    H232796   1.920   4.419  15.787  0.3469  0.7178 -0.7877
 3769TIP3   OH232797   1.174   5.985  13.644 -0.5015 -0.0787  0.1230
 3769TIP3    H132798   1.124   6.062  13.619 -0.5965 -0.4244 -0.7779
 3769TIP3    H232799   1.259   5.997  13.602 -1.1093 -1.3055 -1.4882
 3770TIP3   OH232800   0.822   5.178   3.361 -0.1224 -0.0706  0.1190
 3770TIP3    H132801   0.822   5.266   3.324 -1.2719  0.2873  0.9450
 3770TIP3    H232802   0.906   5.170   3.405  0.1363  0.4744 -0.2806
 3771TIP3   OH232803   1.486   0.207  14.239  0.2486 -0.5264  0.5399
 3771TIP3    H132804   1.537   0.288  14.231 -2.0770  0.9880  0.3342
 3771TIP3    H232805   1.541   0.148  14.291  0.7202  2.3084  3.4014
 3772TIP3   OH232806   0.119   3.689  14.784  0.0527 -0.6588  0.1207
 3772TIP3    H132807   0.065   3.746  14.730  3.1227  2.5620  0.2640
 3772TIP3    H232808   0.164   3.632  14.722  0.4692  0.2492 -0.4137
 3773TIP3   OH232809   6.600   2.528  14.366 -0.2622  0.5685 -0.2201
 3773TIP3    H132810   6.584   2.547  14.274 -0.6080  0.1721 -0.2457
 3773TIP3    H232811   6.529   2.468  14.391 -0.1985  0.7091  0.3127
 3774TIP3   OH232812   4.998   3.698   6.355 -0.0106 -0.3760 -0.0941
 3774TIP3    H132813   5.048   3.660   6.427 -1.5363 -1.4285  0.4530
 3774TIP3    H232814   4.907   3.692   6.383 -0.4360  1.9912 -0.8249
 3775TIP3   OH232815   2.719   1.016   3.626 -0.7462 -0.7343 -0.4054
 3775TIP3    H132816   2.710   0.923   3.649  0.7323 -1.1096 -1.2866
 3775TIP3    H232817   2.795   1.046   3.676 -0.0466 -0.5005 -1.5896
 3776TIP3   OH232818   2.791   3.612   0.863 -0.2373 -0.1458  0.1924
 3776TIP3    H132819   2.826   3.526   0.841 -0.0972 -0.2773  0.9201
 3776TIP3    H232820   2.722   3.626   0.798 -1.1736 -1.4000  0.8917
 3777TIP3   OH232821   5.326   5.895   4.311 -0.5592  0.2111  0.1290
 3777TIP3    H132822   5.388   5.908   4.239 -2.6886 -0.4393 -1.8800
 3777TIP3    H232823   5.308   5.983   4.343 -0.5575  0.6295 -0.9835
 3778TIP3   OH232824   2.847   2.925  13.622 -0.8553 -0.7099 -0.5164
 3778TIP3    H132825   2.795   2.992  13.666  1.0819  1.3103 -1.2659
 3778TIP3    H232826   2.861   2.960  13.534  3.0138 -0.5192  0.1223
 3779TIP3   OH232827   1.576   4.799  15.871 -0.4032  0.2583  0.2435
 3779TIP3    H132828   1.618   4.866  15.818  1.4321 -0.2653  0.9942
 3779TIP3    H232829   1.648   4.746  15.905 -1.6452 -0.4614  1.8540
 3780TIP3   OH232830   3.268   5.867  12.142 -0.1015  0.3560  0.3717
 3780TIP3    H132831   3.254   5.961  12.126  1.1125  0.7326  1.4867
 3780TIP3    H232832   3.313   5.863  12.226  1.1966 -1.1468 -0.3730
 3781TIP3   OH232833   2.914   3.964   1.121  0.0175  0.0523  0.1908
 3781TIP3    H132834   2.892   4.028   1.189 -0.4244 -0.4284  0.5049
 3781TIP3    H232835   2.942   3.886   1.170 -0.1257 -0.2329 -0.1828
 3782TIP3   OH232836   1.218   0.369  16.113  0.0977 -0.4160  0.1132
 3782TIP3    H132837   1.239   0.436  16.048  1.6327 -2.3298 -1.4386
 3782TIP3    H232838   1.130   0.340  16.092  0.4240 -0.7118 -0.8681
 3783TIP3   OH232839   5.888   2.769   0.760  0.3061  0.2287  0.0516
 3783TIP3    H132840   5.930   2.703   0.704  1.9874  0.4305  1.0277
 3783TIP3    H232841   5.861   2.721   0.838  0.0248  0.3820  0.0501
 3784TIP3   OH232842   3.048   0.215  12.909 -0.3574  0.2239  0.4102
 3784TIP3    H132843   2.980   0.158  12.945 -0.5917  0.0269 -0.3334
 3784TIP3    H232844   3.074   0.271  12.982 -0.8337 -0.1630  0.8779
 3785TIP3   OH232845   0.778   2.781  12.560 -0.4261 -0.2399 -0.3412
 3785TIP3    H132846   0.777   2.854  12.623 -0.3007  1.2025 -1.9570
 3785TIP3    H232847   0.695   2.790  12.513  0.3788 -0.0409 -1.7488
 3786TIP3   OH232848   1.209   6.378   3.110  0.3722 -0.2307 -0.5685
 3786TIP3    H132849   1.117   6.404   3.109 -0.0861 -1.7999  0.4284
 3786TIP3    H232850   1.246   6.425   3.186  0.1759 -0.3592 -0.3933
 3787TIP3   OH232851   2.498   4.564  11.784  0.5071 -0.7148 -0.5630
 3787TIP3    H132852   2.424   4.530  11.733  0.9457 -1.2530 -0.8355
 3787TIP3    H232853   2.475   4.656  11.801 -0.3951 -0.9736 -0.3428
 3788TIP3   OH232854   0.559   3.622   4.191  0.8278 -0.9297  0.0548
 3788TIP3    H132855   0.517   3.667   4.118 -0.6546  1.0378  2.0835
 3788TIP3    H232856   0.559   3.530   4.164 -1.1479 -0.4647 -1.7306
 3789TIP3   OH232857   6.162   0.941  12.896 -0.2242 -0.7622 -0.4040
 3789TIP3    H132858   6.095   0.901  12.951  0.0860  1.0024  1.3059
 3789TIP3    H232859   6.183   1.024  12.939 -0.7442  1.2102 -3.7546
 3790TIP3   OH232860   4.038   4.770   4.886  0.0723  0.0630 -0.2450
 3790TIP3    H132861   4.023   4.676   4.883 -0.7707  0.2022 -0.4688
 3790TIP3    H232862   4.115   4.784   4.832  0.6511 -0.5897  0.4092
 3791TIP3   OH232863   4.786   3.685  10.779 -0.1998 -0.8199 -0.1229
 3791TIP3    H132864   4.850   3.701  10.848  0.6085  0.6067 -1.1759
 3791TIP3    H232865   4.735   3.766  10.773 -0.4255 -1.0197 -1.0260
 3792TIP3   OH232866   0.005   1.991   2.061  0.6802  0.3390  0.1459
 3792TIP3    H132867  -0.036   1.917   2.016  1.8977 -1.2293  1.5752
 3792TIP3    H232868   0.065   1.952   2.124  0.4548  2.5130  1.8108
 3793TIP3   OH232869   4.758   1.979  13.167  0.1146  0.2273 -0.2635
 3793TIP3    H132870   4.688   2.045  13.161  0.3907  0.5638  0.1517
 3793TIP3    H232871   4.820   2.016  13.230  0.8061  0.0568 -0.8446
 3794TIP3   OH232872   1.025   2.163  15.649 -0.5682  0.1080  0.1484
 3794TIP3    H132873   1.115   2.195  15.644 -0.4039 -0.2962  0.4487
 3794TIP3    H232874   1.005   2.132  15.561 -0.5517  0.5652 -0.0162
 3795TIP3   OH232875   2.732   5.018  13.524 -0.3085  0.1113 -0.0617
 3795TIP3    H132876   2.764   4.928  13.534 -0.9265  0.0539  1.4519
 3795TIP3    H232877   2.638   5.008  13.508 -0.2429  0.4613 -0.6962
 3796TIP3   OH232878   5.847   1.312  14.495  0.3231  0.7253  0.3027
 3796TIP3    H132879   5.869   1.345  14.582 -0.0186 -1.7822  1.3907
 3796TIP3    H232880   5.754   1.289  14.501  0.6463 -0.7784 -0.2738
 3797TIP3   OH232881   6.540   3.473  14.683  0.0163 -0.0665 -0.0746
 3797TIP3    H132882   6.524   3.484  14.777  0.6248  1.0121 -0.0942
 3797TIP3    H232883   6.567   3.559  14.653  2.6824 -1.0632 -0.6861
 3798TIP3   OH232884   0.783   3.278   2.857 -0.2248  0.5308  0.3191
 3798TIP3    H132885   0.790   3.193   2.901 -3.5444  0.4671  0.8120
 3798TIP3    H232886   0.791   3.343   2.927  1.5980  0.6228  0.0368
 3799TIP3   OH232887   2.956   4.310  14.852  0.1125  0.7431  0.5722
 3799TIP3    H132888   3.015   4.239  14.876 -1.1915 -0.5740 -0.0028
 3799TIP3    H232889   2.902   4.325  14.930 -0.7537 -0.0956  0.1528
 3800TIP3   OH232890   1.595   2.377   6.275 -0.4873 -0.4045  0.0608
 3800TIP3    H132891   1.519   2.419   6.234 -0.3402 -0.0219  0.1745
 3800TIP3    H232892   1.565   2.357   6.364 -1.4727 -3.0679 -0.8405
 3801TIP3   OH232893   1.973   4.004   1.248  0.0138  0.3303 -0.1850
 3801TIP3    H132894   1.880   3.985   1.238  0.2016 -0.4884 -0.4134
 3801TIP3    H232895   1.976   4.080   1.307 -0.7842  0.2664 -0.0580
 3802TIP3   OH232896   6.117   6.587   1.595  0.1022 -0.2684 -0.0976
 3802TIP3    H132897   6.081   6.660   1.646  0.3475  0.5022 -1.0068
 3802TIP3    H232898   6.158   6.530   1.660  0.6151  0.8212  0.5508
 3803TIP3   OH232899   0.949   6.362  13.418 -0.6459  0.3170 -0.0234
 3803TIP3    H132900   0.952   6.302  13.344 -1.2742  0.1085  0.1232
 3803TIP3    H232901   0.918   6.445  13.381  0.2499  0.5710 -0.2325
 3804TIP3   OH232902   0.242   3.528  12.285 -0.0474  0.0628  0.0063
 3804TIP3    H132903   0.288   3.447  12.267 -2.2861 -0.6855 -2.5572
 3804TIP3    H232904   0.302   3.597  12.255  2.4068 -0.4629  3.3650
 3805TIP3   OH232905   4.917   3.987  16.122  0.0685  0.3533  0.3643
 3805TIP3    H132906   4.966   3.948  16.049  0.0428  0.5612  0.2359
 3805TIP3    H232907   4.945   4.079  16.123 -1.0801  0.7223 -0.3571
 3806TIP3   OH232908   6.405   3.614  12.619  0.2884 -0.6520 -0.3672
 3806TIP3    H132909   6.487   3.567  12.601 -0.2249 -1.9662  0.6767
 3806TIP3    H232910   6.343   3.580  12.554  0.0786 -0.9730  0.0025
 3807TIP3   OH232911   2.490   0.083  13.102  0.1014  0.1638 -0.1580
 3807TIP3    H132912   2.470   0.012  13.042 -1.8981  1.1352 -0.6825
 3807TIP3    H232913   2.449   0.057  13.185  0.6368  0.0426  0.0787
 3808TIP3   OH232914   6.470   1.175   5.046  0.4477  0.0132 -0.3460
 3808TIP3    H132915   6.393   1.121   5.028 -0.0820  0.4253  0.6624
 3808TIP3    H232916   6.445   1.263   5.016  0.7365  0.0274 -0.5452
 3809TIP3   OH232917   3.157   2.451   3.305 -0.2034  0.4768 -0.4154
 3809TIP3    H132918   3.243   2.438   3.265  0.8579 -0.3555  2.0107
 3809TIP3    H232919   3.120   2.363   3.312 -0.0801  0.5207  0.9893
 3810TIP3   OH232920   3.103   3.373   2.239 -0.3995  0.4498  0.7648
 3810TIP3    H132921   3.155   3.293   2.231 -3.7596 -1.8640  1.0536
 3810TIP3    H232922   3.033   3.350   2.301 -1.8299  3.4158  0.3404
 3811TIP3   OH232923   1.206   0.884  16.572 -0.4799 -0.6034 -0.2379
 3811TIP3    H132924   1.176   0.876  16.481 -1.7897 -0.2728  0.1555
 3811TIP3    H232925   1.228   0.795  16.598 -0.4178 -0.7482 -0.7832
 3812TIP3   OH232926   3.012   5.642   2.984 -0.5915 -0.2199  0.5861
 3812TIP3    H132927   2.982   5.672   2.898  0.5758 -1.0916 -0.1442
 3812TIP3    H232928   2.960   5.693   3.046 -1.8590  0.0219 -0.6271
 3813TIP3   OH232929   1.266   2.119   5.777 -0.0545 -0.3604 -0.3575
 3813TIP3    H132930   1.223   2.033   5.780  1.9955 -1.4044  0.2414
 3813TIP3    H232931   1.289   2.131   5.685  1.4930 -1.4326 -0.1377
 3814TIP3   OH232932   1.586   4.010   5.710 -0.5785 -0.3333  0.0013
 3814TIP3    H132933   1.533   4.075   5.755  0.2267  0.7777 -0.6123
 3814TIP3    H232934   1.667   4.006   5.761  0.2607  0.7922 -1.2141
 3815TIP3   OH232935   0.220   6.667   3.947  0.0429 -0.1679  0.3097
 3815TIP3    H132936   0.289   6.665   4.013  0.5937  2.1095 -0.1646
 3815TIP3    H232937   0.230   6.583   3.901  2.0563 -0.1642  0.6704
 3816TIP3   OH232938   5.728   6.387  12.886  0.3634 -0.2497 -0.3109
 3816TIP3    H132939   5.637   6.412  12.902  0.2147 -0.2121 -1.1669
 3816TIP3    H232940   5.727   6.350  12.798  1.1891 -0.1921 -0.3463
 3817TIP3   OH232941   4.413   2.265  15.419 -0.0257  0.0422  0.2946
 3817TIP3    H132942   4.323   2.268  15.387 -0.0160  0.4725  0.3012
 3817TIP3    H232943   4.406   2.247  15.512 -0.0782 -0.6627  0.1536
 3818TIP3   OH232944   4.523   0.748   3.727  0.0165  0.1101  0.4718
 3818TIP3    H132945   4.506   0.760   3.821  0.6097  3.6562  0.1758
 3818TIP3    H232946   4.440   0.718   3.691 -0.5804 -0.0317  1.9168
 3819TIP3   OH232947   0.737   4.788   3.078 -0.3112 -0.3056  0.8322
 3819TIP3    H132948   0.709   4.867   3.124 -0.3078  1.8094 -2.6563
 3819TIP3    H232949   0.660   4.758   3.031  0.6064 -0.3528 -0.6588
 3820TIP3   OH232950   5.221   3.171  13.214 -0.2292 -0.6525  0.6804
 3820TIP3    H132951   5.143   3.172  13.270 -1.0127 -1.6316 -0.3636
 3820TIP3    H232952   5.206   3.239  13.149 -0.8446 -1.7344 -0.3332
 3821TIP3   OH232953   1.263   0.240   2.771  0.4315  0.3802 -0.2403
 3821TIP3    H132954   1.185   0.280   2.810 -0.4802 -0.4380 -1.1856
 3821TIP3    H232955   1.302   0.311   2.719  0.7543  1.0089  0.8418
 3822TIP3   OH232956   1.986   6.417   5.604 -0.7121 -0.1965  0.5220
 3822TIP3    H132957   1.932   6.448   5.531 -0.4369  0.6800  0.6933
 3822TIP3    H232958   2.014   6.329   5.576  0.2809  0.5555 -0.9141
 3823TIP3   OH232959   0.644   6.769  14.594  0.6867  0.6280 -0.4316
 3823TIP3    H132960   0.626   6.827  14.520  2.2277  1.1449 -0.3984
 3823TIP3    H232961   0.739   6.770  14.604  0.7191 -1.5410 -0.1505
 3824TIP3   OH232962   2.978   0.711  15.588  0.4004 -0.4851  0.2032
 3824TIP3    H132963   2.894   0.715  15.633  0.0097  0.7504 -0.6088
 3824TIP3    H232964   2.973   0.633  15.534 -0.3039 -0.2969 -0.0029
 3825TIP3   OH232965   2.800   4.589   4.840 -0.1811 -0.4674 -0.6816
 3825TIP3    H132966   2.865   4.604   4.908  0.2374 -0.6197 -1.0497
 3825TIP3    H232967   2.728   4.545   4.886  0.0568 -0.4831 -0.3202
 3826TIP3   OH232968   1.007   6.766   6.079  0.1369  0.0061  0.6915
 3826TIP3    H132969   1.042   6.750   6.167  1.2040 -1.0548  0.0895
 3826TIP3    H232970   1.060   6.838   6.045  0.8126 -0.6636  0.3118
 3827TIP3   OH232971   5.559   2.399   4.961  0.4714  0.1999  0.1723
 3827TIP3    H132972   5.558   2.317   5.011  1.4841  0.9493  1.4738
 3827TIP3    H232973   5.611   2.379   4.883 -0.0426 -0.6406  0.0393
 3828TIP3   OH232974   0.286   5.503  16.212 -0.6837 -0.4942 -0.0281
 3828TIP3    H132975   0.374   5.539  16.226 -0.7880  0.3068 -1.3014
 3828TIP3    H232976   0.258   5.541  16.128 -0.5748 -4.0256 -1.7608
 3829TIP3   OH232977   5.972   0.371   1.267 -0.1201  0.5033  0.8238
 3829TIP3    H132978   5.918   0.434   1.220  0.5652  0.9001  0.5554
 3829TIP3    H232979   5.955   0.389   1.359  0.2772  1.2673  0.7503
 3830TIP3   OH232980   0.711   5.632  14.892 -0.6709  0.0518 -0.7455
 3830TIP3    H132981   0.684   5.692  14.962 -1.9320  2.0874 -2.8976
 3830TIP3    H232982   0.807   5.632  14.896 -0.7266 -0.6608  1.5857
 3831TIP3   OH232983   1.273   1.795   4.671 -0.8162 -0.2679  0.0386
 3831TIP3    H132984   1.325   1.723   4.635 -1.6755 -0.7922 -0.1742
 3831TIP3    H232985   1.201   1.805   4.609 -2.7336 -1.6858  1.9633
 3832TIP3   OH232986   6.566   5.783   0.741  0.1462  0.2154 -0.5456
 3832TIP3    H132987   6.499   5.839   0.702 -2.1857 -0.5266  2.1440
 3832TIP3    H232988   6.532   5.764   0.829  4.2351  0.3488  1.1641
 3833TIP3   OH232989   4.448   3.541   3.258 -0.4210  0.1699  0.3173
 3833TIP3    H132990   4.487   3.502   3.335  0.6714  1.2262  0.3196
 3833TIP3    H232991   4.520   3.551   3.196 -1.7415 -3.1500 -1.9312
 3834TIP3   OH232992   1.717   5.128  16.051  0.4738  0.3252  0.4500
 3834TIP3    H132993   1.810   5.110  16.038  0.3677 -0.0632  0.2152
 3834TIP3    H232994   1.701   5.209  16.003  0.7557  0.5569  0.7424
 3835TIP3   OH232995   4.122   5.135   1.866  0.2196  0.1588 -0.2698
 3835TIP3    H132996   4.057   5.152   1.935  0.5327 -1.3975  0.4339
 3835TIP3    H232997   4.195   5.193   1.888  1.3533 -2.0649  2.2072
 3836TIP3   OH232998   5.565   5.822   4.911 -0.1268 -0.0672  0.5691
 3836TIP3    H132999   5.642   5.864   4.873  0.0881  1.1608  2.3029
 3836TIP3    H233000   5.566   5.848   5.003 -1.3117 -1.9657  1.1569
 3837TIP3   OH233001   2.841   1.794  10.877 -0.0754  0.5922  0.5805
 3837TIP3    H133002   2.917   1.748  10.841 -1.0512 -1.6171  1.2657
 3837TIP3    H233003   2.810   1.849  10.805  0.1947 -0.9871 -0.7754
 3838TIP3   OH233004   4.863   0.701   2.875 -0.5242  0.0403 -0.1579
 3838TIP3    H133005   4.958   0.693   2.874 -0.4992  0.1935  0.6796
 3838TIP3    H233006   4.847   0.792   2.900 -0.8961 -0.7831  2.8612
 3839TIP3   OH233007   5.310   5.618   4.160 -0.0116 -0.5872  0.2038
 3839TIP3    H133008   5.262   5.535   4.158  0.2617 -0.7398 -0.9093
 3839TIP3    H233009   5.246   5.684   4.134 -0.0166 -0.5743  0.2491
 3840TIP3   OH233010   5.197   6.549   6.210  0.0603  0.0318  0.2931
 3840TIP3    H133011   5.281   6.570   6.170 -0.1116  0.5628  0.1989
 3840TIP3    H233012   5.183   6.620   6.274 -1.0403  0.8091 -0.7851
 3841TIP3   OH233013   4.708   4.894   2.703  0.7781 -0.0120 -0.2604
 3841TIP3    H133014   4.657   4.876   2.624 -1.1569  2.6916  0.2913
 3841TIP3    H233015   4.662   4.846   2.772  1.4549 -0.9427 -0.4340
 3842TIP3   OH233016   2.888   6.346  15.251  0.6604  0.1730  0.2192
 3842TIP3    H133017   2.973   6.368  15.289  0.1795 -1.1221  2.1327
 3842TIP3    H233018   2.828   6.413  15.284  0.4369 -0.3900  0.9684
 3843TIP3   OH233019   2.559   3.004  15.396  0.5553  0.1878  0.6323
 3843TIP3    H133020   2.571   2.970  15.307  2.8798  0.3877  0.8391
 3843TIP3    H233021   2.520   3.090  15.384  1.6026  0.5501 -0.2303
 3844TIP3   OH233022   5.400   6.441   3.859 -0.0514 -0.2369  0.0450
 3844TIP3    H133023   5.492   6.429   3.836 -0.4211 -1.5198 -0.8448
 3844TIP3    H233024   5.384   6.534   3.846  0.8889 -0.1719 -0.6872
 3845TIP3   OH233025   2.406   4.501   3.046 -0.0062  0.6121 -0.2900
 3845TIP3    H133026   2.383   4.549   2.966  0.5606  0.7153 -0.3955
 3845TIP3    H233027   2.344   4.533   3.112 -2.5580 -1.7401 -1.4217
 3846TIP3   OH233028   1.147   5.241   5.898 -0.0646  0.8189 -0.6367
 3846TIP3    H133029   1.136   5.148   5.918 -0.5409  0.8222 -0.8800
 3846TIP3    H233030   1.108   5.287   5.972  0.5961  0.8225 -0.2922
 3847TIP3   OH233031   0.852   3.129  10.566  0.4689  0.4027  0.5305
 3847TIP3    H133032   0.771   3.082  10.583  1.4518 -1.0822  1.2285
 3847TIP3    H233033   0.919   3.061  10.563  1.5495  1.5057 -1.0334
 3848TIP3   OH233034   1.891   1.724  11.433  0.1880  0.9343 -0.6087
 3848TIP3    H133035   1.845   1.667  11.371  0.1846  0.4557 -0.1732
 3848TIP3    H233036   1.880   1.681  11.518  1.8792  0.5192 -0.5674
 3849TIP3   OH233037   4.814   6.443   4.481 -0.0365 -0.0985 -0.4071
 3849TIP3    H133038   4.766   6.362   4.501 -2.5084  0.3840 -3.8655
 3849TIP3    H233039   4.762   6.512   4.522 -0.1261  0.0894 -0.8400
 3850TIP3   OH233040   3.740   3.341  16.726  0.0889  0.1839 -0.5573
 3850TIP3    H133041   3.738   3.420  16.673 -1.5976 -0.2686 -1.1970
 3850TIP3    H233042   3.651   3.307  16.722  0.7085 -1.5557 -0.0049
 3851TIP3   OH233043   5.440   5.086   2.790  0.6495  0.2182  0.2816
 3851TIP3    H133044   5.508   5.146   2.760  0.1516  0.8424  0.3850
 3851TIP3    H233045   5.450   5.009   2.734 -0.6345  1.5896 -1.9450
 3852TIP3   OH233046   3.830   2.285   2.135 -0.3493  0.0218 -0.1755
 3852TIP3    H133047   3.742   2.273   2.171 -0.3063 -1.5765 -0.5779
 3852TIP3    H233048   3.815   2.323   2.048 -0.6031  0.5134  0.0797
 3853TIP3   OH233049   0.082   1.619   4.091  0.2185 -0.1245 -0.0324
 3853TIP3    H133050   0.011   1.560   4.064  0.1972 -0.1059 -0.0166
 3853TIP3    H233051   0.149   1.610   4.023  0.1971 -0.1344 -0.0518
 3854TIP3   OH233052   6.583   2.928  15.113 -0.3299  0.2317 -0.5360
 3854TIP3    H133053   6.624   2.847  15.081  0.1677  0.8324 -1.4273
 3854TIP3    H233054   6.523   2.954  15.044 -1.8898 -0.3879  0.5671
 3855TIP3   OH233055   1.409   1.272   0.741  0.8222  0.2818  0.2256
 3855TIP3    H133056   1.314   1.283   0.738  0.8541  1.2893  2.2545
 3855TIP3    H233057   1.436   1.280   0.650 -0.9527  0.8454 -0.2870
 3856TIP3   OH233058   4.231   5.614   0.810 -0.0656 -0.2573  0.5487
 3856TIP3    H133059   4.190   5.653   0.887  1.3305  3.0906 -0.3475
 3856TIP3    H233060   4.162   5.613   0.744 -0.5058 -0.6752  1.0082
 3857TIP3   OH233061   5.495   6.567   1.263  0.4991  0.2492 -0.2171
 3857TIP3    H133062   5.498   6.521   1.179  2.4863  4.3047 -2.5404
 3857TIP3    H233063   5.413   6.616   1.261  0.2446 -0.1497  0.4932
 3858TIP3   OH233064   6.489   5.753   0.999 -0.1158 -0.5519  0.4285
 3858TIP3    H133065   6.433   5.731   1.074 -1.5064  0.9870 -0.1375
 3858TIP3    H233066   6.553   5.814   1.035  0.0000 -0.7961  0.6430
 3859TIP3   OH233067   2.756   1.911  16.165  0.1370  0.3302  0.1960
 3859TIP3    H133068   2.808   1.991  16.158 -0.4437  0.7581  0.6740
 3859TIP3    H233069   2.730   1.891  16.075  0.8784  0.2785 -0.0072
 3860TIP3   OH233070   1.052   1.196   4.194 -0.0112 -0.2311 -0.6831
 3860TIP3    H133071   1.017   1.148   4.268 -1.2899 -0.2964 -1.3061
 3860TIP3    H233072   1.096   1.130   4.140  1.7953 -0.0232  0.4991
 3861TIP3   OH233073   3.447   4.478  14.525  0.1977  0.5222 -0.1848
 3861TIP3    H133074   3.353   4.492  14.516 -0.0431 -0.8964  0.0686
 3861TIP3    H233075   3.455   4.408  14.589  1.4008  0.0932 -0.7938
 3862TIP3   OH233076   4.710   3.444   3.954 -0.0643  0.6514 -0.2568
 3862TIP3    H133077   4.790   3.455   4.006 -1.2382 -0.5674  1.9208
 3862TIP3    H233078   4.659   3.523   3.971  0.0491  0.7745 -0.4870
 3863TIP3   OH233079   4.172   1.316  14.175 -0.0908  0.3520  0.2772
 3863TIP3    H133080   4.123   1.393  14.148 -1.5564 -0.6883 -0.0812
 3863TIP3    H233081   4.244   1.311  14.112 -0.5613  0.8577 -0.3090
 3864TIP3   OH233082   0.663   2.964  13.019  0.3830 -0.3999  0.7079
 3864TIP3    H133083   0.683   2.970  13.113  3.1086 -0.6476  0.1699
 3864TIP3    H233084   0.713   2.888  12.989  2.0627  1.5437 -1.5809
 3865TIP3   OH233085   0.670   4.478   1.840  0.5191 -0.6030 -0.1043
 3865TIP3    H133086   0.716   4.425   1.775  0.3915  0.5853 -1.1816
 3865TIP3    H233087   0.580   4.481   1.808 -0.1134 -2.0842  1.4627
 3866TIP3   OH233088   6.613   3.781  14.989 -0.7954  0.2682  0.1627
 3866TIP3    H133089   6.697   3.825  14.988  0.6432 -2.3435 -0.3577
 3866TIP3    H233090   6.555   3.839  15.038  1.9710  0.9011  2.8102
 3867TIP3   OH233091   5.788   1.131  13.205  0.3584  0.1858  0.1251
 3867TIP3    H133092   5.759   1.067  13.140  0.4088 -0.9557  1.1968
 3867TIP3    H233093   5.851   1.186  13.158 -0.9721  0.5455 -1.2783
 3868TIP3   OH233094   6.075   5.428  13.776  0.1818  0.3788 -0.0736
 3868TIP3    H133095   5.990   5.470  13.763 -0.7503 -0.7460  2.0505
 3868TIP3    H233096   6.055   5.334  13.776  1.9884 -0.0727 -3.1417
 3869TIP3   OH233097   0.581   2.283  13.622 -0.1002  1.1393  0.3623
 3869TIP3    H133098   0.518   2.264  13.552 -0.4148 -0.0633  0.9482
 3869TIP3    H233099   0.559   2.372  13.650 -0.0291  1.5923 -0.9963
 3870TIP3   OH233100   2.054   3.356   0.515  0.9472 -0.6544  0.0564
 3870TIP3    H133101   2.086   3.433   0.468  0.7412 -0.0249  0.9422
 3870TIP3    H233102   1.994   3.391   0.581 -2.8580 -1.9013 -2.5562
 3871TIP3   OH233103   4.997   3.228   3.936  0.5883 -0.4997 -0.0232
 3871TIP3    H133104   4.998   3.240   3.841  0.1380  2.5356  0.3113
 3871TIP3    H233105   4.925   3.167   3.951 -1.0739  1.0435 -1.4544
 3872TIP3   OH233106   4.071   3.524   4.613 -0.1250  0.2867 -0.2394
 3872TIP3    H133107   4.008   3.462   4.576  2.1140 -1.1319 -1.8061
 3872TIP3    H233108   4.089   3.586   4.542  2.1595 -0.8527 -0.6960
 3873TIP3   OH233109   4.294   1.464  13.000  0.1615  0.2513 -0.3570
 3873TIP3    H133110   4.260   1.491  12.915  0.1044  3.0418  0.5115
 3873TIP3    H233111   4.340   1.382  12.982 -1.4147 -0.1635 -2.7253
 3874TIP3   OH233112   3.920   2.691  16.343 -0.0070  0.2508  0.2140
 3874TIP3    H133113   3.922   2.784  16.365  0.3415  0.1931  0.4337
 3874TIP3    H233114   3.948   2.688  16.252 -3.0278  0.6405 -0.7739
 3875TIP3   OH233115   3.350   0.564   6.396  0.1494 -0.0266  0.3100
 3875TIP3    H133116   3.399   0.495   6.352 -0.2800  0.5046 -1.0467
 3875TIP3    H233117   3.259   0.550   6.369  0.1541  1.4869 -0.6111
 3876TIP3   OH233118   6.534   5.729   6.090 -0.5532  0.0414  0.4852
 3876TIP3    H133119   6.492   5.792   6.148  1.2808  0.9392  0.8742
 3876TIP3    H233120   6.521   5.644   6.133  0.0465  0.5973  1.7986
 3877TIP3   OH233121   1.033   4.609  14.094  0.3886 -0.1232  0.3221
 3877TIP3    H133122   0.940   4.616  14.118  0.2743 -0.2122 -0.0822
 3877TIP3    H233123   1.057   4.698  14.068 -0.0184 -0.4160 -1.1027
 3878TIP3   OH233124   3.718   3.172  14.852  0.1593  0.0499 -0.0741
 3878TIP3    H133125   3.766   3.235  14.906  0.6398 -0.0470 -0.3804
 3878TIP3    H233126   3.626   3.197  14.861  0.2387  0.0299  0.7831
 3879TIP3   OH233127   1.970   5.932  16.604 -0.0577  0.7063  0.0091
 3879TIP3    H133128   1.968   5.847  16.650 -0.3780  1.3237  1.1729
 3879TIP3    H233129   1.929   5.915  16.520  0.0382 -0.3458  0.1707
 3880TIP3   OH233130   4.298   6.110   0.650 -0.0654  0.1966  0.1595
 3880TIP3    H133131   4.222   6.127   0.705 -0.1916  1.7819 -0.4711
 3880TIP3    H233132   4.300   6.015   0.639  0.1940 -0.2155  3.2111
 3881TIP3   OH233133   5.307   5.639  17.126  0.2216  0.3016  0.6565
 3881TIP3    H133134   5.311   5.550  17.090 -1.5862  0.2836  0.4734
 3881TIP3    H233135   5.398   5.669  17.124  0.6500 -1.0115 -0.6076
 3882TIP3   OH233136   6.623   4.098  15.556 -0.1175  0.4038 -0.0726
 3882TIP3    H133137   6.631   4.137  15.469 -1.5284  0.2241 -0.2873
 3882TIP3    H233138   6.614   4.004  15.539 -2.6992  0.5806  0.1275
 3883TIP3   OH233139   1.824   4.021  16.887 -0.0218 -0.5386 -0.4727
 3883TIP3    H133140   1.833   3.936  16.930 -1.9497 -1.6921 -2.2269
 3883TIP3    H233141   1.762   4.005  16.816 -0.0166  2.2345 -1.1566
 3884TIP3   OH233142   1.885   4.884   4.920  0.2566 -0.4096  0.1242
 3884TIP3    H133143   1.922   4.856   5.004 -0.3073 -0.4957  0.3449
 3884TIP3    H233144   1.820   4.951   4.944 -0.2719 -0.8038 -0.2016
 3885TIP3   OH233145   5.562   2.000   0.134 -0.6027 -0.3916  0.5267
 3885TIP3    H133146   5.467   2.000   0.144 -0.6733  0.3967 -0.1342
 3885TIP3    H233147   5.578   1.943   0.059 -0.5174 -0.9062  0.9317
 3886TIP3   OH233148   0.817   2.694   4.804 -0.5670  0.6503  0.2018
 3886TIP3    H133149   0.842   2.734   4.887  2.1093 -0.3967 -0.0610
 3886TIP3    H233150   0.868   2.741   4.738  1.2601 -1.9252 -0.2875
 3887TIP3   OH233151   0.888   1.506   1.654  0.2493  0.3891  0.4595
 3887TIP3    H133152   0.800   1.544   1.652 -0.1313 -0.5388 -1.1655
 3887TIP3    H233153   0.892   1.460   1.738 -0.1592  1.9439  1.3531
 3888TIP3   OH233154   5.711   4.859  12.391  0.5935 -0.0995  0.0456
 3888TIP3    H133155   5.655   4.789  12.356  1.4963  0.2342 -2.1654
 3888TIP3    H233156   5.667   4.939  12.365  1.4429  0.1608 -0.6033
 3889TIP3   OH233157   2.800   0.799  13.863  0.3704  0.3930 -0.5317
 3889TIP3    H133158   2.791   0.893  13.845  0.2504  1.0022  2.3427
 3889TIP3    H233159   2.724   0.778  13.917  1.1690 -1.0073  0.0729
 3890TIP3   OH233160   4.118   3.819   4.889  0.0952  0.2479  0.7457
 3890TIP3    H133161   4.111   3.777   4.974  1.4291 -2.1553 -0.2780
 3890TIP3    H233162   4.041   3.790   4.841  0.4180 -0.1019  0.4341
 3891TIP3   OH233163   3.359   0.040   5.732  0.4573 -0.3097 -0.2641
 3891TIP3    H133164   3.317   0.011   5.651 -0.0012 -1.0324  0.2253
 3891TIP3    H233165   3.304   0.003   5.802  0.7649  0.4301  0.3705
 3892TIP3   OH233166   6.705   2.463   1.797 -0.0751 -0.3715 -0.0172
 3892TIP3    H133167   6.646   2.396   1.831 -1.1353  0.5242 -0.0852
 3892TIP3    H233168   6.691   2.462   1.703  0.1245 -0.2526 -0.0495
 3893TIP3   OH233169   0.204   6.763  11.505  0.1903  0.1252 -0.0957
 3893TIP3    H133170   0.172   6.812  11.429 -1.5591  0.9903  1.1602
 3893TIP3    H233171   0.191   6.671  11.482  0.1983  0.3593 -1.0605
 3894TIP3   OH233172   5.735   1.400  11.493 -0.6202 -0.0395 -0.8679
 3894TIP3    H133173   5.760   1.360  11.409  1.6796 -0.6186  0.0453
 3894TIP3    H233174   5.704   1.326  11.546  1.7740 -0.3760  0.1440
 3895TIP3   OH233175   1.101   4.651  10.901 -0.1475 -0.0439 -0.0291
 3895TIP3    H133176   1.021   4.601  10.915  0.2987 -0.2412  2.0598
 3895TIP3    H233177   1.086   4.733  10.947 -0.1698  1.0197 -1.9030
 3896TIP3   OH233178   2.557   6.590   4.679 -0.4815 -0.0542  0.0737
 3896TIP3    H133179   2.647   6.596   4.645 -0.6853  2.3618 -0.1159
 3896TIP3    H233180   2.568   6.573   4.772  0.2511  2.3361  0.4700
 3897TIP3   OH233181   4.370   5.663   0.525  0.3026  0.4012 -0.2972
 3897TIP3    H133182   4.287   5.699   0.494 -0.1890 -1.2183 -0.9077
 3897TIP3    H233183   4.345   5.601   0.594  0.9391 -0.5536 -0.9064
 3898TIP3   OH233184   5.856   0.640   4.972  1.0498  0.2490 -0.0114
 3898TIP3    H133185   5.801   0.565   4.996  1.6158 -0.0670  0.3096
 3898TIP3    H233186   5.797   0.700   4.926  0.3346  0.1233  0.7461
 3899TIP3   OH233187   4.144   0.127   1.175 -1.1477 -0.4052  0.1171
 3899TIP3    H133188   4.106   0.166   1.097  1.5572  3.1638  0.4684
 3899TIP3    H233189   4.208   0.064   1.141 -2.4079 -1.3688 -0.4926
 3900TIP3   OH233190   4.661   2.044   5.021 -0.3404 -0.3225  0.1863
 3900TIP3    H133191   4.565   2.038   5.028 -0.2116 -2.1278  0.5665
 3900TIP3    H233192   4.680   2.021   4.931 -0.1653 -1.3108  0.4743
 3901TIP3   OH233193   6.278   0.674   1.224 -0.1135  0.5401 -0.0415
 3901TIP3    H133194   6.242   0.724   1.297 -1.8955  0.2912 -0.7072
 3901TIP3    H233195   6.227   0.703   1.148  0.1319 -0.8732 -0.7606
 3902TIP3   OH233196   0.351   1.309   5.107 -0.3399 -0.2761 -0.7110
 3902TIP3    H133197   0.403   1.245   5.156  0.3198  1.7145  1.2471
 3902TIP3    H233198   0.264   1.305   5.147 -0.3197 -0.0059 -0.6411
 3903TIP3   OH233199   0.447   3.998   2.448 -0.3101  0.1206 -0.2036
 3903TIP3    H133200   0.366   3.955   2.423  0.0526 -1.0879  0.6571
 3903TIP3    H233201   0.503   3.993   2.370 -1.6994  2.5804 -1.4066
 3904TIP3   OH233202   0.150   6.138   1.726  0.0622  0.0005  0.0328
 3904TIP3    H133203   0.184   6.223   1.755  1.0856  0.2599 -1.8443
 3904TIP3    H233204   0.166   6.080   1.800 -0.0267  1.2782  1.0865
 3905TIP3   OH233205   2.481   1.299  14.996 -0.9349 -0.2214 -0.2968
 3905TIP3    H133206   2.522   1.285  15.081 -1.5878 -2.2420 -0.2816
 3905TIP3    H233207   2.388   1.307  15.014 -1.0417 -0.3098 -0.7847
 3906TIP3   OH233208   4.114   4.380  16.108 -0.4500  0.0058  0.3461
 3906TIP3    H133209   4.177   4.339  16.167  0.2068  0.4835 -0.0243
 3906TIP3    H233210   4.062   4.306  16.074  0.3286 -0.4594  0.1557
 3907TIP3   OH233211   0.260   0.552  14.794 -0.2578 -0.0607  0.1645
 3907TIP3    H133212   0.221   0.605  14.725  0.6544 -0.8485 -0.9910
 3907TIP3    H233213   0.186   0.511  14.839 -0.8030 -0.7654 -1.3578
 3908TIP3   OH233214   3.257   0.918   5.585 -0.2242 -0.2672  0.2486
 3908TIP3    H133215   3.328   0.890   5.644  0.1174 -1.7316 -0.8179
 3908TIP3    H233216   3.193   0.846   5.591 -1.0394  0.4571  0.2392
 3909TIP3   OH233217   3.309   4.954   3.094  0.5937 -0.1649 -0.6266
 3909TIP3    H133218   3.394   4.958   3.050  0.8266 -0.5371 -0.2087
 3909TIP3    H233219   3.290   4.860   3.102  0.6083 -0.1044  0.1759
 3910TIP3   OH233220   0.994   6.658  13.298 -0.1110  0.0835 -0.3359
 3910TIP3    H133221   1.046   6.589  13.258 -1.5179 -0.5099 -1.1797
 3910TIP3    H233222   0.912   6.658  13.248 -0.5888  1.5582  0.4220
 3911TIP3   OH233223   1.407   6.670  16.168 -0.1911 -0.2281  0.5123
 3911TIP3    H133224   1.396   6.706  16.256 -0.7933  0.2017  0.2655
 3911TIP3    H233225   1.366   6.734  16.111  1.2103  0.0488 -0.1948
 3912TIP3   OH233226   4.609   6.155  13.548 -0.1310 -0.3998  0.5429
 3912TIP3    H133227   4.619   6.127  13.457  0.2386  0.1120  0.4241
 3912TIP3    H233228   4.653   6.086  13.599  0.2321 -0.3531  0.2935
 3913TIP3   OH233229   3.140   2.819   0.242  0.0824  0.9018  0.3503
 3913TIP3    H133230   3.188   2.762   0.303 -1.6568 -2.1560 -1.0627
 3913TIP3    H233231   3.204   2.839   0.173  0.3553 -0.3646  0.2232
 3914TIP3   OH233232   0.178   6.011   0.490 -0.2257 -0.1618 -0.3061
 3914TIP3    H133233   0.123   6.067   0.544 -1.8175 -2.2852  0.3624
 3914TIP3    H233234   0.211   5.944   0.551  0.9322 -0.4750 -1.2482
 3915TIP3   OH233235   5.648   1.494  16.957  0.3718 -0.0354  0.5476
 3915TIP3    H133236   5.601   1.512  17.039 -0.7019  0.2094 -0.1104
 3915TIP3    H233237   5.729   1.544  16.966 -1.1085  2.5447  0.1719
 3916TIP3   OH233238   0.453   1.672   3.135  0.2500 -0.1135 -0.2274
 3916TIP3    H133239   0.522   1.724   3.175 -1.0174  0.6325  1.0704
 3916TIP3    H233240   0.498   1.596   3.098  1.7002  0.1167  0.9993
 3917TIP3   OH233241   0.189   5.417  14.579 -0.3287  0.1040  0.2657
 3917TIP3    H133242   0.266   5.450  14.625 -0.5902 -0.2361  0.9379
 3917TIP3    H233243   0.142   5.365  14.643  0.6026 -2.4789 -1.0768
 3918TIP3   OH233244   5.781   2.635   0.495  0.0248  0.1459 -0.1316
 3918TIP3    H133245   5.711   2.682   0.449  0.5857  2.6547  1.4959
 3918TIP3    H233246   5.736   2.584   0.561 -0.4192  0.3996 -0.2323
 3919TIP3   OH233247   1.795   1.967  11.804  0.6080 -0.0094  0.3653
 3919TIP3    H133248   1.758   2.026  11.869  0.3689 -0.7507  0.9026
 3919TIP3    H233249   1.774   1.880  11.836  0.8800 -0.3857 -0.4752
 3920TIP3   OH233250   6.544   2.571   3.485 -0.4125 -0.0656 -0.6831
 3920TIP3    H133251   6.631   2.601   3.514 -0.7493  1.1069 -0.8600
 3920TIP3    H233252   6.555   2.552   3.392 -1.0721  3.0608 -1.4639
 3921TIP3   OH233253   0.594   0.459  11.020 -0.3691  0.2102 -0.3409
 3921TIP3    H133254   0.615   0.426  10.933 -0.4862  0.0544 -0.3097
 3921TIP3    H233255   0.673   0.443  11.071 -0.9014 -1.3243  0.0466
 3922TIP3   OH233256   0.905   5.071   6.035  0.5623 -0.2768  0.3055
 3922TIP3    H133257   0.873   5.141   6.091  0.4195 -0.6495  0.6925
 3922TIP3    H233258   0.892   4.991   6.086 -0.6072 -0.7383 -0.7066
 3923TIP3   OH233259   0.473   5.883  16.551  0.0705  0.6273  0.0799
 3923TIP3    H133260   0.521   5.800  16.557  1.2371  1.3325  0.6294
 3923TIP3    H233261   0.522   5.934  16.486 -1.3934  0.4024 -1.2171
 3924TIP3   OH233262   5.990   5.003  12.712  0.3258 -0.5620 -0.3197
 3924TIP3    H133263   6.081   4.978  12.699  0.6410 -0.6893  2.0009
 3924TIP3    H233264   5.993   5.071  12.780 -1.2670 -0.2685 -0.5195
 3925TIP3   OH233265   0.707   5.296   5.256  0.3473  0.5075 -0.0265
 3925TIP3    H133266   0.672   5.214   5.290 -0.6272  1.3667  1.1121
 3925TIP3    H233267   0.744   5.274   5.170  1.8937 -1.5007  1.1229
 3926TIP3   OH233268   1.907   5.292  11.596 -0.0633 -0.5779  0.5574
 3926TIP3    H133269   1.899   5.231  11.522 -1.0937  0.6493 -0.3732
 3926TIP3    H233270   1.843   5.361  11.577  1.8636  1.3851  1.0070
 3927TIP3   OH233271   2.954   5.535  13.355 -0.0031  1.1325 -0.4953
 3927TIP3    H133272   2.990   5.614  13.314  2.4503  1.7286  2.5482
 3927TIP3    H233273   3.028   5.475  13.360 -0.7093  0.3459  1.1724
 3928TIP3   OH233274   5.693   4.053  13.168  0.1207  0.3743 -0.1696
 3928TIP3    H133275   5.649   4.117  13.225  0.4231  0.5191 -0.0983
 3928TIP3    H233276   5.726   3.987  13.229 -0.6560 -0.1303 -0.2914
 3929TIP3   OH233277   3.782   0.951   1.177 -0.1225 -0.1107  0.3438
 3929TIP3    H133278   3.796   1.045   1.168  0.7112 -0.1747  0.9245
 3929TIP3    H233279   3.733   0.926   1.098  1.1775  0.5002 -0.6624
 3930TIP3   OH233280   3.268   2.207   6.733 -0.4850 -0.5575 -0.3111
 3930TIP3    H133281   3.183   2.178   6.767 -0.3137 -0.2671  0.3724
 3930TIP3    H233282   3.266   2.183   6.640 -0.6784 -2.0115  0.0531
 3931TIP3   OH233283   1.184   3.871   2.228  0.1541  0.2863 -0.7657
 3931TIP3    H133284   1.182   3.950   2.283 -3.4394 -0.7214  0.6534
 3931TIP3    H233285   1.134   3.895   2.150 -0.3690 -0.3714 -0.6338
 3932TIP3   OH233286   0.764   4.535   2.952  0.5814 -0.2056  0.0965
 3932TIP3    H133287   0.784   4.610   3.009 -1.1542  0.7670 -0.5384
 3932TIP3    H233288   0.774   4.570   2.864  2.0479 -1.3765 -0.2082
 3933TIP3   OH233289   1.692   1.918  12.255 -0.1292 -0.0659  0.0005
 3933TIP3    H133290   1.743   1.846  12.218  2.0664  0.0783  2.6301
 3933TIP3    H233291   1.737   1.997  12.226  0.5372  0.0883  1.4160
 3934TIP3   OH233292   1.024   1.676  12.970  0.3405 -0.4521  0.7894
 3934TIP3    H133293   0.934   1.670  12.940  0.3074  2.3194  0.1529
 3934TIP3    H233294   1.077   1.672  12.890  0.4515  3.0620  0.5845
 3935TIP3   OH233295   2.666   4.872   5.161  0.0028 -0.5891  0.5303
 3935TIP3    H133296   2.659   4.968   5.160  1.1998 -0.5014 -1.2531
 3935TIP3    H233297   2.589   4.843   5.111  0.0400 -0.5330  0.4400
 3936TIP3   OH233298   2.608   4.560  15.049  0.0254  0.1979 -0.8969
 3936TIP3    H133299   2.611   4.651  15.022 -1.1909  1.0818  1.7871
 3936TIP3    H233300   2.538   4.521  14.997  0.1848  0.9238 -1.6608
 3937TIP3   OH233301   1.664   3.885  13.460  0.7898  0.0636  0.5354
 3937TIP3    H133302   1.684   3.927  13.544  0.4611  0.7227  0.2841
 3937TIP3    H233303   1.726   3.812  13.455  0.2736 -0.4725  1.7250
 3938TIP3   OH233304   6.805   4.021  13.660  0.1997  0.4269  0.2178
 3938TIP3    H133305   6.897   4.021  13.688  0.0434 -0.5542  0.7647
 3938TIP3    H233306   6.802   3.957  13.590  0.7091  3.3159 -2.5718
 3939TIP3   OH233307   2.466   1.092   0.290 -0.0249 -0.1055  0.2193
 3939TIP3    H133308   2.559   1.082   0.267 -0.0576 -1.0540  0.4625
 3939TIP3    H233309   2.420   1.036   0.227 -0.3587 -0.3111  0.6424
 3940TIP3   OH233310   5.102   5.533   0.781 -0.5327  0.4342  0.5102
 3940TIP3    H133311   5.106   5.600   0.849  0.7352  1.2628 -0.3554
 3940TIP3    H233312   5.067   5.580   0.705  0.1073  0.0472 -0.0194
 3941TIP3   OH233313   1.967   3.756  15.786 -0.4166 -0.5812 -0.1268
 3941TIP3    H133314   2.048   3.728  15.829  0.4511  2.2925  0.1664
 3941TIP3    H233315   1.898   3.734  15.849  0.4404 -0.2290  0.9595
 3942TIP3   OH233316   4.494   4.775   3.842 -0.2013 -0.5464  0.1963
 3942TIP3    H133317   4.518   4.710   3.777  1.5787 -0.2594  0.5402
 3942TIP3    H233318   4.559   4.845   3.831 -0.9438  0.2999  1.0915
 3943TIP3   OH233319   4.472   5.356  11.996  0.0887 -0.1813 -0.2443
 3943TIP3    H133320   4.405   5.423  11.984 -0.6211 -1.2010 -2.2641
 3943TIP3    H233321   4.539   5.398  12.050 -2.7786  0.4320  2.9605
 3944TIP3   OH233322   5.525   0.950  12.216 -0.1987  0.5736 -0.1831
 3944TIP3    H133323   5.445   1.002  12.216 -0.9666 -0.5721  0.4208
 3944TIP3    H233324   5.564   0.967  12.302  0.2510  1.2035 -0.5127
 3945TIP3   OH233325   1.305   2.040   0.893  0.5762 -0.1169  0.5083
 3945TIP3    H133326   1.245   2.075   0.959 -1.8906 -1.8958 -0.7157
 3945TIP3    H233327   1.372   1.994   0.944 -0.0039  0.4991  1.8570
 3946TIP3   OH233328   5.061   4.564  15.396  0.2213 -0.0073  0.3082
 3946TIP3    H133329   5.139   4.611  15.426  0.6328  0.2342 -1.0898
 3946TIP3    H233330   5.048   4.595  15.306 -0.8079 -0.9235  0.1370
 3947TIP3   OH233331   5.826   4.533   5.113 -0.2576 -0.0865  0.1045
 3947TIP3    H133332   5.787   4.524   5.200  0.9528 -1.0181  0.5560
 3947TIP3    H233333   5.876   4.615   5.118  0.2181 -0.3930  0.4563
 3948TIP3   OH233334   4.450   4.839  14.966  0.1765  0.3344  0.5180
 3948TIP3    H133335   4.509   4.864  15.038  0.8187  0.4183 -0.0384
 3948TIP3    H233336   4.477   4.751  14.941  1.3967  1.1377 -1.0779
 3949TIP3   OH233337   3.987   5.792  15.117 -0.8162 -0.0178 -0.4236
 3949TIP3    H133338   3.892   5.798  15.124 -0.7783 -0.4863  0.5091
 3949TIP3    H233339   4.021   5.838  15.193 -0.3197 -0.8195 -0.1464
 3950TIP3   OH233340   6.518   1.970  14.601 -0.6254 -0.3561  0.1313
 3950TIP3    H133341   6.567   1.952  14.521  0.1493 -0.7679  0.6906
 3950TIP3    H233342   6.457   1.896  14.609  0.5292 -1.2596  0.8572
 3951TIP3   OH233343   4.226   4.509   3.165 -0.4889  0.5472  0.2252
 3951TIP3    H133344   4.291   4.441   3.183 -1.3012 -0.5468 -0.9045
 3951TIP3    H233345   4.161   4.466   3.110 -1.1172  2.1937 -0.3456
 3952TIP3   OH233346   2.691   4.329   4.319  0.0816 -0.0361  0.1174
 3952TIP3    H133347   2.723   4.386   4.390  0.4018  0.2418 -0.2457
 3952TIP3    H233348   2.757   4.260   4.313 -0.9838 -1.1929  1.4442
 3953TIP3   OH233349   3.686   6.423  14.863 -0.6807  0.2734 -0.2109
 3953TIP3    H133350   3.641   6.339  14.873  3.4929 -1.9894  0.8827
 3953TIP3    H233351   3.660   6.474  14.939 -0.4030 -1.4957  1.1106
 3954TIP3   OH233352   4.654   3.757  13.729 -0.5134  0.3197  0.0096
 3954TIP3    H133353   4.658   3.752  13.634  0.6266  0.5107  0.0481
 3954TIP3    H233354   4.645   3.666  13.757  0.1846  0.1752 -0.2325
 3955TIP3   OH233355   4.006   0.860   0.710 -0.0790  0.0197 -0.2677
 3955TIP3    H133356   4.087   0.875   0.759 -0.2106 -1.9373  0.5887
 3955TIP3    H233357   3.985   0.768   0.726 -1.6813  0.1206 -1.6847
 3956TIP3   OH233358   0.804   3.525  10.320 -0.2034  0.1751 -0.3674
 3956TIP3    H133359   0.799   3.460  10.391  0.7071  1.7232  1.1436
 3956TIP3    H233360   0.717   3.565  10.319  0.7329  2.3928  2.0836
 3957TIP3   OH233361   1.942   0.258   3.950  0.0472 -0.5073  0.1272
 3957TIP3    H133362   2.021   0.286   3.997  0.9396 -1.5169 -0.7475
 3957TIP3    H233363   1.870   0.278   4.010  0.8774  1.3098  0.5513
 3958TIP3   OH233364   0.957   1.782  16.097  0.2347  0.7329 -0.1875
 3958TIP3    H133365   0.961   1.760  16.004  1.3722  1.1171 -0.2407
 3958TIP3    H233366   0.874   1.828  16.108  0.7394  1.9143 -1.2879
 3959TIP3   OH233367   0.662   6.309   2.254 -0.2262 -0.0239 -0.4131
 3959TIP3    H133368   0.667   6.216   2.272  0.7434 -0.1479 -1.3008
 3959TIP3    H233369   0.747   6.331   2.215 -0.0259  1.4496  0.8063
 3960TIP3   OH233370   3.584   3.932  10.671  0.2698 -0.1449 -0.0237
 3960TIP3    H133371   3.502   3.979  10.659  0.4020 -0.0740 -0.6574
 3960TIP3    H233372   3.625   3.932  10.585  0.7164 -0.5908  0.1835
 3961TIP3   OH233373   2.027   6.446   4.106  0.6058  0.0708 -0.4226
 3961TIP3    H133374   2.099   6.490   4.151 -0.9306  0.8089  1.4010
 3961TIP3    H233375   2.066   6.366   4.070  1.7227 -1.0400  3.0550
 3962TIP3   OH233376   5.101   2.995  13.485 -0.6734  0.8103 -0.0352
 3962TIP3    H133377   5.183   2.959  13.450  0.0871 -0.1231  2.5834
 3962TIP3    H233378   5.033   2.934  13.454 -0.0755  0.2253 -0.2062
 3963TIP3   OH233379   4.977   1.505   0.067  0.2140  0.0810 -0.0899
 3963TIP3    H133380   5.066   1.478   0.092  0.2079 -0.1029 -0.2666
 3963TIP3    H233381   4.922   1.478   0.141 -0.3209 -3.5215 -1.7355
 3964TIP3   OH233382   0.589   4.269   1.459  0.2349  0.5049  0.0731
 3964TIP3    H133383   0.588   4.183   1.500  0.3636 -0.4309 -1.8426
 3964TIP3    H233384   0.503   4.306   1.478 -1.2141 -1.5706 -2.2177
 3965TIP3   OH233385   0.844   3.525  11.855 -0.6659  0.2553 -0.0343
 3965TIP3    H133386   0.758   3.551  11.887 -0.6486 -2.4458  2.3706
 3965TIP3    H233387   0.834   3.434  11.828  1.2725  0.1094 -0.3491
 3966TIP3   OH233388   6.208   4.825  15.714 -0.3597  0.4789  0.2045
 3966TIP3    H133389   6.218   4.876  15.634  0.4940 -1.2694 -0.8502
 3966TIP3    H233390   6.288   4.842  15.763  0.6133 -0.9674 -0.8341
 3967TIP3   OH233391   3.731   6.513   6.018  0.5142  0.2592  0.1099
 3967TIP3    H133392   3.792   6.439   6.015 -0.4695 -0.6734  1.8206
 3967TIP3    H233393   3.702   6.524   5.928  0.8387 -1.3174 -0.2111
 3968TIP3   OH233394   5.890   0.009  16.549  0.7123  0.4227 -0.1158
 3968TIP3    H133395   5.894   0.000  16.644 -2.9582 -0.7133  0.0151
 3968TIP3    H233396   5.819   0.072  16.533  1.0879  0.3852 -2.0929
 3969TIP3   OH233397   1.479   2.835  16.694 -0.7029  0.1926  0.6127
 3969TIP3    H133398   1.571   2.861  16.692 -0.4987 -0.3579  2.0678
 3969TIP3    H233399   1.480   2.744  16.723 -1.6891  0.0662  0.2897
 3970TIP3   OH233400   1.150   3.872  16.764 -0.1484  0.1218  0.4366
 3970TIP3    H133401   1.191   3.878  16.850 -0.6524  0.9907  0.6250
 3970TIP3    H233402   1.149   3.962  16.731  2.1671 -0.5132 -1.4871
 3971TIP3   OH233403   4.759   3.669  14.130  0.1684 -0.1829  0.3897
 3971TIP3    H133404   4.794   3.641  14.215  1.2071  1.1202  0.4147
 3971TIP3    H233405   4.743   3.588  14.083  1.5929 -0.8810  1.0562
 3972TIP3   OH233406   6.405   4.109  12.840 -0.3051  0.0788  0.3952
 3972TIP3    H133407   6.315   4.097  12.812  0.0849  1.6156 -1.6437
 3972TIP3    H233408   6.432   4.023  12.873 -1.4216 -1.2837 -2.1622
 3973TIP3   OH233409   3.576   6.788  13.682  0.2493  0.0452 -0.3104
 3973TIP3    H133410   3.579   6.880  13.707 -0.7198  0.4859 -1.8158
 3973TIP3    H233411   3.645   6.778  13.617  0.7929 -0.4557  0.3260
 3974TIP3   OH233412   0.632   3.614   5.496 -0.6000  0.1255 -0.1152
 3974TIP3    H133413   0.702   3.613   5.431 -0.9276  0.1848 -0.4690
 3974TIP3    H233414   0.672   3.577   5.575 -0.0711  0.4804 -0.2112
 3975TIP3   OH233415   4.533   0.251   1.327  0.3124 -0.7124 -0.8052
 3975TIP3    H133416   4.548   0.177   1.268  0.1557 -0.3562 -1.2905
 3975TIP3    H233417   4.555   0.217   1.414 -0.5393 -1.5627 -0.9220
 3976TIP3   OH233418   5.258   3.189  15.072  0.5270 -0.3949 -0.0796
 3976TIP3    H133419   5.295   3.262  15.021  0.4222 -1.1440 -1.2430
 3976TIP3    H233420   5.251   3.224  15.161  1.9223  0.5107 -0.3030
 3977TIP3   OH233421   6.756   2.108   5.093 -0.5562 -0.4834  0.5765
 3977TIP3    H133422   6.808   2.027   5.096  0.0559 -0.1752 -1.2861
 3977TIP3    H233423   6.815   2.176   5.123 -0.8257 -0.5951  1.3722
 3978TIP3   OH233424   5.076   2.171  14.137  0.0899 -0.3250  0.4086
 3978TIP3    H133425   5.155   2.220  14.117  0.3062 -1.0082 -0.4429
 3978TIP3    H233426   5.099   2.117  14.213 -0.4824  1.6761  2.0393
 3979TIP3   OH233427   4.897   2.002   6.339 -0.0130  0.0978 -0.5400
 3979TIP3    H133428   4.889   2.009   6.434 -0.9103 -1.2765 -0.5152
 3979TIP3    H233429   4.983   2.041   6.320  0.0782  0.5781  0.7971
 3980TIP3   OH233430   0.765   5.335   1.001 -0.4818 -0.1299 -0.3823
 3980TIP3    H133431   0.707   5.297   0.935 -1.1601  2.0150 -1.0351
 3980TIP3    H233432   0.771   5.427   0.979  0.8566  0.2526  1.4153
 3981TIP3   OH233433   3.047   0.435   2.085 -0.7803 -0.6020  0.1655
 3981TIP3    H133434   2.956   0.446   2.059 -0.5112 -0.0338 -0.5342
 3981TIP3    H233435   3.048   0.458   2.178 -1.0152  1.2219 -0.2675
 3982TIP3   OH233436   6.695   4.920  16.561  0.3963 -0.1701  0.3306
 3982TIP3    H133437   6.623   4.875  16.518  0.6298 -1.1787  0.9855
 3982TIP3    H233438   6.658   5.002  16.591  0.1642  0.4596 -1.5806
 3983TIP3   OH233439   3.800   1.862  13.859  0.2234  0.5094  0.5007
 3983TIP3    H133440   3.825   1.791  13.918 -1.0093 -1.8471 -1.7172
 3983TIP3    H233441   3.848   1.844  13.778 -0.4482  1.9523 -0.2352
 3984TIP3   OH233442   1.735   6.325   3.627  0.4033  0.6908 -0.5566
 3984TIP3    H133443   1.825   6.343   3.654  0.1384  0.8636  0.2188
 3984TIP3    H233444   1.691   6.410   3.633 -0.2909  0.2383  0.9349
 3985TIP3   OH233445   0.324   4.542   4.232  0.1747 -0.0519  0.3254
 3985TIP3    H133446   0.275   4.598   4.172  0.3867  0.2565  0.4344
 3985TIP3    H233447   0.416   4.555   4.208  0.1969 -0.7235  0.0392
 3986TIP3   OH233448   6.717   5.093   0.537  0.6031  0.4001 -0.4499
 3986TIP3    H133449   6.719   5.155   0.611  0.5016  1.4486 -1.3048
 3986TIP3    H233450   6.667   5.139   0.470  1.9597  0.0490 -1.7066
 3987TIP3   OH233451   6.394   5.562  15.676  0.3385 -0.0004  0.0424
 3987TIP3    H133452   6.332   5.585  15.607 -0.2210 -1.7235 -0.0465
 3987TIP3    H233453   6.378   5.470  15.694  1.4726  0.0509  1.4725
 3988TIP3   OH233454   4.959   2.757  15.146  0.0230  0.1402  0.0412
 3988TIP3    H133455   4.954   2.777  15.052  4.1978 -3.7868 -1.2092
 3988TIP3    H233456   5.047   2.786  15.172 -0.2649 -0.8441  2.1880
 3989TIP3   OH233457   4.945   3.756  16.673 -0.0902  0.0819  0.6592
 3989TIP3    H133458   4.870   3.708  16.638 -0.1909  1.3014 -0.8168
 3989TIP3    H233459   4.948   3.731  16.766 -0.6424 -2.1085  0.1216
 3990TIP3   OH233460   1.065   3.973   4.235 -0.4020 -0.6076  0.0087
 3990TIP3    H133461   1.046   4.051   4.288 -0.4672 -1.4372  1.2172
 3990TIP3    H233462   1.124   4.006   4.167  0.1904  0.3677  0.9549
 3991TIP3   OH233463   6.740   4.007  14.000 -0.2846  0.3632 -0.0594
 3991TIP3    H133464   6.834   4.003  13.981 -0.2511 -0.2737  0.2072
 3991TIP3    H233465   6.704   4.066  13.933  0.1691 -0.1118 -0.7329
 3992TIP3   OH233466   1.813   0.176  10.400  0.3275 -0.4623  0.1361
 3992TIP3    H133467   1.841   0.086  10.384  0.5470 -0.6374  1.4462
 3992TIP3    H233468   1.893   0.222  10.424  0.0837 -0.1151  0.2913
 3993TIP3   OH233469   0.119   2.456  11.642  0.5407 -0.2763  0.1265
 3993TIP3    H133470   0.202   2.503  11.644 -0.7922  2.1351  0.4142
 3993TIP3    H233471   0.057   2.519  11.606 -1.4578 -1.5804  1.2315
 3994TIP3   OH233472   4.708   2.642   1.298 -0.5441 -0.1958  0.1325
 3994TIP3    H133473   4.643   2.607   1.358 -0.5554 -1.4461 -0.6069
 3994TIP3    H233474   4.747   2.715   1.346  0.2016 -1.8432  2.1193
 3995TIP3   OH233475   0.932   0.498   3.097  0.6395 -0.3123  0.7769
 3995TIP3    H133476   0.852   0.451   3.073  1.5658 -1.8353  0.6064
 3995TIP3    H233477   0.911   0.590   3.082 -0.4414 -0.8492 -1.1825
 3996TIP3   OH233478   1.936   4.284  16.851  0.0689  0.4425 -0.2574
 3996TIP3    H133479   1.872   4.329  16.907  0.0531  0.6327 -0.4278
 3996TIP3    H233480   1.906   4.193  16.849 -1.0627  0.8254 -1.5365
 3997TIP3   OH233481   2.134   2.756  17.073  0.2229  0.1504 -0.9628
 3997TIP3    H133482   2.211   2.717  17.031  1.3965  0.3222  0.9822
 3997TIP3    H233483   2.168   2.832  17.121 -1.2582  0.6124 -0.6092
 3998TIP3   OH233484   1.694   1.900  15.912 -0.0196  0.3372  0.1751
 3998TIP3    H133485   1.648   1.942  15.984  0.5900 -1.2942  1.5533
 3998TIP3    H233486   1.642   1.920  15.834 -2.1006 -0.0437  1.4470
 3999TIP3   OH233487   3.566   0.110   0.559 -0.1970 -0.5034 -0.3939
 3999TIP3    H133488   3.503   0.086   0.492 -0.5882 -0.0506 -0.1889
 3999TIP3    H233489   3.650   0.116   0.512 -0.7911  1.7684 -1.2442
 4000TIP3   OH233490   5.710   1.000  12.956 -0.1202  0.7537  1.0477
 4000TIP3    H133491   5.621   0.965  12.953 -0.1222  0.8688 -1.3909
 4000TIP3    H233492   5.704   1.085  12.912  1.3956  0.2869 -0.0934
 4001TIP3   OH233493   0.829   1.962   5.809  0.1482  0.1906  0.3144
 4001TIP3    H133494   0.789   1.985   5.893 -0.0968 -0.6613  0.4303
 4001TIP3    H233495   0.766   1.903   5.768  1.0543 -0.7789  0.2832
 4002TIP3   OH233496   1.298   3.592  12.953  0.1078  0.0796 -0.3125
 4002TIP3    H133497   1.287   3.675  12.907  1.0474 -0.1903 -1.0581
 4002TIP3    H233498   1.219   3.542  12.931 -0.6439  0.9224  0.4689
 4003TIP3   OH233499   1.781   1.750   2.257 -0.6518  0.3808 -0.2831
 4003TIP3    H133500   1.759   1.663   2.290 -0.0854  0.3130 -0.0600
 4003TIP3    H233501   1.699   1.799   2.260 -1.0513 -0.2537 -0.7622
 4004TIP3   OH233502   3.446   5.333  13.833 -0.2154 -0.1479  0.4139
 4004TIP3    H133503   3.501   5.412  13.837  1.0179 -1.0068  0.6379
 4004TIP3    H233504   3.394   5.345  13.754 -0.1968  1.0044  0.5690
 4005TIP3   OH233505   1.178   6.709   0.924 -0.0808 -0.5741 -0.0208
 4005TIP3    H133506   1.263   6.730   0.963  0.1777  0.2759 -1.0290
 4005TIP3    H233507   1.192   6.721   0.830 -1.2763 -0.6025 -0.2004
 4006TIP3   OH233508   1.337   3.834  12.801  0.0425 -0.0056  0.2471
 4006TIP3    H133509   1.263   3.883  12.837 -0.2597  1.3774 -2.0949
 4006TIP3    H233510   1.297   3.775  12.737  0.9972  1.6498 -1.9760
 4007TIP3   OH233511   2.382   2.815  12.588  0.4229 -0.0406  0.4935
 4007TIP3    H133512   2.312   2.879  12.601  1.0023  0.7859 -0.4120
 4007TIP3    H233513   2.452   2.845  12.645  0.4060 -0.3168  0.6595
 4008TIP3   OH233514   5.847   2.132   4.059 -0.2141  0.3585 -0.5735
 4008TIP3    H133515   5.819   2.055   4.009  2.0250 -0.0633 -1.2248
 4008TIP3    H233516   5.942   2.126   4.060 -0.1304  1.6123  1.7908
 4009TIP3   OH233517   1.654   5.424  17.249  0.0431  0.3036 -0.0184
 4009TIP3    H133518   1.658   5.487  17.322 -0.0664 -1.3851  1.4859
 4009TIP3    H233519   1.698   5.346  17.283 -2.2495 -1.4032 -0.8646
 4010TIP3   OH233520   4.556   2.761  14.473 -1.0587 -0.5604  0.8020
 4010TIP3    H133521   4.490   2.825  14.498 -1.3394 -0.0561 -1.1599
 4010TIP3    H233522   4.640   2.800  14.498 -1.1055  1.2727 -1.6900
 4011TIP3   OH233523   1.653   0.053  11.038  0.1551 -0.2231 -0.7239
 4011TIP3    H133524   1.586  -0.010  11.012  1.6010 -0.8573 -3.1722
 4011TIP3    H233525   1.626   0.083  11.124 -1.2847 -3.2148 -0.0462
 4012TIP3   OH233526   4.848   6.692   1.295  0.0638 -0.4937  0.0069
 4012TIP3    H133527   4.896   6.645   1.226  0.4758  0.1403 -0.1446
 4012TIP3    H233528   4.821   6.624   1.356  1.1118 -0.8749  0.0622
 4013TIP3   OH233529   5.382   2.538   4.431 -0.5064 -0.4667 -0.1386
 4013TIP3    H133530   5.344   2.621   4.460 -1.5174  0.0793 -2.9063
 4013TIP3    H233531   5.319   2.503   4.368  0.0212 -3.2530  0.8200
 4014TIP3   OH233532   3.426   3.372  12.102 -0.5214 -0.3328  0.8637
 4014TIP3    H133533   3.340   3.398  12.135 -1.7460 -0.0670 -2.3017
 4014TIP3    H233534   3.408   3.341  12.013  2.4733 -1.6388  0.6677
 4015TIP3   OH233535   4.617   1.233  14.534 -0.1462 -0.7452 -0.5121
 4015TIP3    H133536   4.571   1.165  14.583 -0.5373 -0.9383 -1.1401
 4015TIP3    H233537   4.605   1.208  14.442  1.6804 -1.0985 -0.6621
 4016TIP3   OH233538   0.195   0.130  14.167  0.1675 -0.5858 -0.0319
 4016TIP3    H133539   0.185   0.216  14.209  2.0512 -1.0901  1.5150
 4016TIP3    H233540   0.116   0.120  14.115 -0.4227  1.7819  0.3406
 4017TIP3   OH233541   2.847   3.583  13.026  0.2628 -0.1613  0.5736
 4017TIP3    H133542   2.765   3.536  13.038 -0.0087  0.7810  2.7035
 4017TIP3    H233543   2.904   3.551  13.096  1.6407 -0.6183 -0.7250
 4018TIP3   OH233544   1.718   2.576   5.121 -0.0314  0.5965 -0.1013
 4018TIP3    H133545   1.775   2.499   5.131  0.1454  0.6463 -0.6857
 4018TIP3    H233546   1.761   2.645   5.170 -0.2457  0.2945  0.5199
 4019TIP3   OH233547   6.484   4.132   1.222  0.2644  0.0458 -0.0340
 4019TIP3    H133548   6.397   4.113   1.256  0.7347 -0.8108  0.7305
 4019TIP3    H233549   6.517   4.203   1.278  0.2719 -0.0224  0.0482
 4020TIP3   OH233550   3.759   6.305   4.938  0.3760  0.0755  0.1799
 4020TIP3    H133551   3.822   6.341   5.000 -0.0960  0.1312  0.6355
 4020TIP3    H233552   3.811   6.249   4.881  0.8269  0.0649  0.5940
 4021TIP3   OH233553   1.945   2.708   2.833  0.9052 -0.4590 -0.0640
 4021TIP3    H133554   2.024   2.686   2.883  1.2158  0.4865 -0.1325
 4021TIP3    H233555   1.877   2.651   2.869  1.2714 -0.2178  1.0128
 4022TIP3   OH233556   0.473   6.146   5.442  0.0020 -0.4466  0.5569
 4022TIP3    H133557   0.560   6.106   5.444  0.0385 -0.3834  0.2912
 4022TIP3    H233558   0.437   6.119   5.357  0.0281  0.0797  0.3755
 4023TIP3   OH233559   3.822   2.811  13.867  0.8040 -0.0450 -0.4452
 4023TIP3    H133560   3.844   2.898  13.900  0.2014  0.1065 -0.4403
 4023TIP3    H233561   3.785   2.765  13.943  2.2238 -0.7074 -0.1379
 4024TIP3   OH233562   3.688   3.056   0.712  0.2900 -0.0383  0.2260
 4024TIP3    H133563   3.693   2.990   0.643 -0.3926  1.8118 -1.6766
 4024TIP3    H233564   3.642   3.012   0.784  1.2178 -2.0787 -0.3892
 4025TIP3   OH233565   2.679   2.876  17.214 -0.2602  0.0513 -0.1595
 4025TIP3    H133566   2.621   2.800  17.213 -0.1695 -0.0174 -0.1615
 4025TIP3    H233567   2.735   2.865  17.138  1.1772 -0.9774  1.0347
 4026TIP3   OH233568   1.608   6.335   3.173  0.1803  0.1334 -0.5351
 4026TIP3    H133569   1.651   6.284   3.242  0.9049  0.5137 -0.6913
 4026TIP3    H233570   1.557   6.271   3.123  1.0689 -0.4493 -0.7225
 4027TIP3   OH233571   3.675   0.072  14.628  0.1661 -0.0385 -0.3970
 4027TIP3    H133572   3.651  -0.013  14.666  1.2969 -0.3667 -0.3772
 4027TIP3    H233573   3.700   0.052  14.538 -1.3768  0.5659 -0.9712
 4028TIP3   OH233574   5.696   0.772   2.525 -0.0584 -0.7618 -0.0757
 4028TIP3    H133575   5.642   0.738   2.453  1.0034 -3.8056  0.4817
 4028TIP3    H233576   5.786   0.756   2.497  0.4649  0.8466  0.6233
 4029TIP3   OH233577   6.483   0.248   3.063  0.3589  0.0357 -0.7579
 4029TIP3    H133578   6.544   0.232   3.135 -0.0441  1.5196 -0.0539
 4029TIP3    H233579   6.538   0.266   2.987  0.7940 -0.7048 -0.6174
 4030TIP3   OH233580   5.905   2.651   1.230  0.2171  0.5321 -0.3197
 4030TIP3    H133581   5.876   2.562   1.249 -1.5605  1.1177 -0.1051
 4030TIP3    H233582   5.985   2.640   1.179 -1.0091 -1.2225 -1.9445
 4031TIP3   OH233583   1.311   1.490  16.104 -0.3067 -0.7020 -0.1893
 4031TIP3    H133584   1.406   1.502  16.099 -0.3164 -0.0823  1.1046
 4031TIP3    H233585   1.276   1.570  16.065 -0.3143  0.0638  1.3898
 4032TIP3   OH233586   6.664   1.282   3.609 -0.5648 -0.1117 -0.2460
 4032TIP3    H133587   6.585   1.239   3.576 -1.3868  1.2318 -0.0526
 4032TIP3    H233588   6.643   1.375   3.606 -0.0128  0.1236  2.4590
 4033TIP3   OH233589   4.624   2.998   2.709  0.0341 -0.2302  0.3129
 4033TIP3    H133590   4.535   2.965   2.695 -0.4123  0.3023  1.8171
 4033TIP3    H233591   4.657   2.946   2.783  0.3816  0.6864  0.8079
 4034TIP3   OH233592   6.726   3.737   0.638  0.0751 -0.5568 -0.1800
 4034TIP3    H133593   6.669   3.725   0.714 -1.5016 -1.3691 -1.4820
 4034TIP3    H233594   6.800   3.679   0.655  0.0283 -0.2865  1.0125
 4035TIP3   OH233595   4.335   1.894   4.333  0.2162 -0.1645  0.2812
 4035TIP3    H133596   4.358   1.918   4.244 -0.1080 -0.8505  0.0142
 4035TIP3    H233597   4.249   1.854   4.326  1.1697 -2.3123  0.5984
 4036TIP3   OH233598   0.442   4.731   0.101 -0.4291  0.0574  0.0700
 4036TIP3    H133599   0.421   4.811   0.148 -0.4017 -0.2893  0.6870
 4036TIP3    H233600   0.500   4.683   0.160 -0.2800 -0.3166 -0.3801
 4037TIP3   OH233601   6.025   4.466   1.024  0.3626  0.6059  0.8440
 4037TIP3    H133602   6.068   4.401   1.079 -1.3105 -1.1524  0.1441
 4037TIP3    H233603   5.958   4.505   1.080  1.5768  1.9926  1.3617
 4038TIP3   OH233604   0.062   1.894  11.901 -0.5007  0.6531  0.0028
 4038TIP3    H133605   0.110   1.890  11.984 -2.3184 -0.3301  1.0457
 4038TIP3    H233606  -0.029   1.911  11.927 -1.1451  0.0105 -1.7666
 4039TIP3   OH233607   1.382   6.526  14.755  0.3996  0.2262 -0.1699
 4039TIP3    H133608   1.380   6.610  14.709  0.7328  0.1297 -0.3641
 4039TIP3    H233609   1.474   6.513  14.777  0.1081  0.7598  1.4312
 4040TIP3   OH233610   1.654   3.346  13.438 -0.8900  0.7762  0.2289
 4040TIP3    H133611   1.633   3.271  13.494 -0.8538  0.5457 -0.0631
 4040TIP3    H233612   1.647   3.311  13.349  1.5006  0.4978  0.1271
 4041TIP3   OH233613   3.272   1.252   3.498 -0.0832 -0.1299 -0.0579
 4041TIP3    H133614   3.276   1.289   3.586 -0.0955 -0.9364  0.2910
 4041TIP3    H233615   3.343   1.187   3.497  0.4353  0.4428 -0.9071
 4042TIP3   OH233616   4.866   4.779   1.575 -0.0247 -0.0115  0.5494
 4042TIP3    H133617   4.931   4.787   1.505 -0.8029 -0.4717 -0.2296
 4042TIP3    H233618   4.895   4.703   1.626 -0.9423 -1.3209 -0.8559
 4043TIP3   OH233619   4.182   5.879  16.159  0.3883  0.2225  0.0082
 4043TIP3    H133620   4.116   5.861  16.226 -0.4266  0.0997 -0.8380
 4043TIP3    H233621   4.209   5.970  16.176  0.8084 -0.0863  1.0419
 4044TIP3   OH233622   3.682   5.647  15.502 -0.1365  0.4550  0.4564
 4044TIP3    H133623   3.700   5.626  15.411  0.5548  2.1578  0.1974
 4044TIP3    H233624   3.600   5.600  15.521 -0.5010  0.4210 -1.1432
 4045TIP3   OH233625   3.985   1.193   2.612  0.3199 -0.6173  0.1078
 4045TIP3    H133626   3.955   1.198   2.521  1.5031  0.8646 -0.2369
 4045TIP3    H233627   3.905   1.181   2.664 -0.6652  1.2910 -0.9238
 4046TIP3   OH233628   3.611   0.143  16.261  0.0982 -0.2682 -0.0312
 4046TIP3    H133629   3.552   0.078  16.222 -0.1279  0.3093 -0.6676
 4046TIP3    H233630   3.603   0.219  16.204  0.1677  0.4086  0.8542
 4047TIP3   OH233631   2.100   0.839   2.137  0.0659  0.1067 -0.2530
 4047TIP3    H133632   2.081   0.907   2.073 -0.5621  1.4923  1.3950
 4047TIP3    H233633   2.122   0.762   2.083 -0.6167  1.1793 -2.1234
 4048TIP3   OH233634   4.540   0.514   0.186 -0.5279 -0.1467 -0.7600
 4048TIP3    H133635   4.474   0.566   0.231 -1.9948 -0.4690 -2.4721
 4048TIP3    H233636   4.602   0.489   0.255 -0.1765  3.1977  0.2377
 4049TIP3   OH233637   3.127   2.915   2.079 -0.2264 -0.4310 -0.0207
 4049TIP3    H133638   3.121   2.907   1.984  0.5899 -0.2862 -0.0891
 4049TIP3    H233639   3.055   2.861   2.112 -0.4222 -0.6027 -0.7146
 4050TIP3   OH233640   3.809   3.427  12.116 -0.1198 -0.2191  0.3069
 4050TIP3    H133641   3.882   3.485  12.094  0.0959  0.0361  1.6548
 4050TIP3    H233642   3.767   3.408  12.032  1.7827 -0.7726 -0.5316
 4051TIP3   OH233643   1.697   4.086   0.476  0.5071  0.3300 -0.2730
 4051TIP3    H133644   1.765   4.145   0.508 -0.4147  1.2718  0.0097
 4051TIP3    H233645   1.744   4.015   0.433  1.6342  1.8737 -1.6410
 4052TIP3   OH233646   4.924   0.276  14.663  0.1934  0.1525 -1.3958
 4052TIP3    H133647   4.935   0.192  14.708  1.2767 -0.4851 -2.8150
 4052TIP3    H233648   4.837   0.306  14.690  0.2057 -0.9351 -0.0790
 4053TIP3   OH233649   6.630   1.849  15.601 -0.5923  0.3176  0.5352
 4053TIP3    H133650   6.582   1.931  15.588 -2.3731 -0.7936 -0.0598
 4053TIP3    H233651   6.637   1.841  15.696 -3.3083 -0.4343  0.7288
 4054TIP3   OH233652   4.186   1.753  15.481 -0.4848 -0.0875 -0.7204
 4054TIP3    H133653   4.142   1.838  15.469 -0.8453 -0.4847 -2.3209
 4054TIP3    H233654   4.271   1.776  15.519 -0.8411  0.9396 -0.5151
 4055TIP3   OH233655   5.658   2.309   4.721 -0.1940 -0.6848 -0.0575
 4055TIP3    H133656   5.662   2.354   4.637 -1.4639 -0.6348 -0.1081
 4055TIP3    H233657   5.601   2.233   4.705 -0.6872 -0.5177  0.8187
 4056TIP3   OH233658   1.997   6.701  13.522 -0.2241  0.0494 -0.4627
 4056TIP3    H133659   2.084   6.663  13.511  0.0307  0.9458 -1.6500
 4056TIP3    H233660   1.938   6.639  13.479 -0.3622 -1.2721  1.5681
 4057TIP3   OH233661   2.616   0.327   6.413  0.2512 -0.6219 -0.3208
 4057TIP3    H133662   2.677   0.279   6.469  0.9458 -0.4171 -0.8870
 4057TIP3    H233663   2.582   0.260   6.353  0.5590 -0.5770 -0.5472
 4058TIP3   OH233664   6.748   6.603   3.369 -0.3592 -0.1562 -0.8662
 4058TIP3    H133665   6.790   6.605   3.283  0.6563 -1.3525 -0.4019
 4058TIP3    H233666   6.767   6.516   3.403 -3.7194 -0.9735 -0.8736
 4059TIP3   OH233667   5.718   5.806   1.114 -0.2317 -0.2372  0.2433
 4059TIP3    H133668   5.691   5.891   1.080  0.5559 -0.2951 -0.5437
 4059TIP3    H233669   5.802   5.789   1.071  0.7031 -0.3804  2.0872
 4060TIP3   OH233670   5.239   6.771  14.377 -0.3315  0.0014  0.3835
 4060TIP3    H133671   5.242   6.829  14.300  1.3430  0.5055  0.8118
 4060TIP3    H233672   5.160   6.799  14.424 -0.0476  1.3130  0.1051
 4061TIP3   OH233673   6.097   2.350  16.511 -0.7520 -0.2803  0.2289
 4061TIP3    H133674   6.164   2.312  16.454 -0.7359 -0.1106  0.1344
 4061TIP3    H233675   6.105   2.444  16.497 -2.3237 -0.3415 -1.2525
 4062TIP3   OH233676   2.478   1.250   1.757  0.3056  0.0195 -0.2587
 4062TIP3    H133677   2.517   1.245   1.670  0.5819 -1.3613 -0.0536
 4062TIP3    H233678   2.539   1.203   1.813 -0.4654 -0.0924  0.4796
 4063TIP3   OH233679   5.618   0.170  13.270 -0.3477 -0.1839 -0.1741
 4063TIP3    H133680   5.524   0.170  13.252 -0.0074  0.6631 -2.0506
 4063TIP3    H233681   5.658   0.190  13.186  1.5742 -1.8788  0.3071
 4064TIP3   OH233682   5.644   1.172  15.764 -0.5072 -0.0403 -0.5940
 4064TIP3    H133683   5.593   1.107  15.812 -0.8377  1.2223  0.8052
 4064TIP3    H233684   5.662   1.241  15.829 -0.8082  1.6073 -2.2181
 4065TIP3   OH233685   2.786   0.186   4.615  0.4316  0.3838 -0.0238
 4065TIP3    H133686   2.755   0.258   4.560  2.2126 -0.3782 -2.1311
 4065TIP3    H233687   2.831   0.229   4.688 -1.2848  1.4182  0.4323
 4066TIP3   OH233688   3.574   2.032  14.844  0.3462 -0.2211 -0.0646
 4066TIP3    H133689   3.599   1.941  14.828 -1.0969 -0.2354 -2.4134
 4066TIP3    H233690   3.628   2.082  14.783  0.9993  0.5092  1.0918
 4067TIP3   OH233691   0.109   1.237  16.402 -0.0940 -0.6982  0.3759
 4067TIP3    H133692   0.079   1.173  16.338  0.5935  0.0590 -0.7347
 4067TIP3    H233693   0.167   1.295  16.352 -0.9272  0.9626  1.2622
 4068TIP3   OH233694   0.012   3.166  12.339  0.3801 -0.0185  0.0036
 4068TIP3    H133695  -0.037   3.245  12.361 -0.6488 -0.5516 -0.3407
 4068TIP3    H233696   0.070   3.192  12.268 -1.1759  0.0316 -1.2910
 4069TIP3   OH233697   1.191   0.285  11.569  0.0351  0.1442  0.1356
 4069TIP3    H133698   1.211   0.208  11.515 -0.0782  0.9844 -1.1171
 4069TIP3    H233699   1.248   0.276  11.646 -0.3493 -1.4537  0.2532
 4070TIP3   OH233700   0.425   3.875   4.553  0.6931  0.2392 -0.0451
 4070TIP3    H133701   0.444   3.815   4.625  1.6904  1.1878  0.5196
 4070TIP3    H233702   0.417   3.820   4.476 -1.4472 -0.9015  0.9634
 4071TIP3   OH233703   2.101   3.377  11.831 -0.1656 -0.6088  0.3528
 4071TIP3    H133704   2.015   3.355  11.794 -0.2799 -2.0376  1.4717
 4071TIP3    H233705   2.082   3.412  11.918  0.2344  1.2237 -0.2681
 4072TIP3   OH233706   0.536   0.545   2.130 -0.2177 -0.2010  0.1089
 4072TIP3    H133707   0.630   0.548   2.148 -0.1281 -0.5203 -0.2873
 4072TIP3    H233708   0.528   0.575   2.039 -0.2854 -2.1433 -0.5588
 4073TIP3   OH233709   3.039   6.280   4.387  0.1125 -0.1640  0.2762
 4073TIP3    H133710   3.069   6.369   4.370  1.8830 -0.7995 -0.0468
 4073TIP3    H233711   3.048   6.235   4.303 -1.4653 -0.4648  0.2518
 4074TIP3   OH233712   2.422   6.282   2.896  0.4854 -0.4279 -0.4890
 4074TIP3    H133713   2.327   6.275   2.898  0.4900 -0.3406  3.1529
 4074TIP3    H233714   2.452   6.198   2.861 -0.8737 -1.6910  1.2708
 4075TIP3   OH233715   3.877   2.602  10.427  0.3255 -0.0345  0.0715
 4075TIP3    H133716   3.966   2.637  10.421  0.2914 -0.1541 -1.2006
 4075TIP3    H233717   3.835   2.629  10.346 -1.4134  1.7118  1.4875
 4076TIP3   OH233718   5.676   4.754   1.115  0.6557  0.1887 -0.3420
 4076TIP3    H133719   5.731   4.755   1.036  1.8076 -2.0996  0.3728
 4076TIP3    H233720   5.590   4.727   1.083 -0.0865  3.6185 -1.4446
 4077TIP3   OH233721   3.641   2.357  16.720 -0.1875  0.0877 -0.4236
 4077TIP3    H133722   3.692   2.422  16.671  0.6901  0.3936  0.8882
 4077TIP3    H233723   3.693   2.339  16.799 -1.2552 -0.9228  0.0681
 4078TIP3   OH233724   2.233   6.148  17.270  0.2818 -0.0156  0.1257
 4078TIP3    H133725   2.175   6.077  17.242 -0.9121  1.0959 -0.2913
 4078TIP3    H233726   2.173   6.219  17.296  1.4513  0.9603  0.2000
 4079TIP3   OH233727   6.503   1.777   3.734  0.3441  0.5443  0.2001
 4079TIP3    H133728   6.578   1.836   3.737  1.8072 -1.2810  0.4857
 4079TIP3    H233729   6.487   1.762   3.640  0.9410  0.1963  0.1525
 4080TIP3   OH233730   1.437   6.753   1.007 -0.0375  0.2708 -0.6898
 4080TIP3    H133731   1.502   6.716   1.066 -1.1432 -0.9386 -0.2026
 4080TIP3    H233732   1.487   6.780   0.930  0.9658 -1.1968 -0.5751
 4081TIP3   OH233733   3.001   3.820   5.579 -0.2665  0.5004 -0.1542
 4081TIP3    H133734   3.094   3.811   5.563 -0.6793 -0.1860 -2.3275
 4081TIP3    H233735   2.985   3.915   5.575  0.6305  0.7588  2.1014
 4082TIP3   OH233736   4.921   1.890   4.017  0.5099  0.2862 -0.0431
 4082TIP3    H133737   4.825   1.895   4.013  0.6124  1.1172 -2.0970
 4082TIP3    H233738   4.942   1.923   4.104 -1.0236  1.3848 -0.0460
 4083TIP3   OH233739   2.457   3.244   2.575 -0.0154  0.3951  0.1256
 4083TIP3    H133740   2.499   3.158   2.588 -0.9128 -0.3518 -1.7351
 4083TIP3    H233741   2.510   3.304   2.628  2.2212 -0.8552 -0.5989
 4084TIP3   OH233742   6.567   2.111  16.508  0.2066  0.1224  0.8489
 4084TIP3    H133743   6.646   2.085  16.459 -0.3677 -0.0701  0.0167
 4084TIP3    H233744   6.580   2.073  16.595  1.1325  0.2694  0.7811
 4085TIP3   OH233745   3.172   6.186  12.553 -0.7633 -0.2515 -0.3360
 4085TIP3    H133746   3.166   6.273  12.515 -1.0241  1.1121  2.7083
 4085TIP3    H233747   3.266   6.167  12.554 -0.4449  1.3199  1.8207
 4086TIP3   OH233748   0.736   6.136  12.107 -0.5512  0.1952  0.1809
 4086TIP3    H133749   0.824   6.100  12.114 -1.4081 -1.7727  1.0834
 4086TIP3    H233750   0.735   6.182  12.022  0.7254 -1.4619 -0.7434
 4087TIP3   OH233751   1.348   2.946   0.792 -0.4667  0.3238  0.1238
 4087TIP3    H133752   1.369   2.926   0.883 -3.1868  0.9869  0.9336
 4087TIP3    H233753   1.395   2.880   0.742 -1.6735 -2.1786  2.1973
 4088TIP3   OH233754   3.588   0.422  16.197 -0.3916  0.1789  0.5899
 4088TIP3    H133755   3.565   0.386  16.282  1.3534  0.6660  1.3076
 4088TIP3    H233756   3.651   0.492  16.217  1.7602 -1.1569 -1.2103
 4089TIP3   OH233757   0.724   5.109  13.559  0.3025  0.5686 -0.1887
 4089TIP3    H133758   0.665   5.069  13.495 -1.5843 -1.2671  2.5772
 4089TIP3    H233759   0.796   5.045  13.567 -0.1857  0.1044  0.5507
 4090TIP3   OH233760   1.849   6.405   3.865 -0.1015  0.0587 -0.3272
 4090TIP3    H133761   1.877   6.417   3.955 -3.8037  0.1567  0.8943
 4090TIP3    H233762   1.803   6.321   3.865  2.4155 -1.4159 -2.8382
 4091TIP3   OH233763   3.280   2.208  10.808 -0.1000 -0.9491 -0.3912
 4091TIP3    H133764   3.315   2.131  10.853 -0.0919 -1.0239 -0.5262
 4091TIP3    H233765   3.353   2.240  10.755 -0.3583 -1.3517 -0.9991
 4092TIP3   OH233766   0.686   5.386   1.830 -0.2085  0.1183 -0.8580
 4092TIP3    H133767   0.650   5.458   1.881  0.2707  0.0431 -0.4036
 4092TIP3    H233768   0.613   5.325   1.819  0.0241 -0.5199  0.9386
 4093TIP3   OH233769   1.423   4.597   2.619  0.3103 -0.1932  0.2911
 4093TIP3    H133770   1.495   4.535   2.617  0.7298  0.3158 -0.9739
 4093TIP3    H233771   1.403   4.608   2.712  1.6724 -0.5576  0.6397
 4094TIP3   OH233772   1.509   3.530  13.196  0.8361 -0.0711 -0.1904
 4094TIP3    H133773   1.468   3.609  13.232 -0.8808  0.2383 -2.6866
 4094TIP3    H233774   1.576   3.507  13.260 -1.1859  1.2089  2.4850
 4095TIP3   OH233775   2.965   6.664   5.040 -0.3784  0.1135 -0.2799
 4095TIP3    H133776   2.996   6.620   4.960 -1.9736 -1.5516 -0.0112
 4095TIP3    H233777   2.879   6.626   5.056 -0.5562  1.2758  1.6044
 4096TIP3   OH233778   1.609   2.606   6.052  0.3818  0.2348 -0.2484
 4096TIP3    H133779   1.528   2.563   6.079  0.9524 -0.7889 -0.1659
 4096TIP3    H233780   1.672   2.535   6.041  0.8380  0.8652 -1.8516
 4097TIP3   OH233781   5.689   4.897  10.623 -0.1070  0.3329 -0.6396
 4097TIP3    H133782   5.710   4.972  10.568  2.0120 -2.3806 -3.7201
 4097TIP3    H233783   5.774   4.869  10.658 -1.0271  0.0190  1.4355
 4098TIP3   OH233784   0.441   6.033  11.804 -0.4007 -0.3387 -0.1450
 4098TIP3    H133785   0.448   5.971  11.876 -0.7117  0.6922  0.7910
 4098TIP3    H233786   0.466   6.117  11.842 -0.4591  0.1990 -1.2691
 4099TIP3   OH233787   0.430   1.570   0.918 -0.3794 -0.1578 -0.1783
 4099TIP3    H133788   0.350   1.619   0.898  0.7506  2.4448  1.4545
 4099TIP3    H233789   0.399   1.490   0.959 -2.2052 -0.0793 -1.3319
 4100TIP3   OH233790   2.310   3.226   3.477 -0.0751 -0.0870  0.7175
 4100TIP3    H133791   2.388   3.179   3.447 -1.4644 -2.2188  0.3223
 4100TIP3    H233792   2.256   3.158   3.519 -1.5601  1.4133  1.2807
 4101TIP3   OH233793   0.955   4.138  15.042  0.1251  0.4520 -1.0359
 4101TIP3    H133794   0.919   4.087  14.969 -1.3185  0.2291 -0.1947
 4101TIP3    H233795   0.879   4.182  15.079  0.8317  0.4869  0.3910
 4102TIP3   OH233796   4.196   0.618   5.195 -0.0065 -0.0509 -0.3819
 4102TIP3    H133797   4.157   0.554   5.135 -0.6280  0.3812 -0.4439
 4102TIP3    H233798   4.282   0.637   5.156 -0.5492  0.4905 -1.3312
 4103TIP3   OH233799   6.301   0.779   6.483  0.6765  0.1782 -0.3382
 4103TIP3    H133800   6.288   0.803   6.575 -0.6548  1.7117 -0.8976
 4103TIP3    H233801   6.236   0.712   6.466 -0.1843  1.0701 -0.5929
 4104TIP3   OH233802   2.738   6.091   0.308 -0.3668  0.0717  0.3679
 4104TIP3    H133803   2.766   6.038   0.383  0.5982  1.8045  1.2511
 4104TIP3    H233804   2.762   6.180   0.331  1.7691  0.4311 -2.8351
 4105TIP3   OH233805   0.636   0.268  15.916 -0.0447  0.4335  0.4430
 4105TIP3    H133806   0.654   0.187  15.964 -1.6625 -0.0422  0.2605
 4105TIP3    H233807   0.653   0.245  15.824  0.8694  0.7121  0.5360
 4106TIP3   OH233808   5.488   5.574   3.567 -0.0753  0.5298  0.0904
 4106TIP3    H133809   5.563   5.518   3.550 -0.1752  0.7947 -1.2827
 4106TIP3    H233810   5.485   5.582   3.662 -0.0468 -1.7689  0.3226
 4107TIP3   OH233811   3.145   4.538   1.517 -0.5406 -0.1557  0.3187
 4107TIP3    H133812   3.196   4.483   1.577 -0.6420 -0.0322  0.5189
 4107TIP3    H233813   3.208   4.603   1.485 -0.1251 -1.1124 -0.8450
 4108TIP3   OH233814   5.061   1.454  15.845  0.1957  0.1404 -0.3043
 4108TIP3    H133815   5.133   1.400  15.813  0.2370  0.6751 -1.1204
 4108TIP3    H233816   5.104   1.530  15.884  0.0548  1.1915 -2.1209
 4109TIP3   OH233817   0.791   6.307   1.006 -0.0716 -1.2628 -0.7003
 4109TIP3    H133818   0.826   6.396   1.001 -0.8385 -0.7749  2.1619
 4109TIP3    H233819   0.850   6.256   0.950  0.8173  0.8754 -1.8077
 4110TIP3   OH233820   5.858   5.278  14.545  0.1116  0.3086 -0.2366
 4110TIP3    H133821   5.930   5.285  14.482  2.9764 -0.6430  2.8042
 4110TIP3    H233822   5.899   5.245  14.625 -3.5840  0.5551  1.8655
 4111TIP3   OH233823   1.094   2.700  16.200 -0.2037 -0.2271 -0.4907
 4111TIP3    H133824   1.008   2.660  16.182  0.4634 -1.3896 -1.1781
 4111TIP3    H233825   1.155   2.626  16.197  0.8778  0.6580 -0.3951
 4112TIP3   OH233826   5.741   1.096  12.573  0.5887 -0.0079 -0.2169
 4112TIP3    H133827   5.789   1.017  12.548  0.6463  0.7140 -2.5157
 4112TIP3    H233828   5.658   1.089  12.525  0.6158  1.3366 -0.4910
 4113TIP3   OH233829   4.563   4.094   2.788 -1.0308 -0.8017 -0.3183
 4113TIP3    H133830   4.618   4.015   2.796  0.5388  0.4057  1.3715
 4113TIP3    H233831   4.611   4.150   2.727  0.7500  1.0831  2.6577
 4114TIP3   OH233832   6.244   3.160   0.766  0.1553 -0.3530 -0.0731
 4114TIP3    H133833   6.213   3.243   0.730  3.0140  0.1265 -1.6244
 4114TIP3    H233834   6.212   3.094   0.706  0.6198 -0.0388 -0.6725
 4115TIP3   OH233835   4.573   3.407   3.445  0.1822  0.1884  0.1038
 4115TIP3    H133836   4.662   3.387   3.416  0.3251 -1.0385  1.3667
 4115TIP3    H233837   4.584   3.446   3.531 -0.4877  0.2867  0.1476
 4116TIP3   OH233838   1.601   4.121   3.631 -0.1813  0.1960 -0.7329
 4116TIP3    H133839   1.608   4.114   3.726 -0.2168 -0.5586 -0.7776
 4116TIP3    H233840   1.623   4.212   3.612 -0.6852  0.4823  0.0381
 4117TIP3   OH233841   2.684   0.936  11.174  0.3595 -0.0166  0.0235
 4117TIP3    H133842   2.752   0.870  11.192 -1.0741 -1.9674 -1.5729
 4117TIP3    H233843   2.690   0.951  11.080 -1.0014  0.2733 -0.0178
 4118TIP3   OH233844   6.266   6.561   4.791  0.1269  0.1361  0.0226
 4118TIP3    H133845   6.344   6.554   4.846 -1.1420  2.0135  2.1496
 4118TIP3    H233846   6.295   6.608   4.713  1.0590  1.1265  0.9511
 4119TIP3   OH233847   1.664   6.531  14.802 -0.0875 -0.1652 -0.0919
 4119TIP3    H133848   1.675   6.609  14.857 -1.0413 -1.0758  1.4209
 4119TIP3    H233849   1.744   6.527  14.750  0.4158  1.2569  0.5424
 4120TIP3   OH233850   2.059   0.566   5.241 -0.0248 -0.3453 -0.3655
 4120TIP3    H133851   2.053   0.471   5.229  0.5382 -0.4690  0.2887
 4120TIP3    H233852   2.132   0.577   5.302  0.4924  0.5683 -1.1596
 4121TIP3   OH233853   4.604   1.589  13.085 -0.3952 -0.6177 -0.1559
 4121TIP3    H133854   4.611   1.520  13.150 -0.3325 -0.0899  0.3997
 4121TIP3    H233855   4.569   1.545  13.007  1.3985 -1.6470 -0.3952
 4122TIP3   OH233856   2.176   5.594  11.260  0.6063 -0.6504  0.0522
 4122TIP3    H133857   2.223   5.556  11.186  1.7937 -0.0244  0.4704
 4122TIP3    H233858   2.217   5.680  11.273 -1.1075  0.1837 -0.0001
 4123TIP3   OH233859   2.907   4.757   0.633 -0.0629  0.0201  0.0130
 4123TIP3    H133860   2.988   4.712   0.658  0.5316  1.2764  0.3843
 4123TIP3    H233861   2.863   4.773   0.716  0.2321  1.0621 -0.0283
 4124TIP3   OH233862   4.635   6.243   0.857  0.7628 -0.5851  0.5247
 4124TIP3    H133863   4.655   6.159   0.816 -1.1890  0.0477 -1.8204
 4124TIP3    H233864   4.547   6.231   0.893  0.1628  0.6477 -0.4834
 4125TIP3   OH233865   4.556   3.433  12.854 -1.0424 -0.2155  0.6426
 4125TIP3    H133866   4.539   3.351  12.901  0.3314 -0.9645 -0.1232
 4125TIP3    H233867   4.472   3.478  12.852 -2.0113 -2.0117  0.3309
 4126TIP3   OH233868   2.576   6.177  14.266  0.0181  0.3048 -0.4168
 4126TIP3    H133869   2.518   6.146  14.197 -1.2331  0.6435  0.4651
 4126TIP3    H233870   2.576   6.107  14.331 -1.3625  1.3237  0.7236
 4127TIP3   OH233871   1.966   2.691  15.438  0.0549  0.6321  0.5012
 4127TIP3    H133872   2.041   2.658  15.389 -0.7328 -1.3705  0.5528
 4127TIP3    H233873   2.004   2.745  15.507  1.4037  0.2293  0.0983
 4128TIP3   OH233874   6.721   0.628   0.788  0.8040  0.1323  0.8089
 4128TIP3    H133875   6.692   0.686   0.859  1.7955 -0.3898  1.6720
 4128TIP3    H233876   6.813   0.653   0.774  0.9328 -0.5144  0.4780
 4129TIP3   OH233877   2.665   5.061  12.721 -0.5139 -0.2470  0.5099
 4129TIP3    H133878   2.588   5.092  12.673 -0.6056 -1.4648 -0.1414
 4129TIP3    H233879   2.633   5.045  12.810 -1.0917 -1.0509  0.1638
 4130TIP3   OH233880   5.756   0.042  17.062 -0.3261 -0.2134 -0.3477
 4130TIP3    H133881   5.780  -0.010  17.139 -0.4484  0.4634  0.1571
 4130TIP3    H233882   5.666   0.015  17.043 -0.8585  0.7459  0.7101
 4131TIP3   OH233883   1.518   4.886   1.408 -0.0301 -0.3513 -0.2882
 4131TIP3    H133884   1.582   4.920   1.471 -0.9648  0.3464  0.3015
 4131TIP3    H233885   1.471   4.964   1.377  0.6991 -0.6301 -2.1808
 4132TIP3   OH233886   0.902   5.727   3.447 -0.1318  0.8705 -0.1383
 4132TIP3    H133887   0.985   5.696   3.485  0.9902  2.2399 -1.3794
 4132TIP3    H233888   0.852   5.757   3.523  0.7977  0.6809  0.5765
 4133TIP3   OH233889   4.300   0.889  11.741 -0.2322  0.0767 -0.6931
 4133TIP3    H133890   4.263   0.826  11.679 -0.2092 -0.5345 -0.0919
 4133TIP3    H233891   4.254   0.872  11.823  2.2684 -1.5916  0.4162
 4134TIP3   OH233892   5.570   3.891   3.711  0.5673 -0.3233  0.0140
 4134TIP3    H133893   5.625   3.872   3.635 -0.5948  0.2111 -0.9606
 4134TIP3    H233894   5.600   3.976   3.742 -0.0534  0.2004 -0.8253
 4135TIP3   OH233895   6.128   5.554   2.261  0.2529  0.0883 -0.4798
 4135TIP3    H133896   6.093   5.493   2.327 -1.7348  1.5860 -0.0878
 4135TIP3    H233897   6.212   5.582   2.297 -0.9124  1.0640  1.6007
 4136TIP3   OH233898   0.402   1.778  12.974  0.2750  0.7609  0.0691
 4136TIP3    H133899   0.417   1.779  13.068  2.3870  1.6720 -0.2436
 4136TIP3    H233900   0.418   1.868  12.946  1.4883  0.1100 -1.3993
 4137TIP3   OH233901   3.327   3.473  16.309 -0.2935  0.6504 -0.2309
 4137TIP3    H133902   3.343   3.491  16.401 -1.3165 -1.6151  0.4225
 4137TIP3    H233903   3.308   3.558  16.270  0.2990  1.6349  1.6085
 4138TIP3   OH233904   0.656   0.612   3.248  0.0646  0.1057  0.3189
 4138TIP3    H133905   0.659   0.534   3.192  3.5746 -1.5033  2.5870
 4138TIP3    H233906   0.575   0.602   3.299  0.2180 -1.7590  0.2110
 4139TIP3   OH233907   1.962   0.923  16.911 -0.1524 -0.7733  0.0664
 4139TIP3    H133908   1.898   0.899  16.979  2.3463 -2.6186  1.8328
 4139TIP3    H233909   2.000   1.005  16.942  1.0261 -1.6434  0.9533
 4140TIP3   OH233910   4.387   5.489   3.716  0.0307  0.0842 -0.3783
 4140TIP3    H133911   4.444   5.434   3.663 -0.6334 -0.9308 -0.0498
 4140TIP3    H233912   4.434   5.500   3.799 -1.1563 -2.4964  0.6821
 4141TIP3   OH233913   4.068   5.336  11.870 -0.0175  0.0164 -0.0695
 4141TIP3    H133914   4.032   5.251  11.896 -0.3790 -0.0581 -0.7919
 4141TIP3    H233915   4.089   5.326  11.777  1.9551  0.0441  0.3443
 4142TIP3   OH233916   0.414   6.624   4.133 -0.7743 -0.6926 -0.3631
 4142TIP3    H133917   0.500   6.586   4.151 -0.1330  0.8582 -0.1132
 4142TIP3    H233918   0.376   6.640   4.219  0.2704  2.1369 -0.3658
 4143TIP3   OH233919   3.763   3.165   6.171 -0.1549 -0.0624 -0.6430
 4143TIP3    H133920   3.784   3.157   6.078  0.5163 -0.9633 -0.4197
 4143TIP3    H233921   3.676   3.127   6.179  0.1213 -0.7295 -0.7726
 4144TIP3   OH233922   0.467   0.412  13.621  0.0014 -0.0735 -0.5139
 4144TIP3    H133923   0.494   0.367  13.701 -0.2396 -0.8942 -0.8868
 4144TIP3    H233924   0.371   0.405  13.621  0.0259 -0.4244 -1.0732
 4145TIP3   OH233925   4.007   2.471   2.887 -0.3756  0.5356 -0.3196
 4145TIP3    H133926   4.066   2.473   2.962  1.2596 -0.6317 -1.5499
 4145TIP3    H233927   3.920   2.464   2.926  0.4510 -0.1904  1.4669
 4146TIP3   OH233928   5.306   1.220  11.999 -0.5019 -0.2743  0.2365
 4146TIP3    H133929   5.333   1.251  12.086  1.6966 -5.1576  1.4467
 4146TIP3    H233930   5.225   1.171  12.015  0.1430 -1.5565 -0.3974
 4147TIP3   OH233931   5.625   0.339  12.245 -0.3551  0.0577  0.4756
 4147TIP3    H133932   5.571   0.360  12.321 -0.1360  1.5719  0.2265
 4147TIP3    H233933   5.715   0.358  12.274 -0.0142 -1.6754  0.6224
 4148TIP3   OH233934   0.327   6.358   0.905 -0.3176  0.2622  1.0370
 4148TIP3    H133935   0.239   6.324   0.920 -0.0781 -0.4679  0.8095
 4148TIP3    H233936   0.361   6.304   0.833  0.6830 -0.1176  1.7891
 4149TIP3   OH233937   1.509   1.680   0.680 -0.0404 -0.1269 -0.0312
 4149TIP3    H133938   1.592   1.633   0.671  1.3229  2.3598 -0.7543
 4149TIP3    H233939   1.474   1.650   0.764  1.4782 -1.3756  0.1802
 4150TIP3   OH233940   5.590   6.363   1.685 -0.1666  0.4539 -0.0650
 4150TIP3    H133941   5.495   6.371   1.692 -0.2896 -1.2799  0.3592
 4150TIP3    H233942   5.621   6.359   1.776  0.0041 -2.2630 -0.2212
 4151TIP3   OH233943   4.128   4.463  10.830 -0.1208 -0.7348  0.8083
 4151TIP3    H133944   4.037   4.466  10.801  0.1785  0.6196  0.0014
 4151TIP3    H233945   4.124   4.421  10.916 -1.7700  1.2007  1.7197
 4152TIP3   OH233946   2.717   1.891   6.147 -0.2579 -0.0963  0.4704
 4152TIP3    H133947   2.658   1.877   6.072 -0.4432 -1.7026  0.8976
 4152TIP3    H233948   2.716   1.808   6.194  0.4159  0.6722  1.8747
 4153TIP3   OH233949   4.936   1.960   2.678  0.5768  0.2485 -0.3162
 4153TIP3    H133950   4.986   1.974   2.598  1.5052 -0.4884  0.1114
 4153TIP3    H233951   4.906   1.869   2.672 -1.3402  0.9008 -0.8986
 4154TIP3   OH233952   5.007   0.763  16.357 -0.4506  0.2200  0.0728
 4154TIP3    H133953   5.038   0.823  16.424 -1.7808  0.2814  0.6484
 4154TIP3    H233954   4.949   0.817  16.302  0.5724  0.1590 -1.0946
 4155TIP3   OH233955   5.693   4.459   3.109 -0.0696 -0.1623 -0.4395
 4155TIP3    H133956   5.782   4.449   3.144  0.1460  1.4006 -0.5275
 4155TIP3    H233957   5.644   4.386   3.148  1.0620 -0.5970  0.2009
 4156TIP3   OH233958   6.549   0.339   3.812  0.1650  0.4046  0.3876
 4156TIP3    H133959   6.507   0.387   3.883  0.0787  0.2658  0.4299
 4156TIP3    H233960   6.624   0.296   3.853 -0.9228 -1.1782  0.7976
 4157TIP3   OH233961   0.994   4.487  13.835 -0.1849 -0.5949  0.3465
 4157TIP3    H133962   1.083   4.453  13.829 -0.2433 -0.6381 -0.3805
 4157TIP3    H233963   0.978   4.498  13.929  0.7905 -0.0331  0.4493
 4158TIP3   OH233964   0.550   0.647  13.496  0.0149  0.1062  0.3024
 4158TIP3    H133965   0.557   0.571  13.553 -1.4500 -0.5232 -0.3401
 4158TIP3    H233966   0.458   0.672  13.501  0.3614  1.4743  0.0289
 4159TIP3   OH233967   4.949   4.457  17.165 -0.0594 -0.1842 -0.2094
 4159TIP3    H133968   4.925   4.479  17.075 -0.9190  2.6301  0.6672
 4159TIP3    H233969   4.867   4.431  17.206  0.0327  0.1950  0.2196
 4160TIP3   OH233970   1.933   2.539   5.939 -0.8793  0.1614 -0.1495
 4160TIP3    H133971   1.867   2.471   5.950 -0.4767  0.0314  1.8052
 4160TIP3    H233972   1.957   2.563   6.029  1.6216  0.3048 -0.8042
 4161TIP3   OH233973   3.931   2.074   3.816 -0.5062  0.0267  0.1531
 4161TIP3    H133974   3.926   2.169   3.807  0.0402 -0.0394 -0.9600
 4161TIP3    H233975   3.926   2.041   3.726  0.6360 -0.9383  0.4336
 4162TIP3   OH233976   1.565   2.978   1.554  0.0777  0.6435  0.3387
 4162TIP3    H133977   1.520   2.918   1.495  0.1723 -1.0348  1.9397
 4162TIP3    H233978   1.654   2.984   1.520 -0.2192  0.7171 -0.4314
 4163TIP3   OH233979   2.980   2.188  10.867  0.4077  0.0975  0.1053
 4163TIP3    H133980   2.956   2.117  10.926  1.1869  0.7519  1.2171
 4163TIP3    H233981   2.988   2.146  10.781  0.4693 -1.0711  0.6723
 4164TIP3   OH233982   3.756   0.134   1.196 -0.0702  0.4987  0.0124
 4164TIP3    H133983   3.677   0.179   1.225  0.3130  1.3616 -0.2417
 4164TIP3    H233984   3.753   0.140   1.101 -1.6876 -2.9474 -0.2316
 4165TIP3   OH233985   4.785   5.504   1.661  0.2286 -0.3289 -0.1509
 4165TIP3    H133986   4.857   5.477   1.605 -0.0446 -0.1531 -0.5917
 4165TIP3    H233987   4.708   5.500   1.604  0.2078  1.5149 -0.2875
 4166TIP3   OH233988   2.440   1.443   4.294  0.3554  0.2421  0.5286
 4166TIP3    H133989   2.533   1.447   4.318  0.2523  0.8612  0.8381
 4166TIP3    H233990   2.437   1.480   4.205  0.5261 -0.6206  0.1587
 4167TIP3   OH233991   1.004   1.305   1.872  0.0313 -0.5332  0.1356
 4167TIP3    H133992   0.993   1.220   1.829 -1.7515  0.1583 -0.8368
 4167TIP3    H233993   0.948   1.300   1.950 -0.8958  0.0900 -0.4712
 4168TIP3   OH233994   1.888   3.915   4.005 -0.3328  0.3772 -0.2648
 4168TIP3    H133995   1.811   3.964   3.976  0.2262  1.3731 -0.1164
 4168TIP3    H233996   1.879   3.910   4.100 -0.5991 -0.1822 -0.3161
 4169TIP3   OH233997   1.412   5.389  16.471 -0.0127  0.1241 -0.0733
 4169TIP3    H133998   1.495   5.346  16.493 -0.0451 -1.5009 -2.9220
 4169TIP3    H233999   1.346   5.323  16.487 -0.5839  0.7776  0.2970
 4170TIP3   OH234000   2.210   4.278   6.303  0.1147 -0.1346  0.3612
 4170TIP3    H134001   2.166   4.361   6.283 -0.1334  0.0553  1.6837
 4170TIP3    H234002   2.195   4.265   6.396  1.4424 -0.9127  0.4699
 4171TIP3   OH234003   0.943   1.415  16.838 -0.4683  0.4051  0.2670
 4171TIP3    H134004   1.017   1.355  16.847 -1.3464 -0.9288 -1.1892
 4171TIP3    H234005   0.982   1.497  16.809  0.4054 -0.4483 -1.0446
 4172TIP3   OH234006   3.511   1.826   5.481 -0.1045  0.3052  0.3082
 4172TIP3    H134007   3.432   1.873   5.507  0.6861  1.6162  0.3621
 4172TIP3    H234008   3.568   1.831   5.558  0.0923 -0.5088  0.2184
 4173TIP3   OH234009   4.611   0.385   3.586  0.4048  0.0876  0.1693
 4173TIP3    H134010   4.530   0.359   3.543 -1.4139  3.0308  1.6706
 4173TIP3    H234011   4.598   0.362   3.678  0.8130  1.5643  0.6094
 4174TIP3   OH234012   6.329   3.036  15.763  0.4502  0.2132 -0.3633
 4174TIP3    H134013   6.333   2.975  15.688  0.4957 -0.4992  0.2139
 4174TIP3    H234014   6.268   3.104  15.734 -0.7980 -0.9193 -0.4378
 4175TIP3   OH234015   3.772   6.455   3.623  0.1583  0.1139  0.0861
 4175TIP3    H134016   3.744   6.544   3.600  0.0338  0.5256  1.7205
 4175TIP3    H234017   3.784   6.411   3.539  2.0863  2.2666 -0.8400
 4176TIP3   OH234018   4.448   4.161   2.470  0.4008  0.0014 -0.4015
 4176TIP3    H134019   4.420   4.100   2.539 -0.1946  0.4304 -0.2673
 4176TIP3    H234020   4.469   4.242   2.517 -0.0204  0.2985 -0.7230
 4177TIP3   OH234021   0.373   4.584   0.787  0.1991 -0.0372 -0.2676
 4177TIP3    H134022   0.445   4.537   0.745  0.6198 -1.0598  1.5357
 4177TIP3    H234023   0.387   4.676   0.764  2.0494 -0.2327  0.0163
 4178TIP3   OH234024   3.994   5.501  10.386  0.1675 -0.0149  0.3312
 4178TIP3    H134025   3.978   5.406  10.390 -0.5007  0.1152  0.8780
 4178TIP3    H234026   4.087   5.510  10.408 -0.5179 -0.3103  3.5564
 4179TIP3   OH234027   3.859   4.518  13.261 -0.5607  0.3396 -0.3362
 4179TIP3    H134028   3.776   4.480  13.230 -0.2609 -1.4456  0.9875
 4179TIP3    H234029   3.926   4.459  13.228 -0.1995 -1.3680  3.2534
 4180TIP3   OH234030   6.361   5.643   1.211 -0.4563  0.0277  0.5359
 4180TIP3    H134031   6.328   5.577   1.150 -0.6927 -0.5619  1.2958
 4180TIP3    H234032   6.284   5.669   1.261  0.1886 -1.2448  2.2224
 4181TIP3   OH234033   1.626   4.263  14.977 -0.1349  0.1619 -0.3623
 4181TIP3    H134034   1.684   4.334  15.004 -1.5430  1.5741 -0.9939
 4181TIP3    H234035   1.571   4.246  15.054  0.4147 -0.5014 -0.1003
 4182TIP3   OH234036   3.482   4.394   1.300  0.1608  0.1230  0.0484
 4182TIP3    H134037   3.412   4.450   1.334 -0.4914 -0.6449 -0.0353
 4182TIP3    H234038   3.441   4.342   1.231  0.7110 -0.6410  0.2868
 4183TIP3   OH234039   3.943   0.694  15.072  0.1054 -0.0511  0.6635
 4183TIP3    H134040   3.951   0.754  15.146 -0.4043  0.1816  0.5319
 4183TIP3    H234041   4.034   0.679  15.044  0.2279  0.8177  0.5721
 4184TIP3   OH234042   5.728   5.310   5.337 -0.3147 -0.8348  0.2482
 4184TIP3    H134043   5.675   5.349   5.268  1.2749 -0.2807 -0.7016
 4184TIP3    H234044   5.688   5.339   5.418 -1.8235 -0.9538 -0.4437
 4185TIP3   OH234045   5.614   2.715   4.891 -0.2029  0.1205 -0.2186
 4185TIP3    H134046   5.536   2.660   4.881  0.2329 -0.2387 -1.7902
 4185TIP3    H234047   5.680   2.656   4.929 -0.5722  0.3170  0.7323
 4186TIP3   OH234048   0.712   6.022  11.276 -0.4345 -0.0332  0.3161
 4186TIP3    H134049   0.737   6.115  11.282 -0.7714  0.1143 -0.4684
 4186TIP3    H234050   0.786   5.975  11.315 -0.4012  0.5829  1.0146
 4187TIP3   OH234051   5.366   2.015  11.965 -0.5536 -0.1357  0.0367
 4187TIP3    H134052   5.292   2.018  12.026 -0.3425 -0.5036  0.3113
 4187TIP3    H234053   5.424   2.085  11.995 -0.2667 -0.5658  0.4959
 4188TIP3   OH234054   2.780   0.860   1.709 -0.5115 -0.1459  0.1021
 4188TIP3    H134055   2.814   0.806   1.781  1.4272  0.1891 -0.5492
 4188TIP3    H234056   2.838   0.842   1.636 -2.7069 -0.7858 -1.5458
 4189TIP3   OH234057   0.663   3.678  13.893  0.3392 -0.4681 -0.4136
 4189TIP3    H134058   0.687   3.651  13.804  2.7475 -1.1514  0.4120
 4189TIP3    H234059   0.581   3.633  13.910 -0.6613  0.4307 -2.6322
 4190TIP3   OH234060   1.126   4.316   4.453 -0.0742 -0.0149 -0.3037
 4190TIP3    H134061   1.195   4.374   4.422 -1.1114  1.5709  0.3066
 4190TIP3    H234062   1.173   4.242   4.491  1.3483  1.8010  1.6247
 4191TIP3   OH234063   6.721   6.119  16.871  0.0101  0.2952 -0.2860
 4191TIP3    H134064   6.696   6.073  16.791 -0.6299  0.8228 -0.3932
 4191TIP3    H234065   6.813   6.095  16.885 -0.0046 -0.1474 -0.9371
 4192TIP3   OH234066   1.738   6.780  13.121  0.5335  0.0148 -0.4628
 4192TIP3    H134067   1.710   6.802  13.032 -1.3987  0.9588  0.3741
 4192TIP3    H234068   1.658   6.776  13.172  1.5329 -1.4890  1.0633
 4193TIP3   OH234069   2.360   6.292   5.875 -0.0977 -0.4797 -0.3836
 4193TIP3    H134070   2.438   6.258   5.920  0.9397 -0.8815 -2.4155
 4193TIP3    H234071   2.296   6.221   5.881  0.2477 -0.7663 -0.0829
 4194TIP3   OH234072   1.978   6.135  14.124  0.0870 -0.4694  0.3944
 4194TIP3    H134073   1.948   6.214  14.079  0.3002 -1.4882 -1.5961
 4194TIP3    H234074   1.908   6.071  14.109 -0.1553 -0.6285  2.1249
 4195TIP3   OH234075   3.478   1.616   0.530  0.8511 -0.2197 -0.3822
 4195TIP3    H134076   3.463   1.601   0.623  1.0724  2.0653  0.0685
 4195TIP3    H234077   3.391   1.626   0.493  0.8020  0.4600 -0.1013
 4196TIP3   OH234078   3.886   3.530  16.043  0.0862  0.1328 -0.2130
 4196TIP3    H134079   3.898   3.584  16.121  0.5699 -2.1972  1.3881
 4196TIP3    H234080   3.800   3.490  16.054  0.8826 -1.5726  0.0350
 4197TIP3   OH234081   1.687   2.447   0.727  0.4074  0.3344  0.4358
 4197TIP3    H134082   1.688   2.352   0.741  0.2858  0.4922  1.5925
 4197TIP3    H234083   1.599   2.465   0.692  0.5852 -0.0279 -0.2088
 4198TIP3   OH234084   4.536   1.239  12.445  0.0431 -0.1481 -0.9006
 4198TIP3    H134085   4.609   1.177  12.442  0.3801  0.2069 -0.3425
 4198TIP3    H234086   4.514   1.245  12.538  0.8461  1.5094 -0.7895
 4199TIP3   OH234087   3.916   0.951   0.076  0.0801 -0.3494 -0.3410
 4199TIP3    H134088   3.993   1.000   0.104 -1.1919  1.4864  0.0563
 4199TIP3    H234089   3.937   0.921  -0.012  1.4490 -0.3107 -0.0268
 4200TIP3   OH234090   4.472   5.211   1.182 -0.2610 -0.8798  0.2838
 4200TIP3    H134091   4.467   5.296   1.138  1.0409 -0.6913  0.4838
 4200TIP3    H234092   4.448   5.147   1.114 -0.8153 -0.3997  0.0214
 4201TIP3   OH234093   3.795   4.995   5.668 -0.3167 -0.1694  0.3388
 4201TIP3    H134094   3.795   5.071   5.726  0.3616 -0.8404  1.2274
 4201TIP3    H234095   3.861   4.936   5.705 -1.6518 -1.6927  0.3304
 4202TIP3   OH234096   5.706   5.226   2.337 -0.2180  0.0564 -0.1095
 4202TIP3    H134097   5.756   5.284   2.393  0.8794  1.1556 -2.1524
 4202TIP3    H234098   5.615   5.257   2.343  0.0712  0.8330  0.2063
 4203TIP3   OH234099   3.204   4.394   5.904  0.3408 -0.8391 -0.4102
 4203TIP3    H134100   3.240   4.425   5.821  0.7943  2.6627  1.0490
 4203TIP3    H234101   3.281   4.378   5.959 -0.0246 -1.7642 -0.1506
 4204TIP3   OH234102   5.085   2.616   3.771 -0.3611 -0.1351 -0.3476
 4204TIP3    H134103   5.080   2.712   3.771  0.2257 -0.0922 -1.3649
 4204TIP3    H234104   5.061   2.591   3.682  2.7396 -0.7279 -1.0787
 4205TIP3   OH234105   3.972   5.893   1.610  0.2868 -0.0566  0.2939
 4205TIP3    H134106   3.896   5.891   1.668 -1.4019  2.3986 -1.7121
 4205TIP3    H234107   4.014   5.977   1.627  1.3000 -0.4747 -0.1158
 4206TIP3   OH234108   5.573   1.753  12.657 -0.0118  0.2779  0.5432
 4206TIP3    H134109   5.592   1.738  12.750 -1.5384  0.4842  0.9064
 4206TIP3    H234110   5.636   1.698  12.610  1.0426  0.4683  1.6810
 4207TIP3   OH234111   5.625   6.153  12.427 -0.3007  0.0512 -0.3989
 4207TIP3    H134112   5.584   6.067  12.425 -1.4413  0.5962 -1.0337
 4207TIP3    H234113   5.596   6.195  12.346 -0.0496  1.1659  0.0765
 4208TIP3   OH234114   0.604   3.201   5.893  0.7449 -0.1796  0.3056
 4208TIP3    H134115   0.662   3.130   5.919  0.7194 -0.1467  0.4528
 4208TIP3    H234116   0.647   3.280   5.925  0.7735 -0.1280  0.1411
 4209TIP3   OH234117   2.420   0.411   2.957  0.0333  0.1689 -0.2962
 4209TIP3    H134118   2.380   0.378   3.038 -0.0244  0.9868  0.0093
 4209TIP3    H234119   2.504   0.446   2.985  0.6763 -0.9315 -0.8336
 4210TIP3   OH234120   3.481   1.745  12.907  0.5102  0.6023 -0.2699
 4210TIP3    H134121   3.408   1.723  12.849  0.1442  1.3198 -0.0955
 4210TIP3    H234122   3.523   1.662  12.926  0.5847  0.3480 -1.5014
 4211TIP3   OH234123   4.507   3.070   4.794 -0.1985  0.5853 -0.0361
 4211TIP3    H134124   4.428   3.099   4.750 -0.4444  2.3007  1.4701
 4211TIP3    H234125   4.503   2.975   4.791 -0.8265  0.6712 -2.5606
 4212TIP3   OH234126   6.487   4.411   3.699  0.0493  0.5109  0.4806
 4212TIP3    H134127   6.492   4.494   3.748  0.6654  0.4014  0.6142
 4212TIP3    H234128   6.557   4.357   3.737 -2.1727 -1.1432  2.3477
 4213TIP3   OH234129   1.603   2.392  11.796  0.7319  0.6722  0.0800
 4213TIP3    H134130   1.535   2.418  11.858 -0.1878  1.8752 -1.3981
 4213TIP3    H234131   1.679   2.372  11.851 -0.5259  0.2081  1.6872
 4214TIP3   OH234132   3.160   5.646  11.121  0.7746  0.1817 -0.6259
 4214TIP3    H134133   3.129   5.705  11.191  2.7790  0.7867 -0.2167
 4214TIP3    H234134   3.080   5.607  11.086 -0.3137  0.1420  1.7745
 4215TIP3   OH234135   5.755   0.081  16.156 -0.2386  0.1339 -0.2426
 4215TIP3    H134136   5.771   0.129  16.237  0.7208 -0.7558  0.1062
 4215TIP3    H234137   5.712   0.144  16.099 -0.1591  1.0196  0.6637
 4216TIP3   OH234138   1.727   0.540   1.730 -0.1756 -0.3811 -0.2902
 4216TIP3    H134139   1.714   0.453   1.692 -1.5859  0.2689 -1.3611
 4216TIP3    H234140   1.664   0.545   1.802 -0.1113 -0.2410 -0.2435
 4217TIP3   OH234141   2.892   2.892   4.994  0.0691  0.1131 -0.1785
 4217TIP3    H134142   2.980   2.875   4.961 -0.3982 -0.7438 -1.0292
 4217TIP3    H234143   2.838   2.897   4.915 -0.1543  3.7537  0.1208
 4218TIP3   OH234144   1.121   6.056  12.841 -0.3901  0.1948  0.2723
 4218TIP3    H134145   1.065   6.079  12.766  0.4097 -0.1734 -0.4448
 4218TIP3    H234146   1.179   5.988  12.807  0.8219  0.9235  0.8762
 4219TIP3   OH234147   0.164   1.741   5.783  0.0315  0.2006 -0.8931
 4219TIP3    H134148   0.248   1.696   5.777 -0.1515 -0.3521  0.4583
 4219TIP3    H234149   0.103   1.685   5.735  0.4047  0.5502 -1.7860
 4220TIP3   OH234150   6.405   0.187  15.812 -0.2228  0.0488 -0.2992
 4220TIP3    H134151   6.440   0.160  15.897  1.2001  0.0771 -0.8539
 4220TIP3    H234152   6.310   0.190  15.824 -0.1101 -1.0972  0.9517
 4221TIP3   OH234153   5.207   3.188   0.276  0.1916  0.1055  0.5103
 4221TIP3    H134154   5.117   3.202   0.248 -0.2935  0.6166  2.2581
 4221TIP3    H234155   5.251   3.151   0.199 -1.0940  1.4133 -0.8824
 4222TIP3   OH234156   2.119   0.267  15.296  0.1369  0.2218  0.2715
 4222TIP3    H134157   2.200   0.222  15.271 -1.5152 -1.6158 -2.0519
 4222TIP3    H234158   2.100   0.325  15.222 -0.6084  0.7586  0.8702
 4223TIP3   OH234159   6.383   5.319  15.799 -0.1883 -0.1098  0.4219
 4223TIP3    H134160   6.311   5.265  15.830 -0.7545  0.0862 -0.5275
 4223TIP3    H234161   6.444   5.323  15.872  0.2844 -2.7715  0.2106
 4224TIP3   OH234162   6.232   1.485  14.590 -1.0043  0.8309  0.1118
 4224TIP3    H134163   6.235   1.416  14.524  1.7467 -2.2648  3.3073
 4224TIP3    H234164   6.173   1.452  14.657  0.8270  1.2350  1.9784
 4225TIP3   OH234165   2.025   5.387  15.903 -1.1124  0.5145  0.5905
 4225TIP3    H134166   2.081   5.382  15.826  0.9883  1.4389  1.9939
 4225TIP3    H234167   2.004   5.296  15.924 -1.1595  0.2325 -0.6833
 4226TIP3   OH234168   0.163   1.561   4.834 -0.1362 -0.2714 -0.7309
 4226TIP3    H134169   0.201   1.634   4.785 -1.2430  0.3020 -0.7470
 4226TIP3    H234170   0.236   1.501   4.848  1.0847  1.3894  0.3079
 4227TIP3   OH234171   1.066   1.976   3.991  0.9049  0.4816 -0.8495
 4227TIP3    H134172   1.068   1.918   3.915 -1.4997  4.0748 -3.8416
 4227TIP3    H234173   0.974   1.980   4.017  1.9122 -2.2086  3.6491
 4228TIP3   OH234174   4.401   2.263   5.509  0.2010 -0.1066 -0.0805
 4228TIP3    H134175   4.422   2.172   5.485 -1.7280 -0.0709 -2.0382
 4228TIP3    H234176   4.473   2.314   5.473  1.4081 -0.8630  1.2154
 4229TIP3   OH234177   0.843   2.687   3.827  0.2385 -0.2546  0.1936
 4229TIP3    H134178   0.905   2.641   3.770  0.7482 -0.7485  1.1423
 4229TIP3    H234179   0.857   2.649   3.914 -0.9935  0.0337  0.5263
 4230TIP3   OH234180   0.623   3.115  14.741  0.1819 -0.2259 -0.2297
 4230TIP3    H134181   0.700   3.086  14.789  0.8196  0.8825 -0.5564
 4230TIP3    H234182   0.555   3.125  14.808  1.0680  1.3383  0.4590
 4231TIP3   OH234183   6.211   2.920  12.073 -0.1617  0.2511  0.3567
 4231TIP3    H134184   6.146   2.857  12.104  0.1370  0.0219  0.5282
 4231TIP3    H234185   6.267   2.935  12.150 -0.4887  1.0562  0.4433
 4232TIP3   OH234186   6.140   1.982   4.533 -0.6037  0.1373 -0.1149
 4232TIP3    H134187   6.199   2.045   4.574 -2.6046  1.0538  1.4088
 4232TIP3    H234188   6.105   2.029   4.457 -0.1793 -0.0448 -0.4264
 4233TIP3   OH234189   3.771   2.898   0.175  0.2176 -0.5996 -0.1515
 4233TIP3    H134190   3.860   2.923   0.148 -0.4271  1.1843 -0.6676
 4233TIP3    H234191   3.784   2.824   0.233  2.0309 -0.6208 -0.5546
 4234TIP3   OH234192   6.172   3.247  11.565 -0.0787 -0.0378 -0.1380
 4234TIP3    H134193   6.102   3.290  11.517 -1.7270 -0.6936  1.6235
 4234TIP3    H234194   6.157   3.271  11.656  1.8367 -0.4076  0.2920
 4235TIP3   OH234195   4.632   5.465  12.706 -0.5092 -0.0822 -0.1871
 4235TIP3    H134196   4.674   5.380  12.719  1.1895  0.6881 -0.4821
 4235TIP3    H234197   4.539   5.445  12.699 -0.0993 -1.9554 -0.5979
 4236TIP3   OH234198   1.715   6.555  14.432  0.1325  0.3809 -0.1628
 4236TIP3    H134199   1.671   6.487  14.381  1.0564 -0.5824  0.3088
 4236TIP3    H234200   1.717   6.521  14.521 -0.2261  1.4474  0.2603
 4237TIP3   OH234201   2.259   4.501   3.880  0.0184 -0.2829  0.2067
 4237TIP3    H134202   2.304   4.456   3.951  0.0842  0.8041  0.8605
 4237TIP3    H234203   2.296   4.589   3.880 -1.4228  0.3433  0.1421
 4238TIP3   OH234204   4.768   4.993  14.112  0.2993  0.5723  0.1535
 4238TIP3    H134205   4.683   4.955  14.135 -0.6094  1.8285 -1.0328
 4238TIP3    H234206   4.799   5.032  14.193 -0.6103  0.7148  0.4470
 4239TIP3   OH234207   0.075   2.038  13.017 -0.2085  0.0728 -0.1867
 4239TIP3    H134208   0.032   2.114  12.977  1.5611  0.3544 -1.6037
 4239TIP3    H234209   0.068   1.969  12.951  1.9860  0.2912 -0.6551
 4240TIP3   OH234210   3.617   1.283   5.469  0.0889  0.2456  0.0060
 4240TIP3    H134211   3.542   1.258   5.415  1.1835  2.9382 -2.9140
 4240TIP3    H234212   3.580   1.299   5.556 -2.5233  0.4886 -1.1090
 4241TIP3   OH234213   0.465   5.135  12.026  0.1263  0.9521 -0.3152
 4241TIP3    H134214   0.414   5.216  12.030  0.7269  1.3197  0.1458
 4241TIP3    H234215   0.490   5.127  11.934  0.7923  1.7731 -0.2231
 4242TIP3   OH234216   1.039   6.265  10.427 -0.6934 -0.7019  0.1053
 4242TIP3    H134217   1.092   6.339  10.398 -1.3102 -0.5185 -0.5542
 4242TIP3    H234218   1.102   6.193  10.437 -0.2369 -0.3323 -0.1259
 4243TIP3   OH234219   1.821   1.080   1.535 -0.1707 -0.1241  0.0089
 4243TIP3    H134220   1.902   1.077   1.484 -0.9216  1.2248 -1.2910
 4243TIP3    H234221   1.847   1.119   1.618  0.4356  0.6943 -0.5598
 4244TIP3   OH234222   5.243   6.303   4.775 -0.3302  0.2119  0.0726
 4244TIP3    H134223   5.204   6.218   4.794  2.2998 -0.7039  1.6710
 4244TIP3    H234224   5.306   6.284   4.705 -0.5148  1.0594 -0.3196
 4245TIP3   OH234225   3.027   6.617   5.645  0.7965 -0.1617  0.6834
 4245TIP3    H134226   2.980   6.534   5.634 -1.9414  1.3207  0.5496
 4245TIP3    H234227   2.989   6.656   5.724  0.0482  2.1910 -0.7724
 4246TIP3   OH234228   1.436   1.561  12.535 -0.1934 -0.2462 -0.2252
 4246TIP3    H134229   1.428   1.488  12.596  0.4016 -0.0399  0.1072
 4246TIP3    H234230   1.448   1.638  12.591  0.2107 -0.0369 -0.5938
 4247TIP3   OH234231   6.017   0.720  15.316 -0.0916 -0.1325  0.4033
 4247TIP3    H134232   6.056   0.783  15.256  0.3391  0.1152  0.9481
 4247TIP3    H234233   5.959   0.772  15.371 -0.9465 -0.4480 -0.1840
 4248TIP3   OH234234   0.358   0.887  15.873  0.2426  0.7138 -0.2733
 4248TIP3    H134235   0.346   0.794  15.891 -0.0315  0.6283 -0.8905
 4248TIP3    H234236   0.323   0.931  15.950  0.8230  0.2957  0.2377
 4249TIP3   OH234237   1.733   6.092   0.456  0.2814  0.1050  0.2643
 4249TIP3    H134238   1.658   6.034   0.450  0.1471  0.3306 -0.3015
 4249TIP3    H234239   1.729   6.145   0.377 -0.2020  1.6349  1.2959
 4250TIP3   OH234240   5.014   2.694   1.063  0.4280 -0.3736  0.0588
 4250TIP3    H134241   5.059   2.663   1.141  0.2113  0.1450  0.3983
 4250TIP3    H234242   4.969   2.617   1.028  0.6095 -0.6289  0.3906
 4251TIP3   OH234243   5.793   3.467  11.461 -0.2949  0.5214 -0.0887
 4251TIP3    H134244   5.810   3.444  11.552  0.6184 -0.8952 -0.6183
 4251TIP3    H234245   5.776   3.562  11.464 -1.0386  0.3592  1.6453
 4252TIP3   OH234246   4.898   5.133   3.379 -0.6179  0.1349 -0.6213
 4252TIP3    H134247   4.866   5.064   3.438 -2.1349  1.0542 -0.3471
 4252TIP3    H234248   4.942   5.085   3.309  0.5529 -1.0120  0.8544
 4253TIP3   OH234249   0.458   0.191   4.001 -0.0572  0.1385 -0.2324
 4253TIP3    H134250   0.410   0.156   3.926  1.2752 -0.5249 -0.7924
 4253TIP3    H234251   0.409   0.159   4.077 -0.3052 -0.8266 -0.7848
 4254TIP3   OH234252   3.717   2.499  15.727 -0.1584 -0.2877  0.2907
 4254TIP3    H134253   3.670   2.582  15.732 -0.6451 -0.5633  0.3704
 4254TIP3    H234254   3.739   2.478  15.818  0.0810 -0.1773  0.2581
 4255TIP3   OH234255   2.750   3.777   4.280  0.0095 -0.2246 -0.2911
 4255TIP3    H134256   2.665   3.783   4.324 -0.2016  0.0174 -0.7264
 4255TIP3    H234257   2.795   3.704   4.323  0.1912  0.6174  0.9901
 4256TIP3   OH234258   5.719   2.871  16.407  0.9393 -0.2983  0.4108
 4256TIP3    H134259   5.804   2.848  16.369  2.0349  1.4698  1.7304
 4256TIP3    H234260   5.736   2.876  16.501 -0.1753  1.8311  0.5281
 4257TIP3   OH234261   0.043   4.225  14.828  0.2948  0.4530  0.0729
 4257TIP3    H134262   0.033   4.320  14.828  0.3104  0.5061 -3.3480
 4257TIP3    H234263  -0.006   4.196  14.752  1.4416 -2.1757  0.2856
 4258TIP3   OH234264   3.305   3.061   1.660  0.0902  0.6477 -0.2796
 4258TIP3    H134265   3.231   3.024   1.611  0.0735 -0.9679  0.9044
 4258TIP3    H234266   3.265   3.126   1.718 -0.0855  1.4726 -1.3230
 4259TIP3   OH234267   3.370   0.264   4.713 -0.5126 -0.1234  0.1118
 4259TIP3    H134268   3.287   0.217   4.720 -0.6223  0.2617  1.5769
 4259TIP3    H234269   3.346   0.356   4.722  0.0554 -0.0101  0.4975
 4260TIP3   OH234270   1.773   3.322   4.983 -0.5687 -0.0302 -0.1468
 4260TIP3    H134271   1.686   3.284   4.991  0.0981 -1.9945 -1.8083
 4260TIP3    H234272   1.772   3.368   4.899 -0.2165  0.5433  0.1562
 4261TIP3   OH234273   4.427   3.727  11.991  0.2219  0.8308  0.3173
 4261TIP3    H134274   4.436   3.822  11.997 -0.0628  0.8736  0.0794
 4261TIP3    H234275   4.403   3.700  12.080 -0.7843  1.1078  0.1396
 4262TIP3   OH234276   2.508   4.724   0.856 -0.5129  0.3989  0.1708
 4262TIP3    H134277   2.527   4.664   0.783  0.7957  0.9830  0.0194
 4262TIP3    H234278   2.415   4.710   0.875 -0.7735 -0.0590 -1.3517
 4263TIP3   OH234279   5.579   5.700   3.292  0.3581  0.4674 -0.4803
 4263TIP3    H134280   5.576   5.794   3.312 -1.7255  0.0279  1.4385
 4263TIP3    H234281   5.607   5.659   3.374  1.2505 -0.5912 -1.3115
 4264TIP3   OH234282   1.248   4.049   3.569 -0.1022 -0.1711 -0.2683
 4264TIP3    H134283   1.201   3.966   3.570 -0.9684  0.2518 -2.2132
 4264TIP3    H234284   1.315   4.038   3.502 -0.4726  0.8182 -0.8142
 4265TIP3   OH234285   0.455   2.386   2.124  0.0609  0.2900  0.1592
 4265TIP3    H134286   0.361   2.381   2.140 -0.1790 -0.9621 -1.5680
 4265TIP3    H234287   0.476   2.307   2.074  1.7615  1.3020 -0.7917
 4266TIP3   OH234288   1.869   1.128  10.913  0.0184 -0.7753  0.2143
 4266TIP3    H134289   1.900   1.042  10.887  1.5015  0.6778 -3.1995
 4266TIP3    H234290   1.948   1.182  10.917 -1.1877  1.1233 -0.6806
 4267TIP3   OH234291   3.107   1.349  11.091 -0.2545  0.0053  0.5710
 4267TIP3    H134292   3.135   1.347  11.000  0.8052 -2.0968  0.9006
 4267TIP3    H234293   3.091   1.257  11.113 -1.7756  0.6132  2.1211
 4268TIP3   OH234294   4.538   1.902  12.941 -0.1852  0.1513  0.7877
 4268TIP3    H134295   4.481   1.841  12.894  0.8288 -0.0467 -0.1942
 4268TIP3    H234296   4.626   1.868  12.927  0.3100  1.3610  0.9568
 4269TIP3   OH234297   4.962   1.946   0.897 -0.4879  0.5527  0.3415
 4269TIP3    H134298   5.013   1.884   0.844  1.3126  0.8664  1.6450
 4269TIP3    H234299   4.966   2.028   0.848 -0.6278  0.2989 -0.0935
 4270TIP3   OH234300   1.263   3.330  11.595  0.0261  0.5125 -0.7838
 4270TIP3    H134301   1.285   3.331  11.688 -1.3894 -3.3740 -0.3289
 4270TIP3    H234302   1.324   3.267  11.557 -0.8171  0.4761 -2.0955
 4271TIP3   OH234303   2.374   6.086  16.384 -0.4957 -0.6629  0.4396
 4271TIP3    H134304   2.337   6.174  16.384  0.3339 -0.2574  3.1516
 4271TIP3    H234305   2.314   6.034  16.437 -0.4592 -1.5093 -0.3225
 4272TIP3   OH234306   4.503   2.524  10.843 -0.5468 -0.2672  0.2271
 4272TIP3    H134307   4.526   2.581  10.917  1.0365  4.9236 -4.0075
 4272TIP3    H234308   4.587   2.490  10.813 -0.9113 -0.1808 -0.8810
 4273TIP3   OH234309   1.771   5.031   5.241  0.2849  0.3637 -0.1356
 4273TIP3    H134310   1.859   5.027   5.203  0.6048 -4.0351  0.7932
 4273TIP3    H234311   1.786   5.030   5.336 -0.7260 -2.6375  0.0451
 4274TIP3   OH234312   4.655   6.354   3.248  0.3337 -0.4985 -0.6833
 4274TIP3    H134313   4.606   6.299   3.309 -0.2371  0.3929 -0.3235
 4274TIP3    H234314   4.741   6.364   3.289  0.3266 -0.8438 -0.5848
 4275TIP3   OH234315   0.015   4.159  11.427  0.0034 -0.5129 -0.6115
 4275TIP3    H134316   0.039   4.186  11.339 -1.7595 -1.8210 -1.5224
 4275TIP3    H234317  -0.060   4.214  11.450  0.4037 -0.2341  0.0256
 4276TIP3   OH234318   0.576   4.598  16.679  0.0063  0.8097  1.0609
 4276TIP3    H134319   0.572   4.686  16.716  0.3517  1.5002 -0.4813
 4276TIP3    H234320   0.608   4.543  16.750 -2.5229  1.4819  2.7914
 4277TIP3   OH234321   2.830   3.746  15.360 -0.0340 -0.2585  0.2632
 4277TIP3    H134322   2.858   3.771  15.272 -1.0563 -1.8852 -0.5395
 4277TIP3    H234323   2.899   3.689  15.392 -0.2143 -0.5829  0.0725
 4278TIP3   OH234324   4.822   4.435   5.516  0.6938 -0.4546 -0.6843
 4278TIP3    H134325   4.798   4.361   5.572  0.0096 -0.4059 -0.9047
 4278TIP3    H234326   4.918   4.436   5.516  0.7068 -1.4406 -0.8180
 4279TIP3   OH234327   4.843   5.000  11.531  0.3550 -0.2479  0.1188
 4279TIP3    H134328   4.797   4.951  11.600 -0.8751 -0.6418 -0.9511
 4279TIP3    H234329   4.881   5.075  11.576  2.3240 -2.1934  1.8070
 4280TIP3   OH234330   2.200   2.287  16.471  0.1207 -0.2015 -0.0529
 4280TIP3    H134331   2.171   2.196  16.464 -0.3695 -0.0370 -0.1941
 4280TIP3    H234332   2.136   2.328  16.529 -0.4946  0.4019 -1.1413
 4281TIP3   OH234333   6.678   4.647  16.677  0.2719  0.6164  0.1435
 4281TIP3    H134334   6.701   4.627  16.768 -0.0055  1.0503  0.3067
 4281TIP3    H234335   6.709   4.736  16.664  0.7639  0.3759 -0.3400
 4282TIP3   OH234336   2.658   3.432   5.526  0.3610 -0.0386  0.5680
 4282TIP3    H134337   2.746   3.402   5.550 -0.3484 -2.3113  0.4265
 4282TIP3    H234338   2.602   3.356   5.541 -1.5518  1.3121  0.4001
 4283TIP3   OH234339   2.162   3.487  13.988 -0.2378  0.2800  0.4143
 4283TIP3    H134340   2.102   3.548  14.031 -1.0116 -0.4488  0.3843
 4283TIP3    H234341   2.223   3.460  14.056  0.5694  1.6540  0.2502
 4284TIP3   OH234342   2.346   0.083  13.559  0.6638  0.5100 -0.4786
 4284TIP3    H134343   2.430   0.058  13.597  0.4482 -0.1502 -0.4345
 4284TIP3    H234344   2.343   0.039  13.474  0.1134  0.0686 -0.2313
 4285TIP3   OH234345   6.478   5.385  12.839 -0.1192  0.6040 -0.5442
 4285TIP3    H134346   6.546   5.452  12.830 -0.0056  0.1957 -3.3923
 4285TIP3    H234347   6.518   5.305  12.805 -1.5753  0.0518 -0.9945
 4286TIP3   OH234348   4.640   2.796   3.554  0.2178 -0.4519 -0.3172
 4286TIP3    H134349   4.551   2.785   3.587  0.9576  2.3725  2.8416
 4286TIP3    H234350   4.690   2.726   3.596 -0.1454 -0.9768 -0.7462
 4287TIP3   OH234351   1.129   0.504   2.283 -0.1349  0.5562 -0.2070
 4287TIP3    H134352   1.209   0.503   2.230  0.8342  0.2601  1.2238
 4287TIP3    H234353   1.099   0.413   2.282  0.7915  0.2305  1.0845
 4288TIP3   OH234354   2.867   2.794   4.558  0.1480 -0.4388 -0.2171
 4288TIP3    H134355   2.806   2.738   4.511  0.2086 -1.7120  1.1736
 4288TIP3    H234356   2.817   2.825   4.634  0.2475  1.0742 -0.7515
 4289TIP3   OH234357   4.315   6.276   4.999 -0.3206 -0.0557  0.3647
 4289TIP3    H134358   4.255   6.205   5.022  0.0858 -0.4257  0.3012
 4289TIP3    H234359   4.379   6.277   5.071 -0.3932  0.3178  0.4226
 4290TIP3   OH234360   4.516   6.052  16.704 -0.6718 -0.2235  0.1388
 4290TIP3    H134361   4.520   5.956  16.705  0.3250 -0.1880  1.8662
 4290TIP3    H234362   4.606   6.080  16.720 -0.9685  1.0061 -0.3087
 4291TIP3   OH234363   4.617   6.411  16.117  0.2851 -0.7382  0.3407
 4291TIP3    H134364   4.672   6.411  16.039 -2.2623  0.2831 -1.4983
 4291TIP3    H234365   4.577   6.324  16.118 -1.0609 -0.1417 -0.5125
 4292TIP3   OH234366   5.106   5.668  13.341  0.0767  0.9412 -0.8238
 4292TIP3    H134367   5.038   5.700  13.283  0.0518  0.1624 -1.2368
 4292TIP3    H234368   5.082   5.702  13.427  0.0800  2.0384 -1.2570
 4293TIP3   OH234369   2.204   2.553   5.436  0.0376  0.3464  0.0959
 4293TIP3    H134370   2.266   2.610   5.390  0.2763 -0.9753 -1.2768
 4293TIP3    H234371   2.246   2.467   5.436 -1.6230 -0.4868 -0.5637
 4294TIP3   OH234372   6.376   1.089   6.809  0.0011  0.3392 -0.6582
 4294TIP3    H134373   6.454   1.101   6.863  1.0057  2.1893 -2.4837
 4294TIP3    H234374   6.313   1.152   6.843  0.4051  1.0475 -1.2214
 4295TIP3   OH234375   0.164   0.845   2.253  0.0955 -0.4782 -0.9248
 4295TIP3    H134376   0.150   0.833   2.159 -0.5567 -1.5520 -0.6900
 4295TIP3    H234377   0.076   0.838   2.292  0.2987  0.4071 -0.2741
 4296TIP3   OH234378   0.389   4.280   3.665 -0.3883 -0.5627 -0.3377
 4296TIP3    H134379   0.358   4.302   3.753 -1.1161  0.8374 -0.9209
 4296TIP3    H234380   0.337   4.335   3.607  0.5330 -0.9974 -1.6074
 4297TIP3   OH234381   6.184   0.770   6.060  0.0059 -0.6333  0.0403
 4297TIP3    H134382   6.229   0.736   6.138 -0.5566  0.3648  0.8107
 4297TIP3    H234383   6.126   0.838   6.094 -1.7009 -1.5537 -1.0145
 4298TIP3   OH234384   4.341   2.469   0.780 -0.0392  0.9226  0.8820
 4298TIP3    H134385   4.354   2.539   0.716  0.7224  1.7559  1.9104
 4298TIP3    H234386   4.275   2.504   0.840 -1.4760 -0.2543 -0.0144
 4299TIP3   OH234387   2.987   4.902   4.795  0.5498 -0.6081 -0.1283
 4299TIP3    H134388   2.895   4.898   4.822  0.6293  1.5119  0.5630
 4299TIP3    H234389   2.996   4.988   4.752  2.1765 -0.8302 -0.2758
 4300TIP3   OH234390   1.241   0.903  15.857 -0.4007  0.2897  0.0099
 4300TIP3    H134391   1.284   0.951  15.787 -0.8915  1.7074  0.6551
 4300TIP3    H234392   1.271   0.945  15.937 -1.3161 -0.0837  0.5579
 4301TIP3   OH234393   5.346   3.564   2.972  0.2530 -0.3426 -0.3114
 4301TIP3    H134394   5.347   3.652   2.936  1.2402 -0.1219  0.2406
 4301TIP3    H234395   5.396   3.570   3.053 -2.1902 -0.7561  1.2984
 4302TIP3   OH234396   1.261   2.913  10.510  0.1662  0.5209 -0.2157
 4302TIP3    H134397   1.319   2.848  10.549  0.4799  2.3706  2.5075
 4302TIP3    H234398   1.319   2.972  10.461  0.1257  0.0830 -0.7976
 4303TIP3   OH234399   1.039   3.922   2.611  0.1145  0.1460 -0.3862
 4303TIP3    H134400   0.990   3.845   2.640 -0.2536  0.4040 -0.3195
 4303TIP3    H234401   0.977   3.994   2.618  0.4601  0.4522 -0.4403
 4304TIP3   OH234402   2.065   0.414   4.316 -0.3599  0.5321  0.2360
 4304TIP3    H134403   2.111   0.383   4.238 -1.2278  0.9584 -0.4531
 4304TIP3    H234404   2.134   0.427   4.381  0.2304 -1.0103 -0.0626
 4305TIP3   OH234405   0.404   3.595  13.948 -0.1420 -0.1735 -0.0133
 4305TIP3    H134406   0.410   3.643  13.865  0.1700  1.0394  0.6975
 4305TIP3    H234407   0.363   3.657  14.009  1.0730 -0.4892  1.1508
 4306TIP3   OH234408   3.047   4.847  13.850  0.2626 -0.7737  0.4636
 4306TIP3    H134409   2.999   4.863  13.932  0.3379  1.8687  0.0133
 4306TIP3    H234410   3.139   4.856  13.874  0.3054 -0.4642  0.1756
 4307TIP3   OH234411   6.253   5.955  11.674 -0.0202  0.1694 -0.4099
 4307TIP3    H134412   6.302   5.973  11.755 -0.9160  1.3922 -0.1187
 4307TIP3    H234413   6.227   5.863  11.682 -0.1851  0.3067  0.7509
 4308TIP3   OH234414   3.574   6.049  15.550 -0.9025  0.1145 -0.3022
 4308TIP3    H134415   3.492   6.001  15.541 -0.3847 -0.5677 -1.6490
 4308TIP3    H234416   3.551   6.129  15.596 -2.2789 -0.1730 -0.4739
 4309TIP3   OH234417   1.215   5.179   0.509  0.8837 -0.3894 -0.9963
 4309TIP3    H134418   1.218   5.084   0.525  0.4574 -0.2528 -0.0702
 4309TIP3    H234419   1.161   5.189   0.431 -1.0412 -0.7542  0.2679
 4310TIP3   OH234420   0.223   2.764   1.780 -0.1582  0.2555 -0.4320
 4310TIP3    H134421   0.290   2.825   1.750 -1.1271  1.1889 -0.7325
 4310TIP3    H234422   0.173   2.742   1.702 -0.5883  0.0404 -0.0981
 4311TIP3   OH234423   6.250   6.645  15.276  0.1000  0.2946 -0.1057
 4311TIP3    H134424   6.257   6.633  15.371 -1.7398 -3.5427 -0.3597
 4311TIP3    H234425   6.173   6.700  15.264  0.4874  1.0058  0.6373
 4312TIP3   OH234426   5.412   3.013  15.714 -0.0512  0.0234  0.0890
 4312TIP3    H134427   5.481   2.961  15.674  0.3328 -0.2432  1.0861
 4312TIP3    H234428   5.454   3.096  15.737 -0.2760  0.1859 -0.0804
 4313TIP3   OH234429   1.333   1.061   1.153  0.0912 -0.1432 -0.0634
 4313TIP3    H134430   1.296   1.096   1.234 -0.5493 -0.3354 -0.2627
 4313TIP3    H234431   1.395   0.995   1.181 -0.6242 -0.6845  0.2629
 4314TIP3   OH234432   1.056   5.654  12.712  0.0470 -0.3244  0.5023
 4314TIP3    H134433   1.039   5.688  12.624  1.5214 -0.2241  0.2419
 4314TIP3    H234434   1.033   5.562  12.707  0.9645 -0.5245 -0.2584
 4315TIP3   OH234435   1.314   6.498  14.135 -0.1464  0.2450 -0.5735
 4315TIP3    H134436   1.257   6.472  14.207  0.0321 -0.1417 -0.5691
 4315TIP3    H234437   1.291   6.589  14.117 -0.5631  0.1764 -0.3814
 4316TIP3   OH234438   2.141   5.414  13.402 -0.1331 -0.0519 -0.2599
 4316TIP3    H134439   2.234   5.398  13.384 -0.0971  0.3021 -0.3972
 4316TIP3    H234440   2.096   5.387  13.322 -0.0177  1.0732 -0.7132
 4317TIP3   OH234441   5.858   4.125  12.970 -0.1598  0.1809  0.0871
 4317TIP3    H134442   5.859   4.205  13.022  0.7279 -0.0452  0.4279
 4317TIP3    H234443   5.803   4.065  13.019 -1.1136  0.6971 -0.3427
 4318TIP3   OH234444   1.224   1.981  16.830  0.2967  0.2658 -0.2430
 4318TIP3    H134445   1.271   1.967  16.913  0.8977  2.6142 -0.1691
 4318TIP3    H234446   1.262   2.061  16.794 -0.5691 -0.2648 -2.3884
 4319TIP3   OH234447   1.471   4.531   4.589 -0.3038  0.1567 -0.4126
 4319TIP3    H134448   1.479   4.625   4.607 -0.5988 -0.1232  1.2837
 4319TIP3    H234449   1.482   4.489   4.675 -0.5502 -1.3303 -1.0937
 4320TIP3   OH234450   5.715   0.672   2.782  0.0433 -0.1012  0.0128
 4320TIP3    H134451   5.779   0.601   2.788 -0.0417 -0.0535  1.7429
 4320TIP3    H234452   5.692   0.675   2.689  1.2713 -1.2455 -0.3525
 4321TIP3   OH234453   1.843   3.048   1.873 -0.5019 -0.3183 -0.3477
 4321TIP3    H134454   1.893   3.090   1.943 -0.5535  0.4440 -0.7625
 4321TIP3    H234455   1.909   3.029   1.806 -1.0515  2.3596 -1.6790
 4322TIP3   OH234456   4.653   3.829   1.926  0.3034 -0.0553 -0.6220
 4322TIP3    H134457   4.621   3.874   1.847  0.7104 -0.9886 -1.3338
 4322TIP3    H234458   4.574   3.795   1.968  0.2187 -1.1558 -1.6330
 4323TIP3   OH234459   1.791   6.216   3.378 -0.4615 -0.0819  0.2001
 4323TIP3    H134460   1.885   6.205   3.363 -0.5432  1.2414 -1.3644
 4323TIP3    H234461   1.785   6.247   3.468  0.4486 -1.9907  0.9612
 4324TIP3   OH234462   5.807   5.823  17.014 -0.0872 -0.0983  0.2800
 4324TIP3    H134463   5.786   5.768  16.939  0.0971  0.4693 -0.1859
 4324TIP3    H234464   5.901   5.808  17.029  0.0459  0.3842 -0.0844
 4325TIP3   OH234465   1.048   3.215   5.355 -0.2495  0.0503  0.2539
 4325TIP3    H134466   0.955   3.237   5.352  0.1021  1.5990  0.2374
 4325TIP3    H234467   1.087   3.283   5.410  1.2926  1.0527 -1.9536
 4326TIP3   OH234468   3.135   3.958  16.042  0.3415 -0.0049 -0.1989
 4326TIP3    H134469   3.142   4.021  16.114  0.0508  1.3125 -1.3033
 4326TIP3    H234470   3.137   3.872  16.085  0.7303  0.7495  1.3281
 4327TIP3   OH234471   2.613   3.137  14.709  0.3817 -0.0104 -0.0634
 4327TIP3    H134472   2.552   3.106  14.642 -0.2303  1.1893 -0.0774
 4327TIP3    H234473   2.609   3.070  14.777  1.7870 -1.7590 -1.6571
 4328TIP3   OH234474   2.536   4.430   5.750  0.0600  0.8322  0.3552
 4328TIP3    H134475   2.622   4.405   5.786 -0.2442 -2.1668 -0.8221
 4328TIP3    H234476   2.547   4.520   5.721  2.6654  0.6722  0.7170
 4329TIP3   OH234477   3.523   2.026  13.710 -0.0934  0.6193 -0.1282
 4329TIP3    H134478   3.602   1.977  13.731 -0.3193  0.0762 -0.5166
 4329TIP3    H234479   3.548   2.082  13.636  0.2848  1.4214  0.5990
 4330TIP3   OH234480   3.162   2.870   4.079  0.0700 -0.4163  0.0045
 4330TIP3    H134481   3.224   2.838   4.013  1.7975 -2.2097  2.3851
 4330TIP3    H234482   3.089   2.809   4.075 -0.8009  0.7073 -1.6520
 4331TIP3   OH234483   4.793   5.299   3.022  0.0732  0.7669 -0.0321
 4331TIP3    H134484   4.885   5.301   3.047  0.0250  0.8620  0.1352
 4331TIP3    H234485   4.773   5.206   3.010  0.3760  0.7954 -0.7531
 4332TIP3   OH234486   2.736   3.653   1.271  0.1402  0.5912  0.0750
 4332TIP3    H134487   2.674   3.726   1.263  0.9627  1.2189 -0.6160
 4332TIP3    H234488   2.822   3.694   1.264  0.6321 -0.3286  0.6421
 4333TIP3   OH234489   0.031   3.958  15.081  0.0574  0.0129  0.2347
 4333TIP3    H134490   0.029   4.049  15.051  2.3603  0.3945  1.1399
 4333TIP3    H234491   0.116   3.925  15.051  0.3705 -1.0277  2.2147
 4334TIP3   OH234492   0.596   1.869   2.105 -0.9035  0.0617 -0.2922
 4334TIP3    H134493   0.658   1.797   2.123  0.3805  1.1884 -0.0730
 4334TIP3    H234494   0.587   1.914   2.189  0.4911  1.8107 -1.0289
 4335TIP3   OH234495   2.203   4.387   5.229 -0.3707  0.4267 -0.1898
 4335TIP3    H134496   2.270   4.334   5.185 -0.6529  0.3132 -0.4854
 4335TIP3    H234497   2.125   4.375   5.176  0.0056  2.5370 -1.2808
 4336TIP3   OH234498   2.774   4.069  14.760  0.4266  0.3244  0.6090
 4336TIP3    H134499   2.838   4.137  14.781 -0.0433  0.3555  1.9718
 4336TIP3    H234500   2.694   4.116  14.739  0.2334  0.2018  1.0774
 4337TIP3   OH234501   1.250   5.741   5.606  0.3268  0.6945 -0.6908
 4337TIP3    H134502   1.286   5.656   5.633  0.6611  0.1739 -2.6908
 4337TIP3    H234503   1.312   5.805   5.639  0.1230  0.1693  0.7603
 4338TIP3   OH234504   6.515   2.210   2.132 -0.0068 -0.0706  0.4703
 4338TIP3    H134505   6.549   2.285   2.083  0.9066 -0.5596  0.3361
 4338TIP3    H234506   6.432   2.239   2.167  0.2990  0.9726  0.3278
 4339TIP3   OH234507   1.633   6.689  15.066  0.1847  0.0490  0.2369
 4339TIP3    H134508   1.706   6.631  15.089  1.6620  1.2388 -1.3246
 4339TIP3    H234509   1.560   6.629  15.046  1.1476 -1.2019  0.3966
 4340TIP3   OH234510   3.802   1.523  13.880  0.2179 -0.4694  0.0206
 4340TIP3    H134511   3.844   1.533  13.794  0.3536 -1.3230 -0.0101
 4340TIP3    H234512   3.718   1.569  13.872  0.9153  0.8389 -0.0702
 4341TIP3   OH234513   1.936   4.320   5.609  0.1766 -0.4187  0.5506
 4341TIP3    H134514   1.894   4.256   5.551 -0.0764  0.3177 -0.0760
 4341TIP3    H234515   2.030   4.307   5.595  0.1040  0.3042 -0.6149
 4342TIP3   OH234516   6.108   5.237  14.056 -0.1385  0.6103  0.0671
 4342TIP3    H134517   6.106   5.183  13.977  1.5244  0.4193  0.1266
 4342TIP3    H234518   6.191   5.214  14.098  0.8039  3.4287 -0.0822
 4343TIP3   OH234519   1.466   3.536   3.846 -0.2559  0.1880 -0.0093
 4343TIP3    H134520   1.509   3.564   3.927  0.1106  0.3415 -0.2529
 4343TIP3    H234521   1.526   3.472   3.808  0.4794  1.5065 -1.1022
 4344TIP3   OH234522   0.483   4.332  11.387 -0.2832 -0.4483  0.0517
 4344TIP3    H134523   0.504   4.264  11.323  1.8708 -1.9645  2.3136
 4344TIP3    H234524   0.427   4.289  11.451  1.1942 -0.1260  1.5679
 4345TIP3   OH234525   1.080   5.075  13.885 -0.1112  0.1422  0.0996
 4345TIP3    H134526   1.030   5.106  13.961  0.8670  1.7424  0.1075
 4345TIP3    H234527   1.070   5.144  13.820 -1.7430 -1.6637 -1.6118
 4346TIP3   OH234528   0.621   5.763  12.665 -0.6242  0.0460 -0.3953
 4346TIP3    H134529   0.691   5.825  12.687 -1.3146  0.8379 -0.3697
 4346TIP3    H234530   0.635   5.688  12.722 -0.5846  0.7823  0.5666
 4347TIP3   OH234531   1.406   4.330  11.970 -0.5192 -0.6336  0.1645
 4347TIP3    H134532   1.366   4.397  12.026 -0.9584 -0.3202 -0.5172
 4347TIP3    H234533   1.387   4.359  11.881 -0.0508 -1.2714 -0.1456
 4348TIP3   OH234534   4.955   4.074  13.442 -0.1717 -0.6318  0.3553
 4348TIP3    H134535   4.979   3.982  13.431 -1.6184 -1.0761  0.8257
 4348TIP3    H234536   4.952   4.087  13.537 -1.9897 -0.6420  0.3034
 4349TIP3   OH234537   5.269   1.722   2.260 -0.5895  0.3133  0.2373
 4349TIP3    H134538   5.301   1.634   2.280  0.9867  1.0255  0.9070
 4349TIP3    H234539   5.186   1.729   2.307 -0.0561 -0.3260  1.2659
 4350TIP3   OH234540   5.895   6.112   1.677 -0.9898  0.2124  0.4248
 4350TIP3    H134541   5.972   6.124   1.620 -0.3458  1.8702  1.6026
 4350TIP3    H234542   5.821   6.105   1.616  0.1190 -1.9517 -0.7517
 4351TIP3   OH234543   1.169   2.972  13.945  0.5363  0.1618 -0.5412
 4351TIP3    H134544   1.116   3.052  13.948  0.8211  0.3779 -1.2006
 4351TIP3    H234545   1.124   2.911  14.004 -0.6510  0.2194 -1.3674
 4352TIP3   OH234546   0.645   6.759  13.170  0.4635  0.5376 -0.6104
 4352TIP3    H134547   0.620   6.667  13.173  0.4707  0.5186 -1.0827
 4352TIP3    H234548   0.678   6.773  13.081  0.4708  0.9936 -0.5412
 4353TIP3   OH234549   3.914   6.466   2.100 -0.0642  0.2198  0.5973
 4353TIP3    H134550   3.819   6.456   2.103 -0.3808  1.7290 -2.9694
 4353TIP3    H234551   3.933   6.540   2.157 -1.1860  0.8635  0.1300
 4354TIP3   OH234552   5.352   2.208   0.532 -0.1156  0.4713 -0.4594
 4354TIP3    H134553   5.415   2.217   0.604  0.3529  0.6498 -0.8882
 4354TIP3    H234554   5.282   2.269   0.554 -0.6543 -0.4932  0.5575
 4355TIP3   OH234555   1.167   4.383  14.219  0.1420 -0.3478 -0.0586
 4355TIP3    H134556   1.218   4.461  14.241 -0.1403  0.5579 -2.5062
 4355TIP3    H234557   1.110   4.411  14.148 -0.2103 -2.7201 -0.7371
 4356TIP3   OH234558   4.192   4.784   0.080 -0.6322 -0.4240  0.0320
 4356TIP3    H134559   4.266   4.779   0.019  0.2545  2.1939  0.8267
 4356TIP3    H234560   4.233   4.791   0.166 -1.8468 -1.0026  0.6698
 4357TIP3   OH234561   5.648   4.819  11.053  0.5622  0.8167  0.4224
 4357TIP3    H134562   5.701   4.897  11.037  0.4795  0.8820  0.4671
 4357TIP3    H234563   5.558   4.852  11.059  0.6290  0.8432  1.3615
 4358TIP3   OH234564   2.694   2.691   0.219  0.4101  0.3413  0.2404
 4358TIP3    H134565   2.643   2.703   0.299 -0.2540  1.0315 -0.2923
 4358TIP3    H234566   2.653   2.616   0.176 -0.9719  1.6831 -0.8222
 4359TIP3   OH234567   3.021   4.348  17.223 -0.0917  0.4334  0.0986
 4359TIP3    H134568   3.019   4.253  17.211 -2.0829  0.4467  0.2373
 4359TIP3    H234569   3.034   4.383  17.135  0.5100  0.0399  0.0256
 4360TIP3   OH234570   4.725   4.138  15.925 -0.3333  0.3518 -0.1472
 4360TIP3    H134571   4.719   4.043  15.941  0.7042  0.2155 -0.5068
 4360TIP3    H234572   4.708   4.147  15.832 -1.3977  0.6245  0.0733
 4361TIP3   OH234573   6.470   2.448  12.701 -0.1778  0.3614  0.2467
 4361TIP3    H134574   6.426   2.467  12.618 -2.3731 -0.3124  1.2233
 4361TIP3    H234575   6.501   2.533  12.732  0.3288  0.6640 -1.0695
 4362TIP3   OH234576   3.429   0.274  11.694 -0.2556 -0.1535  0.1091
 4362TIP3    H134577   3.346   0.236  11.726  0.5947 -0.5483  1.9009
 4362TIP3    H234578   3.406   0.364  11.669 -1.0478  0.0158  1.4137
 4363TIP3   OH234579   4.226   0.807  12.215 -0.0419  0.5564 -0.0028
 4363TIP3    H134580   4.321   0.800  12.209 -0.1342 -0.5075 -0.4740
 4363TIP3    H234581   4.207   0.803  12.309  0.3454  0.1132  0.0617
 4364TIP3   OH234582   0.405   6.082   5.184  0.2514 -0.6727 -0.6400
 4364TIP3    H134583   0.380   6.174   5.175 -0.0599 -0.7368 -0.4706
 4364TIP3    H234584   0.323   6.034   5.168  0.4514 -0.9281 -0.9096
 4365TIP3   OH234585   4.818   5.736   4.962  0.0948 -0.3203 -0.4934
 4365TIP3    H134586   4.798   5.796   4.890 -1.1773 -0.6878 -0.4468
 4365TIP3    H234587   4.735   5.693   4.982  0.3571  0.0068  1.4208
 4366TIP3   OH234588   2.139   6.791  16.212  0.5386 -0.7270  0.5245
 4366TIP3    H134589   2.064   6.846  16.232  0.4318 -0.3053 -0.9260
 4366TIP3    H234590   2.181   6.775  16.296 -0.4643  0.0714  1.1856
 4367TIP3   OH234591   5.566   0.279  14.692  0.1060 -0.0091  0.3022
 4367TIP3    H134592   5.531   0.247  14.609 -0.6390  0.8545  0.2867
 4367TIP3    H234593   5.526   0.364  14.705 -0.4791 -0.5102  2.0000
 4368TIP3   OH234594   2.984   3.401   2.981  0.5271 -0.1772  0.5088
 4368TIP3    H134595   3.048   3.468   2.957 -1.2300  1.7174  0.9530
 4368TIP3    H234596   3.034   3.336   3.029  2.6522 -0.2054 -1.6754
 4369TIP3   OH234597   3.237   2.612  13.328 -0.3101 -0.1182  0.7191
 4369TIP3    H134598   3.329   2.635  13.338  0.1705 -2.3213  1.5839
 4369TIP3    H234599   3.235   2.548  13.257 -1.4313  1.4005 -0.6454
 4370TIP3   OH234600   1.202   6.029  15.714 -0.3049  0.2671  0.4860
 4370TIP3    H134601   1.154   6.025  15.797 -0.4932 -3.1886  0.2830
 4370TIP3    H234602   1.138   6.064  15.651 -1.0380  0.2687  1.2172
 4371TIP3   OH234603   3.969   4.925  13.867 -0.4130 -0.2014  0.1350
 4371TIP3    H134604   4.048   4.902  13.819 -0.4660 -0.7948  0.3241
 4371TIP3    H234605   4.000   4.956  13.952 -0.3305  0.6527 -0.2016
 4372TIP3   OH234606   5.779   1.075  10.514 -0.0535 -0.2167 -0.2168
 4372TIP3    H134607   5.868   1.104  10.534  0.4568 -0.3944 -2.1198
 4372TIP3    H234608   5.751   1.132  10.442  0.0993 -2.8043 -2.4466
 4373TIP3   OH234609   1.813   3.303  11.729 -0.5540 -0.1242  0.2778
 4373TIP3    H134610   1.780   3.275  11.644  1.2942 -0.0740 -0.4932
 4373TIP3    H234611   1.745   3.278  11.791 -2.1726  0.3289 -1.2731
 4374TIP3   OH234612   4.417   5.138   5.325  0.3661 -0.1598  0.2794
 4374TIP3    H134613   4.422   5.085   5.245  0.1355 -0.6390  0.5807
 4374TIP3    H234614   4.495   5.193   5.322  0.5686 -0.4618 -0.0797
 4375TIP3   OH234615   0.816   6.716   4.597 -0.7507 -0.5078 -0.1543
 4375TIP3    H134616   0.730   6.707   4.638 -0.5614 -2.2880 -0.1320
 4375TIP3    H234617   0.838   6.808   4.610 -1.8614 -0.4309  1.4190
 4376TIP3   OH234618   4.601   6.199  12.388  0.4330 -0.4685 -0.1862
 4376TIP3    H134619   4.602   6.287  12.425 -0.8163 -0.7251  0.4854
 4376TIP3    H234620   4.652   6.147  12.450  0.3530 -0.4164 -0.0769
 4377TIP3   OH234621   3.442   3.048   2.372  0.3026 -0.0822 -0.0532
 4377TIP3    H134622   3.492   3.063   2.291  0.9832 -2.5500 -0.1187
 4377TIP3    H234623   3.497   2.990   2.424 -1.1621 -0.3664  1.2170
 4378TIP3   OH234624   6.123   3.629   2.194  0.4803 -0.0766 -0.6508
 4378TIP3    H134625   6.190   3.692   2.170  0.4396  1.2338  2.3624
 4378TIP3    H234626   6.154   3.593   2.278 -1.5721 -0.9196 -0.2310
 4379TIP3   OH234627   5.769   3.553  12.091  0.3317  0.3480 -0.2279
 4379TIP3    H134628   5.745   3.596  12.009 -1.7238 -0.4032 -0.0570
 4379TIP3    H234629   5.686   3.541  12.137  1.3349 -0.2456  1.4626
 4380TIP3   OH234630   3.507   4.908   2.093 -0.2246  0.6234 -0.0045
 4380TIP3    H134631   3.483   4.816   2.105  1.1292  0.2845  0.2374
 4380TIP3    H234632   3.454   4.937   2.019 -0.9507 -0.2365  0.1627
 4381TIP3   OH234633   6.344   6.006  16.037 -0.2370  0.1668  0.3725
 4381TIP3    H134634   6.356   5.949  16.113 -0.3442 -0.4299 -0.0502
 4381TIP3    H234635   6.423   6.059  16.033  1.5712 -2.5257 -1.3925
 4382TIP3   OH234636   2.768   3.972  13.468  0.3682  0.1241 -0.1279
 4382TIP3    H134637   2.701   4.031  13.504  0.7196  0.7028 -0.4206
 4382TIP3    H234638   2.718   3.902  13.427 -0.0831  1.2738 -1.5660
 4383TIP3   OH234639   1.564   0.281  13.104 -0.3832  0.0443  0.0173
 4383TIP3    H134640   1.504   0.208  13.114  0.7165 -1.0181 -1.0191
 4383TIP3    H234641   1.526   0.351  13.157 -0.6489 -1.7752  2.2946
 4384TIP3   OH234642   4.038   2.487   4.205  0.4237  0.4707 -0.1242
 4384TIP3    H134643   3.991   2.502   4.287  0.8413 -1.9839  0.5902
 4384TIP3    H234644   4.067   2.396   4.209  0.0338  0.1467 -3.2379
 4385TIP3   OH234645   1.415   0.810   4.481 -0.1979  0.4473 -0.4056
 4385TIP3    H134646   1.419   0.892   4.530 -0.4699  0.9730 -1.2530
 4385TIP3    H234647   1.470   0.825   4.404  0.2275 -0.3728 -0.2666
 4386TIP3   OH234648   0.764   2.431   4.697  0.0206 -0.5294 -0.2416
 4386TIP3    H134649   0.774   2.366   4.767 -1.5069 -0.6868 -0.1647
 4386TIP3    H234650   0.787   2.514   4.739 -1.0337 -0.6030  0.4991
 4387TIP3   OH234651   2.747   5.528   5.851  0.0022 -0.3799  0.1654
 4387TIP3    H134652   2.766   5.605   5.905 -0.7436  0.5034 -0.8098
 4387TIP3    H234653   2.731   5.564   5.764  0.2844 -1.7089 -0.4394
 4388TIP3   OH234654   0.169   6.328   2.468 -0.3713  0.6881 -0.0717
 4388TIP3    H134655   0.213   6.403   2.508 -0.3842  0.8348 -0.3342
 4388TIP3    H234656   0.088   6.364   2.433 -1.1791  0.2291  1.2993
 4389TIP3   OH234657   1.962   1.475   1.344  0.1252  0.8072 -0.1379
 4389TIP3    H134658   1.996   1.510   1.426  0.3020 -0.6986  0.4505
 4389TIP3    H234659   2.031   1.416   1.313 -0.2182  0.8648 -1.0345
 4390TIP3   OH234660   5.222   4.504   0.416 -0.0459  0.1140  0.2944
 4390TIP3    H134661   5.179   4.574   0.464  0.7272  0.1674  0.9221
 4390TIP3    H234662   5.224   4.431   0.478 -0.2608 -0.2530 -0.1295
 4391TIP3   OH234663   0.568   2.320   3.605  0.3713  0.0185  0.2091
 4391TIP3    H134664   0.593   2.367   3.685 -0.8531  1.8021 -0.4295
 4391TIP3    H234665   0.478   2.290   3.622  0.6748 -0.9689  0.1021
 4392TIP3   OH234666   2.798   3.099   4.090 -0.1539 -0.5118 -0.1129
 4392TIP3    H134667   2.757   3.186   4.089  0.7717 -0.0813 -0.5856
 4392TIP3    H234668   2.730   3.041   4.057 -0.9130 -0.0276  0.5669
 4393TIP3   OH234669   0.598   0.218   5.065 -0.4749 -0.1709  0.1101
 4393TIP3    H134670   0.526   0.246   5.008  0.8316 -0.3375 -1.6539
 4393TIP3    H234671   0.671   0.275   5.041  0.7024 -1.6475  0.1341
 4394TIP3   OH234672   4.497   2.638   5.397  0.0939  0.2680 -0.1988
 4394TIP3    H134673   4.551   2.671   5.325  1.5481 -0.9166  0.3182
 4394TIP3    H234674   4.559   2.620   5.467 -1.1109 -0.1521  0.7843
 4395TIP3   OH234675   1.442   1.355   4.807 -0.3186  0.1732 -0.0513
 4395TIP3    H134676   1.517   1.356   4.747 -0.1547  0.3665  0.1531
 4395TIP3    H234677   1.435   1.445   4.837  0.5822 -0.2280  1.4254
 4396TIP3   OH234678   4.467   1.122   4.889  0.3804 -0.3488  0.0963
 4396TIP3    H134679   4.491   1.169   4.810  2.7493 -0.0573  0.9532
 4396TIP3    H234680   4.378   1.154   4.909  0.6316  1.2498 -1.1769
 4397TIP3   OH234681   0.734   3.289   6.229 -0.2144  0.0187  0.3529
 4397TIP3    H134682   0.697   3.355   6.288 -0.3370  0.9226 -0.7176
 4397TIP3    H234683   0.776   3.225   6.287  0.6569  1.4880  1.3803
 4398TIP3   OH234684   4.880   5.096   1.141  0.7304 -0.2655  0.4505
 4398TIP3    H134685   4.828   5.015   1.139  0.8875 -0.3500 -0.2093
 4398TIP3    H234686   4.961   5.070   1.185 -0.6190  0.3717  3.4210
 4399TIP3   OH234687   6.266   2.253   5.650  0.1327 -0.6013  0.3256
 4399TIP3    H134688   6.224   2.308   5.584  0.7476 -0.2921  0.1871
 4399TIP3    H234689   6.219   2.170   5.646 -0.9997  0.0116  0.7435
 4400TIP3   OH234690   0.492   2.096  16.297 -0.9973 -0.1343  0.1471
 4400TIP3    H134691   0.470   2.084  16.390 -0.5585  0.1430  0.2907
 4400TIP3    H234692   0.446   2.176  16.271 -0.5394  0.1909  0.3246
 4401TIP3   OH234693   4.213   0.040  15.985 -0.7830 -0.2449  0.0017
 4401TIP3    H134694   4.251  -0.047  15.977  0.3440  0.3533 -1.3748
 4401TIP3    H234695   4.142   0.041  15.921  0.6778  0.6011 -1.6329
 4402TIP3   OH234696   3.313   2.100   2.257 -0.1249 -0.1318  0.1650
 4402TIP3    H134697   3.385   2.063   2.309  1.2229 -0.7114 -2.0203
 4402TIP3    H234698   3.242   2.037   2.267  0.6134 -0.9826  0.1703
 4403TIP3   OH234699   6.538   5.296   5.608  0.6476 -0.2281  0.3221
 4403TIP3    H134700   6.567   5.353   5.679  0.1145  0.8524 -0.3091
 4403TIP3    H234701   6.586   5.214   5.621 -0.0641 -0.3210  2.3912
 4404TIP3   OH234702   4.020   5.816  14.058 -0.1223 -0.0626  0.4159
 4404TIP3    H134703   4.113   5.803  14.044  0.1472  1.7307  0.3989
 4404TIP3    H234704   4.015   5.881  14.128 -1.2757  2.1313 -1.5970
 4405TIP3   OH234705   1.798   4.788   2.218  0.4274  0.2681  0.4705
 4405TIP3    H134706   1.842   4.807   2.136  2.9097  0.6912  1.8585
 4405TIP3    H234707   1.846   4.714   2.255 -0.0243  0.7249  2.0246
 4406TIP3   OH234708   2.774   6.219   4.828 -0.3215  0.2897  0.2105
 4406TIP3    H134709   2.828   6.157   4.876 -1.2448 -1.2511 -0.6744
 4406TIP3    H234710   2.688   6.177   4.822 -1.5124  2.4943  1.2145
 4407TIP3   OH234711   2.510   0.398  11.383 -0.0629 -1.1063  0.3767
 4407TIP3    H134712   2.469   0.317  11.352 -0.0197 -1.0276  0.1115
 4407TIP3    H234713   2.472   0.467  11.328 -1.9787 -0.6252  2.2567
 4408TIP3   OH234714   3.261   3.045   4.656 -0.0912 -0.1624 -0.0723
 4408TIP3    H134715   3.196   3.027   4.588  0.5992  2.8476 -1.6002
 4408TIP3    H234716   3.325   2.975   4.646 -1.1402 -0.9976 -1.0616
 4409TIP3   OH234717   3.798   5.973   2.076  0.0449  0.5581 -0.5683
 4409TIP3    H134718   3.890   6.000   2.070  0.3688 -0.5964 -1.1149
 4409TIP3    H234719   3.749   6.054   2.085  1.0098  1.2882 -1.7346
 4410TIP3   OH234720   5.800   6.624  16.385  0.1092 -0.0222 -0.1589
 4410TIP3    H134721   5.826   6.660  16.469 -0.0357 -0.8103  0.2235
 4410TIP3    H234722   5.756   6.697  16.340  0.0701  0.3564  0.4979
 4411TIP3   OH234723   0.169   0.857   4.163  0.0877  0.2352  0.1245
 4411TIP3    H134724   0.192   0.791   4.097  0.6558  1.0906 -0.5443
 4411TIP3    H234725   0.149   0.806   4.242 -0.5854 -0.7947 -0.7038
 4412TIP3   OH234726   5.509   0.752   1.017  0.1867  0.8302  0.5436
 4412TIP3    H134727   5.449   0.787   1.083 -0.3671 -0.9834  1.0207
 4412TIP3    H234728   5.547   0.674   1.058  0.8396  0.4445 -0.7849
 4413TIP3   OH234729   3.173   6.600  13.432 -0.6556 -0.6915  0.6568
 4413TIP3    H134730   3.259   6.583  13.471 -0.9972 -1.8808  0.9274
 4413TIP3    H234731   3.156   6.692  13.450  1.7801  0.3117 -1.8429
 4414TIP3   OH234732   6.729   2.021   5.637 -0.0946  0.1388  0.3105
 4414TIP3    H134733   6.686   1.959   5.696  1.3890  1.2535  2.6292
 4414TIP3    H234734   6.657   2.065   5.591 -1.2213 -1.5778  0.4085
 4415TIP3   OH234735   1.602   6.556   3.640  0.3335 -0.3495  0.3952
 4415TIP3    H134736   1.654   6.634   3.655 -0.6749  0.6880 -1.3018
 4415TIP3    H234737   1.515   6.578   3.675  0.2616 -1.0074  0.6362
 4416TIP3   OH234738   3.361   0.346  12.970 -0.1691 -0.4556  0.2744
 4416TIP3    H134739   3.424   0.339  13.041 -0.1886 -0.0892  0.3306
 4416TIP3    H234740   3.276   0.337  13.013 -0.2132  0.5048  0.4082
 4417TIP3   OH234741   4.118   4.154   4.209  0.1254 -0.1432  0.4668
 4417TIP3    H134742   4.178   4.099   4.259  1.8619  2.3772  1.2659
 4417TIP3    H234743   4.153   4.151   4.120  0.0840 -0.5148  0.4627
 4418TIP3   OH234744   2.788   5.787  14.705 -0.0348  0.7300 -0.0070
 4418TIP3    H134745   2.823   5.809  14.619 -0.7502  1.5015 -0.1132
 4418TIP3    H234746   2.694   5.774  14.690 -0.1059  0.5481  0.5933
 4419TIP3   OH234747   3.852   3.993   3.541 -0.1116  0.0929  0.7452
 4419TIP3    H134748   3.841   3.910   3.588 -0.3826  0.0113  0.5374
 4419TIP3    H234749   3.775   4.045   3.564 -1.1677 -0.6266 -1.0032
 4420TIP3   OH234750   5.269   4.451   0.987  0.1395 -0.1129 -0.4523
 4420TIP3    H134751   5.346   4.410   0.947 -0.2823 -0.6622 -0.7119
 4420TIP3    H234752   5.196   4.397   0.957 -0.0881 -1.0797  1.8120
 4421TIP3   OH234753   4.663   0.259  13.622 -0.4726  0.4621 -0.3726
 4421TIP3    H134754   4.724   0.226  13.688 -0.4376 -0.5899 -0.9096
 4421TIP3    H234755   4.661   0.353  13.635 -0.0842  0.3075  0.7994
 4422TIP3   OH234756   5.478   4.653  14.927  0.0458  0.2487 -0.3885
 4422TIP3    H134757   5.535   4.729  14.932  1.3714 -0.7732  0.6083
 4422TIP3    H234758   5.396   4.686  14.891  1.1006  1.8386 -1.3816
 4423TIP3   OH234759   2.857   2.934  13.329  0.1206 -0.5316  0.0956
 4423TIP3    H134760   2.919   2.863  13.310  0.2813 -0.1487 -0.8293
 4423TIP3    H234761   2.873   2.999  13.261 -0.2877  0.2308  0.7246
 4424TIP3   OH234762   0.221   2.005   4.338  0.3118  0.3439  0.1786
 4424TIP3    H134763   0.237   2.063   4.412  1.4609  1.3465 -0.8293
 4424TIP3    H234764   0.259   1.921   4.365  0.0587  0.5053  1.0224
 4425TIP3   OH234765   1.094   5.558   2.578  0.0691  0.3320 -0.2498
 4425TIP3    H134766   1.020   5.602   2.538  1.0382  2.6434  0.4006
 4425TIP3    H234767   1.093   5.586   2.669 -0.2021 -2.2713  0.5717
 4426TIP3   OH234768   5.786   3.535   4.790 -0.5604 -0.0780  0.3322
 4426TIP3    H134769   5.831   3.510   4.870  0.3255 -0.3487 -0.2394
 4426TIP3    H234770   5.846   3.510   4.720 -0.0975  2.6772 -0.3146
 4427TIP3   OH234771   6.714   6.365  12.547  0.0311  0.1158  0.2409
 4427TIP3    H134772   6.792   6.401  12.506  0.2787  0.8056  1.3115
 4427TIP3    H234773   6.745   6.291  12.599  0.1149  1.0047  1.4642
 4428TIP3   OH234774   1.290   6.225  13.770  0.0351  1.0733 -0.3509
 4428TIP3    H134775   1.316   6.300  13.715 -1.4596  2.1585  0.3984
 4428TIP3    H234776   1.204   6.199  13.736 -0.7349  1.5181  1.2201
 4429TIP3   OH234777   5.885   1.896   5.690 -0.1573 -0.0802 -0.3161
 4429TIP3    H134778   5.848   1.961   5.631  1.5322  1.6818  0.5067
 4429TIP3    H234779   5.838   1.909   5.773 -1.2217 -1.2980 -0.7035
 4430TIP3   OH234780   5.210   1.194  10.852  0.3438 -0.3334  0.2062
 4430TIP3    H134781   5.241   1.162  10.937 -0.6224 -1.4577  0.1483
 4430TIP3    H234782   5.179   1.115  10.807 -1.0692  0.5428 -0.3726
 4431TIP3   OH234783   2.208   5.432   1.095  0.3724 -0.9302  0.0134
 4431TIP3    H134784   2.172   5.362   1.151  1.4824 -1.1778  0.4196
 4431TIP3    H234785   2.284   5.392   1.053  1.2244  0.1439  0.5221
 4432TIP3   OH234786   6.304   3.029   1.571  0.0991 -0.5896 -0.3249
 4432TIP3    H134787   6.290   2.938   1.595  0.2749 -0.2675  1.0519
 4432TIP3    H234788   6.301   3.076   1.654  1.8887  0.4193 -0.8145
 4433TIP3   OH234789   5.949   6.160  10.752 -0.0650  0.1627 -0.1806
 4433TIP3    H134790   5.868   6.200  10.721 -0.0454  0.6320  0.3679
 4433TIP3    H234791   5.997   6.138  10.672  0.5060  2.4291 -0.4933
 4434TIP3   OH234792   5.677   0.086   1.482  0.1086 -0.6999  0.6928
 4434TIP3    H134793   5.629   0.004   1.495  1.2254 -1.5804 -0.6297
 4434TIP3    H234794   5.617   0.141   1.431  0.6685 -2.0056 -1.4399
 4435TIP3   OH234795   0.026   3.484  11.297  0.4274 -0.2988  0.9022
 4435TIP3    H134796  -0.048   3.476  11.358  1.0322  1.0522  1.8283
 4435TIP3    H234797   0.103   3.490  11.354  1.1790 -0.9254 -0.0475
 4436TIP3   OH234798   4.918   3.565   4.090  0.3363 -0.2785 -0.2913
 4436TIP3    H134799   4.905   3.532   4.179  0.5919  0.3866 -0.0023
 4436TIP3    H234800   5.011   3.551   4.073  0.2985 -0.3552 -0.4292
 4437TIP3   OH234801   3.512   2.185  13.992  0.3674 -0.1421 -0.1139
 4437TIP3    H134802   3.579   2.184  13.923  0.4293 -0.4174 -0.0516
 4437TIP3    H234803   3.561   2.180  14.074  0.1886 -3.1996 -0.1333
 4438TIP3   OH234804   0.819   4.522   0.672  0.2321  1.5190  0.4953
 4438TIP3    H134805   0.800   4.456   0.738  0.3758  1.1436  0.1637
 4438TIP3    H234806   0.912   4.511   0.653 -0.0698  0.8229 -0.6373
 4439TIP3   OH234807   3.854   1.089  15.016 -0.5684 -0.1181 -0.4893
 4439TIP3    H134808   3.931   1.140  15.042  0.0552 -1.1027 -0.3506
 4439TIP3    H234809   3.821   1.132  14.937 -0.4310  0.8637 -0.0156
 4440TIP3   OH234810   5.100   2.019  12.078  0.8795  0.4758  0.2348
 4440TIP3    H134811   5.068   2.032  11.989  3.5161  0.9104 -0.7104
 4440TIP3    H234812   5.052   2.083  12.131 -1.2742 -0.3087 -0.7035
 4441TIP3   OH234813   5.508   3.462  15.632  0.1016 -0.0189 -0.1957
 4441TIP3    H134814   5.549   3.528  15.576  1.3899 -0.0503  0.6893
 4441TIP3    H234815   5.572   3.391  15.636 -0.4887 -0.5212  0.3553
 4442TIP3   OH234816   2.333   3.914  14.980 -0.3079  0.4503  0.6653
 4442TIP3    H134817   2.283   3.906  15.062  0.3258 -0.8579  0.9378
 4442TIP3    H234818   2.411   3.964  15.004  0.5449 -1.0947  1.1841
 4443TIP3   OH234819   2.837   6.606   5.385 -0.0609  0.1278 -0.1280
 4443TIP3    H134820   2.810   6.549   5.457  1.0472 -0.4652 -0.1625
 4443TIP3    H234821   2.911   6.560   5.345 -0.4630  0.6083 -1.4491
 4444TIP3   OH234822   2.415   2.690  13.719 -0.3302 -0.1142  0.5243
 4444TIP3    H134823   2.429   2.783  13.702 -2.1565  0.4742  2.0511
 4444TIP3    H234824   2.324   2.685  13.750 -0.2525 -2.3996  0.4587
 4445TIP3   OH234825   5.530   6.343  15.655  0.0479  0.2898 -0.0158
 4445TIP3    H134826   5.608   6.289  15.671  1.0491  1.6110 -0.3899
 4445TIP3    H234827   5.550   6.427  15.697 -1.3557  0.4961  0.2631
 4446TIP3   OH234828   3.326   4.906   3.545 -0.4980 -0.1373 -0.1153
 4446TIP3    H134829   3.289   4.955   3.471 -2.0628 -0.7056  0.2549
 4446TIP3    H234830   3.266   4.923   3.618  1.0942  0.5032  1.0617
 4447TIP3   OH234831   0.991   2.575  12.052  0.6610 -0.2967 -0.4391
 4447TIP3    H134832   0.949   2.511  11.995  0.4763  1.4215 -2.2771
 4447TIP3    H234833   0.989   2.656  12.002  1.5647  0.9780  1.5508
 4448TIP3   OH234834   2.567   6.087  14.819 -0.3965 -0.1617  0.0542
 4448TIP3    H134835   2.660   6.061  14.821 -0.0732  0.7839 -2.1470
 4448TIP3    H234836   2.558   6.139  14.740 -2.6409  0.5026  0.7176
 4449TIP3   OH234837   3.692   4.494   4.196 -0.5722 -0.0114  0.0082
 4449TIP3    H134838   3.786   4.514   4.198 -0.3694 -1.0155  0.8526
 4449TIP3    H234839   3.658   4.533   4.276 -0.7138 -0.4206  0.1474
 4450TIP3   OH234840   1.897   5.979  13.873 -0.0198 -0.0410 -0.6855
 4450TIP3    H134841   1.845   6.015  13.801 -2.1899  2.3834  1.9767
 4450TIP3    H234842   1.864   5.890  13.885  0.9631 -0.7910 -3.1813
 4451TIP3   OH234843   2.558   6.281   4.588 -0.0863 -0.3649  0.0374
 4451TIP3    H134844   2.558   6.356   4.648  2.0352  0.2117 -0.6241
 4451TIP3    H234845   2.483   6.228   4.615 -1.7435  2.0710  0.4335
 4452TIP3   OH234846   2.954   5.392  13.672  0.1354 -0.5023  0.6804
 4452TIP3    H134847   2.940   5.477  13.631 -0.9382 -0.8021  0.4083
 4452TIP3    H234848   2.873   5.374  13.720  0.8986 -0.7322  1.8975
 4453TIP3   OH234849   5.241   5.377  12.749 -0.3013  0.2268 -0.2323
 4453TIP3    H134850   5.299   5.317  12.796  1.4828  1.8735 -0.2585
 4453TIP3    H234851   5.266   5.464  12.780  0.1522  1.2728 -3.3504
 4454TIP3   OH234852   6.194   3.405   3.957  0.0630  0.4538 -0.0014
 4454TIP3    H134853   6.182   3.321   4.000  0.6952 -0.7437 -2.1253
 4454TIP3    H234854   6.200   3.468   4.030  0.7881 -1.4612  1.6400
 4455TIP3   OH234855   5.291   1.840  12.620  0.9119 -0.1732  0.3260
 4455TIP3    H134856   5.239   1.792  12.685  1.7061 -1.3795  0.0830
 4455TIP3    H234857   5.381   1.813  12.637  1.0177 -1.3910 -2.0111
 4456TIP3   OH234858   1.715   1.946  11.320  0.0270 -0.0064 -0.8946
 4456TIP3    H134859   1.664   1.951  11.401 -0.2553 -2.5787 -0.8802
 4456TIP3    H234860   1.800   1.912  11.347 -0.3584 -1.7232 -1.7768
 4457TIP3   OH234861   6.126   4.429  11.327 -1.0397 -0.2639 -0.6159
 4457TIP3    H134862   6.044   4.418  11.376 -0.9427  1.5739  0.0041
 4457TIP3    H234863   6.178   4.488  11.381 -0.0683  0.0980 -1.9218
 4458TIP3   OH234864   5.372   2.493   5.181  0.2791 -0.6066  1.0984
 4458TIP3    H134865   5.436   2.480   5.111 -0.0607 -0.4717  0.7644
 4458TIP3    H234866   5.297   2.533   5.138 -0.0247 -0.7467  1.4952
 4459TIP3   OH234867   5.501   3.602   4.235 -0.5594  0.2442  0.4446
 4459TIP3    H134868   5.571   3.572   4.292 -1.7618 -1.5782  0.9888
 4459TIP3    H234869   5.449   3.524   4.217 -0.7471  0.9500 -2.3951
 4460TIP3   OH234870   0.508   5.285   4.670 -0.3224 -0.2724 -0.2589
 4460TIP3    H134871   0.505   5.373   4.707 -1.4419 -1.1707  1.9025
 4460TIP3    H234872   0.514   5.298   4.576 -1.9509  2.1303 -0.0613
 4461TIP3   OH234873   0.575   5.255   6.078 -0.4362  0.6411  0.1509
 4461TIP3    H134874   0.661   5.287   6.103  1.0807 -1.2858 -2.3158
 4461TIP3    H234875   0.522   5.263   6.157  2.2114  1.1119  1.9406
 4462TIP3   OH234876   6.133   2.468   0.319  0.5672 -0.1709 -0.1660
 4462TIP3    H134877   6.133   2.501   0.229 -1.8930  0.2163 -0.0842
 4462TIP3    H234878   6.127   2.373   0.309  2.3592 -0.2633 -0.4058
 4463TIP3   OH234879   3.730   3.379   2.665 -0.8859  0.2413  0.4441
 4463TIP3    H134880   3.770   3.439   2.602  0.4434 -0.4388  0.6184
 4463TIP3    H234881   3.790   3.379   2.739 -1.6986 -0.0800  1.1065
 4464TIP3   OH234882   3.863   5.645  13.883  0.4707 -0.5386 -0.3471
 4464TIP3    H134883   3.902   5.715  13.936 -1.2279  0.7506 -0.7722
 4464TIP3    H234884   3.872   5.676  13.793  0.3968 -1.2135 -0.5828
 4465TIP3   OH234885   5.407   0.747  14.139 -0.3543  0.2659  0.0418
 4465TIP3    H134886   5.318   0.779  14.151 -0.7535 -0.6902 -0.3144
 4465TIP3    H234887   5.441   0.797  14.065 -1.1807 -0.5629 -0.9002
 4466TIP3   OH234888   1.315   2.208  15.611 -0.5048 -0.1032 -0.3109
 4466TIP3    H134889   1.311   2.145  15.539  1.0839 -0.6171  0.0382
 4466TIP3    H234890   1.384   2.269  15.586  1.1475 -1.1897  1.4757
 4467TIP3   OH234891   6.659   5.503  13.709 -0.4342 -0.0870 -0.6560
 4467TIP3    H134892   6.725   5.566  13.740  0.0793 -0.6128 -0.6717
 4467TIP3    H234893   6.710   5.434  13.666 -0.8750 -1.3371  0.7865
 4468TIP3   OH234894   2.713   5.858  15.997  0.0129  0.0268 -0.1072
 4468TIP3    H134895   2.774   5.813  15.939 -0.9200  0.7966 -1.7308
 4468TIP3    H234896   2.729   5.951  15.981 -0.6756  0.2418  0.4290
 4469TIP3   OH234897   1.946   1.297  11.671  0.3562 -0.0364 -0.0112
 4469TIP3    H134898   2.008   1.252  11.614 -0.2447  1.2865 -1.7682
 4469TIP3    H234899   1.975   1.388  11.671  1.5337 -0.3438  3.4579
 4470TIP3   OH234900   3.653   6.678  15.692  0.1101 -0.4069 -0.2221
 4470TIP3    H134901   3.585   6.700  15.756  1.7109 -0.3032  1.5162
 4470TIP3    H234902   3.646   6.744  15.624 -0.3848  0.6430  0.8460
 4471TIP3   OH234903   5.163   3.660   2.058 -0.0913 -0.0170 -0.3262
 4471TIP3    H134904   5.095   3.689   2.119 -0.0452 -2.0115  0.7253
 4471TIP3    H234905   5.130   3.686   1.972 -1.7880 -0.1661  0.2543
 4472TIP3   OH234906   2.132   0.157  13.369 -0.0611 -0.0717 -0.2527
 4472TIP3    H134907   2.144   0.245  13.404 -1.3265 -0.3576  0.9558
 4472TIP3    H234908   2.048   0.161  13.322 -0.6507 -0.8868  0.6982
 4473TIP3   OH234909   3.044   3.779   2.061 -0.3340 -0.2268  0.7964
 4473TIP3    H134910   2.950   3.766   2.053  0.1269 -3.9626  0.6351
 4473TIP3    H234911   3.063   3.758   2.152  0.1627  2.2070  1.2980
 4474TIP3   OH234912   0.087   1.368  14.007 -0.4157 -0.4536  0.1458
 4474TIP3    H134913   0.156   1.322  14.055  0.7982  1.4389  0.2360
 4474TIP3    H234914   0.019   1.383  14.072  0.1387 -0.1558  0.6676
 4475TIP3   OH234915   6.332   0.853   0.194 -0.2514  0.1867  0.2956
 4475TIP3    H134916   6.404   0.911   0.222 -0.2086 -0.4386  1.5080
 4475TIP3    H234917   6.287   0.830   0.276 -2.4052  1.2958 -0.5324
 4476TIP3   OH234918   5.731   3.077   5.919 -0.6743  0.1934  0.4686
 4476TIP3    H134919   5.721   3.084   5.824  0.3998  0.5061  0.3737
 4476TIP3    H234920   5.666   3.138   5.954 -1.9362 -0.8423 -0.0307
 4477TIP3   OH234921   2.013   1.870   2.188 -0.0539  0.1801  0.6940
 4477TIP3    H134922   1.950   1.809   2.227  0.0111  0.3565  1.0841
 4477TIP3    H234923   2.080   1.815   2.150 -0.7297 -0.0261 -0.2067
 4478TIP3   OH234924   5.298   5.777  12.452 -0.0858 -0.2704 -0.1508
 4478TIP3    H134925   5.334   5.705  12.401  0.7150 -0.7586  1.0766
 4478TIP3    H234926   5.366   5.845  12.451  0.2023 -0.5283  0.7654
 4479TIP3   OH234927   3.530   4.133  17.015  0.3473  0.0465 -0.1385
 4479TIP3    H134928   3.460   4.091  16.965  2.3010 -0.9161 -2.1377
 4479TIP3    H234929   3.531   4.223  16.982  1.3113 -0.4567 -1.5219
 4480TIP3   OH234930   5.944   6.440   2.826  0.1364 -0.3803  0.2825
 4480TIP3    H134931   6.009   6.490   2.875 -0.8269 -0.3541  1.5767
 4480TIP3    H234932   5.920   6.497   2.753 -0.6328  0.8834  1.4976
 4481TIP3   OH234933   2.599   5.974   1.995  0.9181 -0.2818  0.0930
 4481TIP3    H134934   2.554   5.980   2.079  1.8237 -0.3320  0.5873
 4481TIP3    H234935   2.529   5.982   1.930  0.2357 -0.0520  0.8444
 4482TIP3   OH234936   6.004   1.327  13.077  0.3410  0.2554  0.0662
 4482TIP3    H134937   6.035   1.301  12.990 -2.0254 -0.2259 -0.6747
 4482TIP3    H234938   6.083   1.336  13.129  1.6672 -1.6484 -1.5519
 4483TIP3   OH234939   3.876   6.557  17.116  0.0743 -0.3903 -0.1077
 4483TIP3    H134940   3.948   6.620  17.123 -0.2645  0.1687 -1.4214
 4483TIP3    H234941   3.844   6.567  17.026 -1.6144 -0.6435  0.4348
 4484TIP3   OH234942   0.904   5.510  16.945 -0.3570 -0.0026  0.4766
 4484TIP3    H134943   0.917   5.445  16.876  0.2276  0.7419 -0.1261
 4484TIP3    H234944   0.976   5.572  16.934 -1.4110  1.2559  0.4457
 4485TIP3   OH234945   6.395   4.800   4.859 -0.3841  0.2267 -0.0298
 4485TIP3    H134946   6.441   4.865   4.912 -1.1217  0.4492  0.3456
 4485TIP3    H234947   6.463   4.740   4.830  0.1635  0.6333  0.4081
 4486TIP3   OH234948   6.786   3.336  14.473  0.0064 -0.0142 -0.0540
 4486TIP3    H134949   6.710   3.297  14.430  0.7842 -0.3681 -1.1515
 4486TIP3    H234950   6.843   3.261  14.491  1.0345  0.4759 -1.2002
 4487TIP3   OH234951   1.434   0.287  15.276 -0.0858 -0.2651 -0.2883
 4487TIP3    H134952   1.465   0.198  15.291  1.7650  0.3977  0.0384
 4487TIP3    H234953   1.451   0.332  15.359 -0.3245  0.5684 -0.6885
 4488TIP3   OH234954   1.963   4.023   2.012 -0.5195 -0.9484 -0.4525
 4488TIP3    H134955   1.938   4.013   2.104 -0.2276 -0.1266 -0.2804
 4488TIP3    H234956   1.893   4.076   1.975 -0.0955 -0.3967 -0.4601
 4489TIP3   OH234957   2.018   6.577   1.129 -0.0351 -0.7951  0.2127
 4489TIP3    H134958   2.065   6.510   1.078  0.6754 -1.3029  1.5032
 4489TIP3    H234959   2.031   6.658   1.079 -0.7861 -1.5722 -1.2979
 4490TIP3   OH234960   3.460   4.225   2.729 -0.1152 -0.0216  0.5638
 4490TIP3    H134961   3.537   4.219   2.672 -2.0713  0.9266 -2.3102
 4490TIP3    H234962   3.488   4.185   2.811  3.1909 -0.4012 -0.6471
 4491TIP3   OH234963   1.212   2.316  11.541  0.4076  0.1386 -0.3873
 4491TIP3    H134964   1.288   2.276  11.582  1.6853 -0.3307 -3.1039
 4491TIP3    H234965   1.180   2.250  11.480 -1.3241  0.8799 -0.3033
 4492TIP3   OH234966   4.924   3.725  11.416 -0.1352  0.0202 -0.0818
 4492TIP3    H134967   4.833   3.704  11.394 -0.4484 -0.9406  2.0225
 4492TIP3    H234968   4.949   3.792  11.352 -3.0569  1.9225  0.6583
 4493TIP3   OH234969   1.166   1.437   4.270 -0.1177  0.0314 -0.0867
 4493TIP3    H134970   1.133   1.350   4.251  1.2516 -0.6145  0.4006
 4493TIP3    H234971   1.134   1.492   4.198 -1.7185 -0.6802  0.0799
 4494TIP3   OH234972   0.021   3.558  13.716  0.2977 -0.0163  0.3333
 4494TIP3    H134973   0.101   3.519  13.752 -0.4655 -2.6641 -0.6933
 4494TIP3    H234974   0.052   3.624  13.654  1.7024 -1.1435 -0.1878
 4495TIP3   OH234975   2.795   1.505   4.897 -0.0335 -0.5000 -0.4842
 4495TIP3    H134976   2.741   1.496   4.976  0.5332 -1.7861 -0.2152
 4495TIP3    H234977   2.841   1.421   4.891 -1.2658 -1.0255 -3.0983
 4496TIP3   OH234978   4.166   6.188  15.921  0.7854 -0.1825  0.1759
 4496TIP3    H134979   4.161   6.264  15.980 -1.4099  0.3023 -0.5604
 4496TIP3    H234980   4.244   6.141  15.948  0.9089  1.1148  2.1689
 4497TIP3   OH234981   3.901   2.909  14.494  0.0810 -0.5035  0.3587
 4497TIP3    H134982   3.945   2.993  14.478  0.8036 -1.0745 -0.7095
 4497TIP3    H234983   3.817   2.934  14.532  1.0339  0.6348  1.8062
 4498TIP3   OH234984   2.610   5.520  12.909 -0.1060  0.3858 -0.3661
 4498TIP3    H134985   2.568   5.588  12.961  0.0882 -0.7892  1.3807
 4498TIP3    H234986   2.702   5.546  12.905 -0.0969  0.4107  0.0095
 4499TIP3   OH234987   0.493   6.654   6.098 -0.2702  0.3119  0.7469
 4499TIP3    H134988   0.577   6.662   6.143  0.4114  0.4766 -0.5541
 4499TIP3    H234989   0.483   6.560   6.084 -0.2495  0.3028  0.7928
 4500TIP3   OH234990   2.824   3.299  13.423  0.4482  0.3897 -0.6157
 4500TIP3    H134991   2.817   3.235  13.352 -0.8016  0.3696 -0.4807
 4500TIP3    H234992   2.896   3.356  13.396  2.0403 -1.4561 -0.4259
 4501TIP3   OH234993   2.264   2.328   2.759 -0.1032  0.2091 -0.1901
 4501TIP3    H134994   2.201   2.298   2.694 -0.6253  1.0338 -0.0593
 4501TIP3    H234995   2.276   2.421   2.741  0.4625  0.2376  0.3019
 4502TIP3   OH234996   5.241   3.093  14.017 -0.2305 -0.1894  0.2228
 4502TIP3    H134997   5.264   3.001  14.018  0.1389 -0.0940  0.9133
 4502TIP3    H234998   5.248   3.119  13.925 -1.2245 -1.0643 -0.0960
 4503TIP3   OH234999   4.327   3.819   2.046  0.1757  0.7987 -1.0185
 4503TIP3    H135000   4.299   3.728   2.044  0.4242  0.7302 -1.9468
 4503TIP3    H235001   4.323   3.844   2.138  1.6811 -0.6329 -0.5371
 4504TIP3   OH235002   1.780   6.213   5.407  0.7934  0.2307 -0.0702
 4504TIP3    H135003   1.734   6.130   5.392 -0.7965  1.3230 -1.2482
 4504TIP3    H235004   1.746   6.244   5.491 -0.0757  0.6539 -0.5708
 4505TIP3   OH235005   1.610   4.303   3.275  0.1920 -0.1997  0.5384
 4505TIP3    H135006   1.688   4.308   3.329  2.2246  0.0911 -2.3226
 4505TIP3    H235007   1.598   4.210   3.258 -0.9823 -0.3717  2.1655
 4506TIP3   OH235008   4.622   4.212  11.857 -0.0770 -0.0645 -0.5804
 4506TIP3    H135009   4.569   4.205  11.936  0.5175 -0.0320 -0.1697
 4506TIP3    H235010   4.560   4.205  11.784 -0.3304 -2.6957 -0.1544
 4507TIP3   OH235011   0.324   3.993   1.563  0.2201 -0.2909 -0.0847
 4507TIP3    H135012   0.238   4.020   1.528 -0.7162 -0.4859  1.9908
 4507TIP3    H235013   0.309   3.904   1.595  1.0648 -0.1252  0.7653
 4508TIP3   OH235014   6.068   1.968  14.983 -0.2935 -0.0517  0.2276
 4508TIP3    H135015   6.155   1.930  15.000  0.6935  1.1613 -1.8923
 4508TIP3    H235016   6.028   1.909  14.920 -0.9244 -0.4973  1.0486
 4509TIP3   OH235017   4.919   5.830   2.769 -0.0932  0.0748 -0.2846
 4509TIP3    H135018   4.971   5.751   2.753  0.0766 -0.0124  0.6441
 4509TIP3    H235019   4.907   5.832   2.864  1.5503  2.2088 -0.0837
 4510TIP3   OH235020   0.162   3.617   5.673  0.2476  0.4510  0.1016
 4510TIP3    H135021   0.166   3.525   5.646 -0.6852  0.0221  1.3898
 4510TIP3    H235022   0.083   3.623   5.726 -0.6882  2.4081 -1.4456
 4511TIP3   OH235023   2.363   0.548  16.052 -0.1154  0.1776 -0.4778
 4511TIP3    H135024   2.379   0.461  16.089  1.6355  1.0019  0.7395
 4511TIP3    H235025   2.426   0.555  15.980 -1.5416 -0.2889 -1.7866
 4512TIP3   OH235026   4.309   6.118  13.560 -0.2283 -0.5202  0.3516
 4512TIP3    H135027   4.279   6.206  13.583 -2.4543 -1.3163  0.5786
 4512TIP3    H235028   4.261   6.096  13.481 -0.0088 -1.7173  0.5448
 4513TIP3   OH235029   5.926   1.991   2.225  0.4028 -0.0686 -0.1235
 4513TIP3    H135030   5.990   2.032   2.283  0.5659  0.1411 -0.4507
 4513TIP3    H235031   5.977   1.953   2.154  0.3331 -1.7424  0.7014
 4514TIP3   OH235032   6.188   1.263   5.634  0.1293 -0.8893 -0.1628
 4514TIP3    H135033   6.284   1.261   5.630  0.3106  1.8502  1.3952
 4514TIP3    H235034   6.168   1.254   5.727 -0.9189  2.2570 -0.0216
 4515TIP3   OH235035   5.706   6.031  15.202  0.3026 -0.3723 -0.1188
 4515TIP3    H135036   5.651   6.108  15.219  0.4256 -0.2813 -0.1412
 4515TIP3    H235037   5.772   6.033  15.271 -1.5205 -2.1656  1.7851
 4516TIP3   OH235038   6.146   5.614  15.510 -0.5713  0.8686 -0.1533
 4516TIP3    H135039   6.138   5.521  15.529  1.4427  0.7696  0.2530
 4516TIP3    H235040   6.116   5.622  15.419  3.7809 -0.9767 -1.9039
 4517TIP3   OH235041   5.760   2.444   0.278 -0.4412  0.0331  0.5044
 4517TIP3    H135042   5.789   2.527   0.317  4.0982 -1.0829 -0.2576
 4517TIP3    H235043   5.766   2.381   0.350  0.2515 -0.4648  0.0138
 4518TIP3   OH235044   3.544   4.735   1.729 -0.2930  0.3099  0.0828
 4518TIP3    H135045   3.548   4.682   1.650  0.1662 -0.9634  0.9445
 4518TIP3    H235046   3.623   4.712   1.777 -1.5763 -0.4728  1.8761
 4519TIP3   OH235047   3.867   0.582   4.058 -0.5965 -0.1974 -0.1239
 4519TIP3    H135048   3.775   0.554   4.053 -0.2316 -0.9984 -2.9989
 4519TIP3    H235049   3.862   0.673   4.086 -2.2681 -0.2559 -0.1644
 4520TIP3   OH235050   1.501   1.279   1.403 -0.4456 -0.2987  0.1141
 4520TIP3    H135051   1.565   1.270   1.473 -0.8139  1.6334  0.7323
 4520TIP3    H235052   1.547   1.248   1.324  1.0825  0.5709  0.6348
 4521TIP3   OH235053   5.882   0.248   6.016 -0.4345  0.2313  0.2789
 4521TIP3    H135054   5.868   0.231   5.923  0.4370  1.4813 -0.0935
 4521TIP3    H235055   5.977   0.240   6.027 -0.6826 -1.3121  1.3499
 4522TIP3   OH235056   3.832   5.865   4.831  0.2013 -0.8550  0.2740
 4522TIP3    H135057   3.813   5.938   4.773  1.3466  0.0949  1.0826
 4522TIP3    H235058   3.746   5.830   4.855 -0.3129 -0.5086 -1.0195
 4523TIP3   OH235059   3.894   3.851   3.060 -0.5173  0.3829  0.2996
 4523TIP3    H135060   3.971   3.893   3.097  0.6355  0.2640 -1.8929
 4523TIP3    H235061   3.877   3.776   3.117 -0.2691  1.6081  1.9912
 4524TIP3   OH235062   6.007   0.039  10.688  0.5411 -0.1041  0.0422
 4524TIP3    H135063   5.958   0.121  10.692  0.8335 -0.0039  2.0057
 4524TIP3    H235064   6.099   0.065  10.691  0.7155 -0.3581 -2.4024
 4525TIP3   OH235065   2.996   4.489  11.529  0.0898 -0.3321  0.1599
 4525TIP3    H135066   2.989   4.570  11.578  0.2660  0.1155 -0.5472
 4525TIP3    H235067   2.980   4.514  11.438 -1.5891 -1.3668  0.1378
 4526TIP3   OH235068   1.030   1.095  16.142 -0.4977 -0.0968  0.2485
 4526TIP3    H135069   1.119   1.078  16.111 -0.2894  2.0821 -0.4297
 4526TIP3    H235070   0.978   1.024  16.107  0.5439 -0.0654 -1.4001
 4527TIP3   OH235071   0.555   5.417  15.226 -0.4102  0.1154 -0.3728
 4527TIP3    H135072   0.631   5.430  15.170 -1.5451 -1.8334 -2.4453
 4527TIP3    H235073   0.494   5.486  15.201 -0.6578 -0.3610 -1.0921
 4528TIP3   OH235074   3.963   6.770  14.083 -0.1681  0.2706 -0.6075
 4528TIP3    H135075   3.932   6.732  14.002 -0.4871  0.8142 -0.7393
 4528TIP3    H235076   4.059   6.771  14.074 -0.1473 -0.7044 -0.5048
 4529TIP3   OH235077   5.146   3.206   0.555 -0.0506 -0.3430  0.2367
 4529TIP3    H135078   5.053   3.186   0.561 -0.1432 -0.2235 -0.8391
 4529TIP3    H235079   5.172   3.177   0.467  1.3937 -2.3534  1.2586
 4530TIP3   OH235080   5.242   2.382  11.447  0.1217  0.1412  0.3623
 4530TIP3    H135081   5.213   2.443  11.379 -0.9187 -1.4679 -0.6709
 4530TIP3    H235082   5.171   2.383  11.512 -0.2399 -0.5084 -0.0175
 4531TIP3   OH235083   2.083   6.264  15.636  0.5871 -0.8702  0.1527
 4531TIP3    H135084   2.109   6.196  15.698  1.2387 -0.3060  0.5061
 4531TIP3    H235085   2.006   6.304  15.675  0.7866 -0.7529  0.4256
 4532TIP3   OH235086   1.275   5.353  13.518  0.2607  0.0571 -0.1668
 4532TIP3    H135087   1.204   5.405  13.479 -0.9276 -1.8686 -0.6491
 4532TIP3    H235088   1.260   5.361  13.612 -1.1687 -1.0577 -0.2744
 4533TIP3   OH235089   2.315   0.049   3.065  0.0201 -0.0507  0.2009
 4533TIP3    H135090   2.313  -0.014   2.993 -0.5445 -0.8602  0.9183
 4533TIP3    H235091   2.226   0.051   3.099  0.3859 -0.0636  1.2039
 4534TIP3   OH235092   4.107   6.677   6.055  0.0806 -0.0411 -0.2616
 4534TIP3    H135093   4.123   6.624   5.977 -2.3496  1.0637 -1.5927
 4534TIP3    H235094   4.042   6.627   6.105 -0.2593  0.4276 -0.2283
 4535TIP3   OH235095   1.058   1.722   1.538 -0.6961  0.0706 -0.0935
 4535TIP3    H135096   1.075   1.785   1.608 -1.8391 -1.0781  1.2689
 4535TIP3    H235097   1.003   1.655   1.579 -1.9652 -0.2817 -2.2728
 4536TIP3   OH235098   3.968   0.997  11.822 -0.0578  0.1085  0.4041
 4536TIP3    H135099   3.908   0.924  11.807  0.2490 -0.3426  1.3115
 4536TIP3    H235100   3.958   1.052  11.745 -0.7486 -0.5782 -0.0117
 4537TIP3   OH235101   4.649   6.483   2.384 -0.6945 -0.8688  0.3637
 4537TIP3    H135102   4.726   6.539   2.390 -1.2502  0.1626 -1.7496
 4537TIP3    H235103   4.608   6.489   2.470 -1.0422  2.4207  0.0133
 4538TIP3   OH235104   4.180   1.018   0.118  0.6589  0.0014  0.2550
 4538TIP3    H135105   4.166   0.923   0.114  1.2829 -0.1139  0.6687
 4538TIP3    H235106   4.262   1.032   0.070 -0.1302  0.4901 -0.9463
 4539TIP3   OH235107   2.648   5.621  14.901  0.2660 -0.1503 -0.3239
 4539TIP3    H135108   2.721   5.683  14.909  0.5489 -0.6483  1.1136
 4539TIP3    H235109   2.626   5.621  14.807  0.1500  2.2209 -0.3124
 4540TIP3   OH235110   1.407   5.531   2.278 -0.3972 -0.0693  0.2629
 4540TIP3    H135111   1.499   5.510   2.295 -0.2286  0.5469  0.1328
 4540TIP3    H235112   1.363   5.519   2.362  0.0545  0.9417  0.6493
 4541TIP3   OH235113   4.090   2.540   5.190  0.2165 -0.3422 -0.3410
 4541TIP3    H135114   4.098   2.491   5.108 -0.8110 -0.2346 -0.5185
 4541TIP3    H235115   4.019   2.603   5.173 -1.4416 -1.7056  1.3082
 4542TIP3   OH235116   5.105   2.136  11.371 -0.3542 -0.2760  0.0633
 4542TIP3    H135117   5.167   2.204  11.397 -1.9925  0.8391  1.1311
 4542TIP3    H235118   5.042   2.181  11.314 -0.0728 -1.4409 -1.1832
 4543TIP3   OH235119   0.706   4.441   4.818 -0.4152  0.0048 -0.0314
 4543TIP3    H135120   0.800   4.450   4.831 -0.6467  1.6737  0.7578
 4543TIP3    H235121   0.697   4.392   4.737  1.1317 -0.6159  0.1523
 4544TIP3   OH235122   2.731   4.080  15.488  0.3856  0.1707 -0.2205
 4544TIP3    H135123   2.822   4.062  15.510 -0.0737 -2.1565 -0.0802
 4544TIP3    H235124   2.697   4.128  15.564  0.8095 -1.2396  0.8766
 4545TIP3   OH235125   2.760   1.740   0.175  0.6859  0.8609 -0.6897
 4545TIP3    H135126   2.780   1.668   0.115 -1.1490 -0.2526 -0.0259
 4545TIP3    H235127   2.733   1.812   0.119 -0.9233 -0.1398 -1.2186
 4546TIP3   OH235128   2.254   4.557   1.700 -0.1207  0.2110 -0.1304
 4546TIP3    H135129   2.332   4.506   1.724 -0.1032  0.7004  0.8631
 4546TIP3    H235130   2.227   4.520   1.616 -0.6930 -2.1286  1.0358
 4547TIP3   OH235131   4.005   6.373   3.938 -0.0415  0.2709 -0.0165
 4547TIP3    H135132   4.081   6.428   3.958 -0.2714 -0.1899  2.2235
 4547TIP3    H235133   4.039   6.284   3.937 -0.5247  0.0690  0.9185
 4548TIP3   OH235134   1.507   1.237   1.942 -0.0902 -0.3426  0.0751
 4548TIP3    H135135   1.559   1.157   1.948  1.4688  0.7800  1.9273
 4548TIP3    H235136   1.453   1.236   2.021 -1.4834 -0.5232 -0.8703
 4549TIP3   OH235137   2.130   0.296   1.681 -0.7751 -0.1812  0.2120
 4549TIP3    H135138   2.110   0.390   1.675  0.3256  0.1344  1.1554
 4549TIP3    H235139   2.144   0.268   1.591 -0.3165  0.7511 -0.0123
 4550TIP3   OH235140   2.264   4.228   3.226 -0.3448 -0.2897  0.1709
 4550TIP3    H135141   2.351   4.268   3.224 -1.9421  3.3471 -1.2781
 4550TIP3    H235142   2.250   4.198   3.136 -0.9408 -0.0549  0.1862
 4551TIP3   OH235143   4.567   6.472   0.593  0.5903  0.2177 -0.2144
 4551TIP3    H135144   4.583   6.380   0.574  0.9613  0.2549 -0.0775
 4551TIP3    H235145   4.472   6.483   0.580  0.6859  0.0234 -1.0859
 4552TIP3   OH235146   6.040   3.981  10.821  0.2358  0.5940  0.0282
 4552TIP3    H135147   6.101   3.907  10.818 -1.7360 -1.0947  0.0479
 4552TIP3    H235148   6.082   4.050  10.770  1.5289 -1.0006 -1.0854
 4553TIP3   OH235149   4.402   1.645   2.949  0.6698 -0.1158 -0.0606
 4553TIP3    H135150   4.419   1.597   2.867 -1.3275 -1.2942  0.1877
 4553TIP3    H235151   4.379   1.577   3.012 -2.5054  1.1447  0.2386
 4554TIP3   OH235152   5.991   3.603   1.032  0.2123 -0.4741  0.2012
 4554TIP3    H135153   5.985   3.519   0.987 -1.1284 -0.7605  0.8886
 4554TIP3    H235154   6.026   3.663   0.966 -0.7918 -1.1061 -0.9220
 4555TIP3   OH235155   2.193   3.159   5.136  0.0046 -0.0245 -0.3828
 4555TIP3    H135156   2.259   3.212   5.182  0.5911  0.2386 -1.5302
 4555TIP3    H235157   2.240   3.117   5.065 -0.5867 -1.6461  0.1597
 4556TIP3   OH235158   6.807   1.558  16.681 -0.2207 -0.0875  0.6608
 4556TIP3    H135159   6.794   1.465  16.658 -0.3538  0.2025 -0.4901
 4556TIP3    H235160   6.813   1.559  16.776  0.7949 -1.4157  0.6297
 4557TIP3   OH235161   2.888   0.512  12.766  0.2934  0.1367  0.6617
 4557TIP3    H135162   2.889   0.504  12.862 -0.3521 -2.4716  0.5006
 4557TIP3    H235163   2.805   0.473  12.740  0.3208  1.1150 -0.9643
 4558TIP3   OH235164   4.361   3.673  13.769 -0.1555  0.3558 -0.1636
 4558TIP3    H135165   4.451   3.648  13.790 -0.4954  0.1705  1.1365
 4558TIP3    H235166   4.351   3.650  13.677  1.1484  0.4386 -0.3357
 4559TIP3   OH235167   3.182   6.793   5.523  0.2937 -0.1900  0.3281
 4559TIP3    H135168   3.154   6.874   5.481 -1.0430 -0.5358  0.5371
 4559TIP3    H235169   3.102   6.742   5.534  1.0540 -1.3489  0.6225
 4560TIP3   OH235170   3.441   0.499  16.920 -0.7382  0.3076  0.3953
 4560TIP3    H135171   3.382   0.433  16.956 -0.7654 -0.7169 -1.4536
 4560TIP3    H235172   3.413   0.509  16.829 -0.3998  2.5174  0.5047
 4561TIP3   OH235173   1.687   3.719  13.752  0.1608  0.0264  0.6701
 4561TIP3    H135174   1.671   3.797  13.804  0.1113 -0.2345  1.0527
 4561TIP3    H235175   1.617   3.658  13.778  0.3097 -0.2106  0.5216
 4562TIP3   OH235176   2.835   6.688  15.575 -0.1814 -0.2341 -0.4219
 4562TIP3    H135177   2.786   6.616  15.613  0.0096 -0.4965 -0.6670
 4562TIP3    H235178   2.800   6.767  15.617 -1.0745 -0.3864 -0.8737
 4563TIP3   OH235179   5.840   3.824  14.973 -0.3980 -0.6222 -1.0954
 4563TIP3    H135180   5.793   3.837  14.891 -0.3855 -2.5143 -1.4275
 4563TIP3    H235181   5.932   3.823  14.948 -0.3073  0.3763 -0.8266
 4564TIP3   OH235182   1.964   5.483  16.140  0.0470 -0.3304 -0.1553
 4564TIP3    H135183   1.988   5.443  16.056  3.1437  0.8800  0.1099
 4564TIP3    H235184   1.919   5.564  16.116  1.5450  0.3605 -0.6589
 4565TIP3   OH235185   4.653   2.214  11.997 -0.3006  0.3320 -0.5488
 4565TIP3    H135186   4.673   2.135  11.947 -1.4274 -0.4500  0.2302
 4565TIP3    H235187   4.697   2.200  12.081 -0.6148  0.4774 -0.3622
 4566TIP3   OH235188   6.522   1.030  12.994 -0.7382 -0.2829 -0.3648
 4566TIP3    H135189   6.509   0.946  12.952 -1.0123 -0.4460  0.0378
 4566TIP3    H235190   6.558   1.086  12.926  1.9341 -1.4450  0.0255
 4567TIP3   OH235191   4.171   3.582  11.968 -0.2101 -0.3525 -0.4499
 4567TIP3    H135192   4.119   3.648  12.013  0.5815  0.4560 -0.7013
 4567TIP3    H235193   4.196   3.623  11.885 -2.0792 -2.0297 -1.8650
 4568TIP3   OH235194   1.169   4.437   0.996 -0.0518  0.6761 -0.2263
 4568TIP3    H135195   1.158   4.489   0.917  1.4909  1.5451  0.1092
 4568TIP3    H235196   1.264   4.421   1.001 -0.4143 -1.5869  0.0348
 4569TIP3   OH235197   2.712   1.194  16.994 -1.0168 -1.0142  0.3919
 4569TIP3    H135198   2.758   1.259  16.941 -2.9203  1.3559  1.5173
 4569TIP3    H235199   2.690   1.124  16.933  2.6761 -1.5200 -0.4785
 4570TIP3   OH235200   6.086   4.008   0.176  0.0270 -0.2343 -1.1802
 4570TIP3    H135201   6.042   4.074   0.230  1.5980  1.5564 -1.9917
 4570TIP3    H235202   6.022   3.938   0.166 -0.7769 -0.0345  1.8930
 4571TIP3   OH235203   6.753   5.521   1.922  0.5886  0.0166 -0.1435
 4571TIP3    H135204   6.782   5.493   1.836  1.1671  0.3545 -0.0617
 4571TIP3    H235205   6.815   5.481   1.983  1.0703  0.9699  0.0099
 4572TIP3   OH235206   6.003   2.904   3.283  0.0977 -0.0474  0.5177
 4572TIP3    H135207   5.954   2.871   3.359  0.1619  0.0558  0.6036
 4572TIP3    H235208   6.033   2.825   3.239 -0.1526 -0.1130  0.4591
 4573TIP3   OH235209   3.944   3.631  17.093  0.3013  0.0233 -0.2790
 4573TIP3    H135210   3.862   3.593  17.060  0.3684  0.7977 -1.3948
 4573TIP3    H235211   3.949   3.716  17.050  2.2270 -0.4616 -1.0780
 4574TIP3   OH235212   0.843   5.669   4.149 -0.4743  0.1509 -0.6033
 4574TIP3    H135213   0.864   5.730   4.220 -0.2841  0.7421 -1.1590
 4574TIP3    H235214   0.914   5.606   4.149 -2.4907 -2.2426  2.3346
 4575TIP3   OH235215   0.275   0.301   3.162 -0.1014 -0.0748  0.0225
 4575TIP3    H135216   0.315   0.221   3.127  0.7699  0.9894 -1.4534
 4575TIP3    H235217   0.239   0.346   3.086 -0.9138  0.7740  0.8887
 4576TIP3   OH235218   4.221   3.818  12.634 -0.4050 -0.7547  0.2646
 4576TIP3    H135219   4.252   3.779  12.715 -0.5988 -0.9148  0.2635
 4576TIP3    H235220   4.186   3.744  12.584 -0.6393 -0.6001  0.2007
 4577TIP3   OH235221   1.446   4.311  14.225  0.0143  0.2102  0.0479
 4577TIP3    H135222   1.398   4.395  14.224  1.0280  0.8023  0.4939
 4577TIP3    H235223   1.486   4.305  14.139 -0.0248  0.2034  0.0302
 4578TIP3   OH235224   0.636   1.170   2.393  0.0225  0.3528  0.0953
 4578TIP3    H135225   0.691   1.103   2.352  0.7607 -0.1139  1.8283
 4578TIP3    H235226   0.696   1.222   2.446 -1.0304  0.5324  1.1324
 4579TIP3   OH235227   0.892   0.864  13.826  0.0668 -0.4097 -0.0894
 4579TIP3    H135228   0.827   0.920  13.784  0.7151 -0.2039 -0.8151
 4579TIP3    H235229   0.840   0.798  13.872 -0.6533 -0.7296 -1.3277
 4580TIP3   OH235230   1.277   4.345   5.984 -0.1682 -0.6110 -0.6770
 4580TIP3    H135231   1.249   4.417   6.040  2.0973 -0.4469  0.2898
 4580TIP3    H235232   1.288   4.385   5.898  0.7225  0.1397 -0.2263
 4581TIP3   OH235233   2.267   5.391  12.440 -0.2850 -0.3295  0.6921
 4581TIP3    H135234   2.246   5.312  12.391 -1.8309 -0.3099  1.2837
 4581TIP3    H235235   2.363   5.395  12.441 -0.2272 -1.3310 -0.6914
 4582TIP3   OH235236   3.837   5.665  14.203  0.7875 -0.0178 -0.5848
 4582TIP3    H135237   3.885   5.586  14.229  2.7116  1.0257 -0.8823
 4582TIP3    H235238   3.901   5.716  14.154 -0.6269  1.4552 -0.9097
 4583TIP3   OH235239   1.597   3.341  15.271 -0.3481  0.1621 -0.0896
 4583TIP3    H135240   1.501   3.339  15.268 -0.3017 -0.6689 -2.2530
 4583TIP3    H235241   1.622   3.250  15.289  0.0311  0.6867  2.1973
 4584TIP3   OH235242   6.723   4.798   0.786  0.0164 -0.1680 -0.0779
 4584TIP3    H135243   6.651   4.843   0.743  0.8339  1.3295  0.1041
 4584TIP3    H235244   6.787   4.866   0.805  1.4072 -1.4445 -0.0638
 4585TIP3   OH235245   4.317   1.599   0.269  0.3234 -0.2268  0.4494
 4585TIP3    H135246   4.234   1.588   0.316  0.3021 -0.9758  0.2466
 4585TIP3    H235247   4.384   1.583   0.335  0.2966 -3.2933 -0.1856
 4586TIP3   OH235248   0.142   5.989  15.567 -0.0120 -0.4391  0.1380
 4586TIP3    H135249   0.085   5.963  15.639  1.5050 -1.4680  0.9880
 4586TIP3    H235250   0.185   6.069  15.598  0.5130 -0.7880  0.3244
 4587TIP3   OH235251   2.484   6.683  10.342 -0.0204 -0.3129  0.1353
 4587TIP3    H135252   2.490   6.682  10.438  0.9924 -1.3292  0.0731
 4587TIP3    H235253   2.568   6.721  10.314 -0.7098  0.8908 -0.3295
 4588TIP3   OH235254   5.743   3.318  15.544  0.0393 -0.2437  0.5817
 4588TIP3    H135255   5.683   3.346  15.475  1.2398 -0.5607 -0.6127
 4588TIP3    H235256   5.804   3.391  15.553  0.6915 -0.7639  0.3692
 4589TIP3   OH235257   5.625   6.015  13.729  0.5376  0.1579 -0.1752
 4589TIP3    H135258   5.672   6.003  13.811  0.5525  1.4301  0.0196
 4589TIP3    H235259   5.693   6.021  13.662  0.7030  2.1192  0.1220
 4590TIP3   OH235260   0.852   3.802   2.980 -0.6106  0.0976  0.1403
 4590TIP3    H135261   0.898   3.845   3.053  0.8279 -2.5087  0.8159
 4590TIP3    H235262   0.770   3.770   3.019 -1.1536  1.1931 -0.0872
 4591TIP3   OH235263   6.355   5.853   6.446 -0.2129 -0.0737  0.0540
 4591TIP3    H135264   6.333   5.856   6.353  0.8537 -2.0754 -0.2897
 4591TIP3    H235265   6.447   5.880   6.450 -0.1641 -0.2902  0.4740
 4592TIP3   OH235266   6.444   4.179  11.120  0.1622  0.5717 -0.3212
 4592TIP3    H135267   6.350   4.162  11.128  0.2982  0.7529  1.8667
 4592TIP3    H235268   6.485   4.093  11.123  0.1847  0.6112  0.7811
 4593TIP3   OH235269   1.403   3.879  13.586 -0.1201 -0.4533  0.3487
 4593TIP3    H135270   1.375   3.833  13.508  1.2104 -1.0527  0.2145
 4593TIP3    H235271   1.498   3.883  13.579 -0.1467  1.5116  0.8094
 4594TIP3   OH235272   6.296   1.891   2.613 -0.0976  0.2764  0.6340
 4594TIP3    H135273   6.285   1.797   2.597 -0.3390  0.3762  0.2080
 4594TIP3    H235274   6.208   1.928   2.603  0.2523  0.7673 -0.7201
 4595TIP3   OH235275   0.819   0.301  11.140  0.0796 -0.4671  0.0957
 4595TIP3    H135276   0.895   0.267  11.094 -0.8153  1.2819 -2.7833
 4595TIP3    H235277   0.855   0.358  11.208  1.3485  0.9160 -1.7022
 4596TIP3   OH235278   1.952   2.825   4.695  0.0479 -0.0253 -0.4611
 4596TIP3    H135279   1.907   2.907   4.674 -1.2631 -0.8505 -0.9098
 4596TIP3    H235280   2.017   2.850   4.760 -0.8990  1.2345  0.0255
 4597TIP3   OH235281   1.075   0.065   3.688  0.1794 -0.1778  0.6446
 4597TIP3    H135282   1.062   0.016   3.606 -1.8286 -1.1093  1.4887
 4597TIP3    H235283   1.139   0.133   3.665  0.4543 -1.0805 -1.4212
 4598TIP3   OH235284   1.838   3.528   6.102 -0.3669  0.1391 -0.2834
 4598TIP3    H135285   1.834   3.435   6.080 -1.0494 -0.3005  1.6137
 4598TIP3    H235286   1.748   3.558   6.096 -0.5000  0.1254  1.3123
 4599TIP3   OH235287   4.017   0.859  15.287  0.6605  0.2869 -0.1605
 4599TIP3    H135288   4.048   0.807  15.360 -1.5028  0.8275  1.1683
 4599TIP3    H235289   4.026   0.950  15.316 -3.0030  0.4516  0.6608
 4600TIP3   OH235290   6.725   4.762  11.868  0.4787  0.2827  0.0961
 4600TIP3    H135291   6.693   4.850  11.886  2.4230  1.5217 -2.1727
 4600TIP3    H235292   6.646   4.711  11.847 -0.4579  2.0462 -0.7324
 4601TIP3   OH235293   4.576   2.040   1.984  0.2484  0.4525 -0.0954
 4601TIP3    H135294   4.612   2.046   2.073  0.1806 -0.2837 -0.0198
 4601TIP3    H235295   4.652   2.038   1.927  0.2962  0.6479 -0.0391
 4602TIP3   OH235296   0.606   1.343   0.604  0.3226 -0.2195 -0.0837
 4602TIP3    H135297   0.588   1.306   0.690  0.9492 -0.6629 -0.1410
 4602TIP3    H235298   0.684   1.297   0.574  1.1661  1.2107 -0.1188
 4603TIP3   OH235299   3.101   4.481  12.885  0.2183  0.8342 -0.3744
 4603TIP3    H135300   3.133   4.391  12.897  1.9371  1.2637 -1.4657
 4603TIP3    H235301   3.174   4.535  12.915 -0.7740  1.8667  0.1739
 4604TIP3   OH235302   2.242   2.514  16.320 -0.8292  0.8984  0.7191
 4604TIP3    H135303   2.152   2.544  16.334 -2.1530 -2.3139 -0.2655
 4604TIP3    H235304   2.246   2.430  16.366  1.1412  0.1898 -0.6642
 4605TIP3   OH235305   0.064   4.043  14.367 -0.0640  0.2509  0.2876
 4605TIP3    H135306  -0.018   4.054  14.319 -0.4128  0.4278  0.9186
 4605TIP3    H235307   0.091   4.132  14.389  0.1690  0.1787  0.2911
 4606TIP3   OH235308   3.588   2.873   5.366 -0.0932  0.4475  0.2052
 4606TIP3    H135309   3.681   2.861   5.387 -0.0257  1.8018  0.7472
 4606TIP3    H235310   3.542   2.828   5.437  0.1188 -2.2698 -1.3164
 4607TIP3   OH235311   5.908   4.919   6.626 -0.4938 -0.4426 -0.0141
 4607TIP3    H135312   5.997   4.908   6.662 -0.9743  0.2135  1.4349
 4607TIP3    H235313   5.920   4.919   6.531  0.9346 -1.4122  0.1492
 4608TIP3   OH235314   3.724   1.638   2.763 -0.5774 -0.3237  0.2017
 4608TIP3    H135315   3.742   1.612   2.853  1.9670  0.1992 -0.0988
 4608TIP3    H235316   3.706   1.732   2.769  1.3576  0.0985  0.0176
 4609TIP3   OH235317   1.425   0.729   1.765 -0.8257 -0.6935 -0.2956
 4609TIP3    H135318   1.476   0.775   1.698 -1.4433  1.5971  0.7458
 4609TIP3    H235319   1.399   0.647   1.723 -0.0646  0.0868 -2.3801
 4610TIP3   OH235320   1.108   1.783   3.790 -0.7670  0.3900  0.3916
 4610TIP3    H135321   1.142   1.803   3.703 -1.9278 -0.3398 -0.2404
 4610TIP3    H235322   1.174   1.726   3.829 -1.3881 -1.3041 -0.9608
 4611TIP3   OH235323   4.116   0.119  11.797 -0.3171 -0.2143  0.0603
 4611TIP3    H135324   4.026   0.087  11.786  0.4539 -2.8456  1.1550
 4611TIP3    H235325   4.127   0.182  11.726 -3.0050  0.1168 -0.1371
 4612TIP3   OH235326   1.452   3.933   6.240 -0.1313  0.2576 -0.6539
 4612TIP3    H135327   1.522   3.998   6.233  0.1701  0.0464  0.3601
 4612TIP3    H235328   1.491   3.860   6.287 -0.9434  0.0162 -0.3423
 4613TIP3   OH235329   4.104   0.956  13.933 -0.1406 -0.0150 -0.7417
 4613TIP3    H135330   4.176   0.896  13.916  0.4380  0.6481 -0.6362
 4613TIP3    H235331   4.112   0.978  14.026  1.0046  1.9849 -1.2960
 4614TIP3   OH235332   4.841   0.341   2.070 -0.3284 -0.3093  0.8619
 4614TIP3    H135333   4.931   0.356   2.042 -0.3338 -1.9906 -0.1494
 4614TIP3    H235334   4.836   0.247   2.085 -1.8102 -0.1753  1.2799
 4615TIP3   OH235335   6.064   6.624   5.806 -0.2431 -0.0595 -0.2008
 4615TIP3    H135336   6.114   6.649   5.883 -0.9985  1.5258 -0.2009
 4615TIP3    H235337   6.114   6.659   5.732  0.1605 -1.0417 -0.4030
 4616TIP3   OH235338   1.708   2.615  12.046 -0.2170 -0.4275  0.4622
 4616TIP3    H135339   1.784   2.600  11.989 -1.2117  1.6633 -1.4865
 4616TIP3    H235340   1.739   2.681  12.109 -0.0583 -0.3986  0.3566
 4617TIP3   OH235341   5.086   6.228  16.743 -0.2325  0.6052 -0.1274
 4617TIP3    H135342   5.174   6.235  16.705  0.3027  0.1198  1.0046
 4617TIP3    H235343   5.073   6.134  16.755 -0.6670  0.7139  0.2643
 4618TIP3   OH235344   6.192   5.680  10.511 -0.0862  0.2220 -0.0757
 4618TIP3    H135345   6.263   5.616  10.509 -0.4444 -0.2018  0.4795
 4618TIP3    H235346   6.220   5.750  10.452  0.8905  0.1547  0.2999
 4619TIP3   OH235347   0.723   5.849   4.637  0.0003 -0.1405  0.2572
 4619TIP3    H135348   0.639   5.863   4.682 -0.0470 -1.2636  0.5198
 4619TIP3    H235349   0.789   5.880   4.698 -0.1385 -0.5552  0.6160
 4620TIP3   OH235350   3.234   3.463  16.571  0.9254  0.4836  0.1420
 4620TIP3    H135351   3.288   3.465  16.650 -0.5617  0.1526  1.1988
 4620TIP3    H235352   3.151   3.502  16.598  0.5700  0.8292 -1.4027
 4621TIP3   OH235353   5.390   6.217   0.321  0.4952  0.7769 -0.1532
 4621TIP3    H135354   5.342   6.233   0.240  3.1599  1.8685 -1.5971
 4621TIP3    H235355   5.454   6.150   0.297  0.1148 -0.1957  1.5474
 4622TIP3   OH235356   0.684   0.111  13.389 -0.1683  0.0569  0.8458
 4622TIP3    H135357   0.711   0.045  13.324 -3.3468 -0.8170  0.3423
 4622TIP3    H235358   0.652   0.184  13.337  0.4877  0.7587  1.4262
 4623TIP3   OH235359   5.750   5.197   3.344 -0.0456 -0.4023 -0.1815
 4623TIP3    H135360   5.674   5.186   3.287  1.4052  0.2232 -2.3168
 4623TIP3    H235361   5.767   5.292   3.342  1.6761 -0.6995 -0.9884
 4624TIP3   OH235362   6.540   4.158   6.305  0.1597  0.2051  0.1138
 4624TIP3    H135363   6.532   4.166   6.400 -0.8019  1.2260 -0.0477
 4624TIP3    H235364   6.535   4.248   6.273 -0.6848 -0.2239 -0.9888
 4625TIP3   OH235365   2.156   0.616  11.044 -0.5465 -0.1193 -0.0957
 4625TIP3    H135366   2.109   0.697  11.027 -1.4682 -1.0393 -2.0453
 4625TIP3    H235367   2.087   0.550  11.055  0.1905 -0.6521  1.4045
 4626TIP3   OH235368   3.905   0.438  16.866 -0.2439 -0.3029  0.2195
 4626TIP3    H135369   3.999   0.420  16.858 -0.0301  0.8667  0.1146
 4626TIP3    H235370   3.864   0.353  16.848  0.7703 -0.7363 -0.1203
 4627TIP3   OH235371   2.946   3.232  12.498  0.0986  0.2750  0.0370
 4627TIP3    H135372   2.925   3.304  12.439 -1.6466 -0.7348 -0.6115
 4627TIP3    H235373   2.918   3.262  12.584 -1.1555  0.1831 -0.3208
 4628TIP3   OH235374   6.649   3.096  11.544  0.4323  0.4818  0.5448
 4628TIP3    H135375   6.652   3.006  11.576 -1.6308  0.6395  1.2793
 4628TIP3    H235376   6.652   3.088  11.448  1.1392 -0.3139  0.6354
 4629TIP3   OH235377   0.855   5.342  16.740  0.4929  0.2664 -0.1802
 4629TIP3    H135378   0.903   5.274  16.692  1.2590  1.0508 -0.5413
 4629TIP3    H235379   0.767   5.339  16.704  0.7863  0.1260 -0.8903
 4630TIP3   OH235380   6.497   0.166  14.111 -0.1906  0.0671  0.0083
 4630TIP3    H135381   6.499   0.072  14.127  2.3281 -0.1521 -1.2444
 4630TIP3    H235382   6.431   0.200  14.170 -1.7507 -2.6056 -0.1458
 4631TIP3   OH235383   3.484   1.488   3.364 -0.1471 -0.2729 -1.0733
 4631TIP3    H135384   3.434   1.540   3.301 -0.6513 -0.8374 -1.1401
 4631TIP3    H235385   3.520   1.416   3.312  1.4235  0.5723 -1.2001
 4632TIP3   OH235386   4.909   4.371   1.291 -0.3196  0.2440  0.1903
 4632TIP3    H135387   4.831   4.367   1.235  0.0507 -1.9696 -0.2407
 4632TIP3    H235388   4.876   4.359   1.380 -0.6601  1.2942  0.2101
 4633TIP3   OH235389   4.134   2.824  14.169 -0.2486 -0.7451 -0.4112
 4633TIP3    H135390   4.143   2.774  14.088  0.2828 -0.9981 -0.1945
 4633TIP3    H235391   4.039   2.835  14.179 -0.3517 -1.3007 -0.7124
 4634TIP3   OH235392   1.178   3.964   1.586  0.1780 -0.6886  0.0143
 4634TIP3    H135393   1.191   3.961   1.681 -0.6231  0.9041  0.1797
 4634TIP3    H235394   1.206   3.878   1.556 -1.6339 -2.0105  1.9604
 4635TIP3   OH235395   1.809   0.289   3.681  0.2782 -0.1873 -0.3500
 4635TIP3    H135396   1.855   0.294   3.765 -0.9469  4.4843  0.1776
 4635TIP3    H235397   1.719   0.269   3.704  0.4031 -1.3320 -0.7967
 4636TIP3   OH235398   1.640   6.400   4.632  0.5978 -0.3815 -0.0974
 4636TIP3    H135399   1.657   6.454   4.709 -0.5959  0.0766 -0.1475
 4636TIP3    H235400   1.722   6.402   4.583  0.6111  1.3012 -0.0366
 4637TIP3   OH235401   2.837   5.474  17.178 -0.5194  0.0165 -0.7076
 4637TIP3    H135402   2.795   5.498  17.260  2.5627  0.3601  0.8420
 4637TIP3    H235403   2.813   5.382  17.164 -0.5410 -0.2198  0.8878
 4638TIP3   OH235404   1.271   5.525  17.248 -0.3253 -0.1944 -0.3054
 4638TIP3    H135405   1.361   5.507  17.223  0.3731  0.8999  1.3490
 4638TIP3    H235406   1.219   5.461  17.199  1.1386  0.5406 -2.9268
 4639TIP3   OH235407   0.330   3.356   5.234 -0.0178  0.2914  0.1665
 4639TIP3    H135408   0.303   3.436   5.188  0.0417 -0.1447 -0.6382
 4639TIP3    H235409   0.338   3.383   5.325  1.0382  1.4609 -0.2575
 4640TIP3   OH235410   1.245   1.194   1.381  0.8257 -0.1959  0.0519
 4640TIP3    H135411   1.212   1.156   1.462  0.4786  1.0171  0.4968
 4640TIP3    H235412   1.326   1.238   1.407  0.4259  0.6669 -0.1337
 4641TIP3   OH235413   2.170   0.631   3.775 -0.0157 -0.8374 -0.1839
 4641TIP3    H135414   2.203   0.664   3.692  1.4938 -2.8160 -0.4004
 4641TIP3    H235415   2.148   0.709   3.825  2.6457  0.4704 -1.0107
 4642TIP3   OH235416   4.261   1.261   2.912 -0.8381 -0.1629  0.4637
 4642TIP3    H135417   4.274   1.252   2.818  0.3090  2.8922  0.2682
 4642TIP3    H235418   4.258   1.171   2.945  3.4072 -1.2633 -1.8741
 4643TIP3   OH235419   3.855   1.911  12.273  0.0721 -0.0795  0.1578
 4643TIP3    H135420   3.765   1.899  12.303  0.2859 -0.4576  0.6511
 4643TIP3    H235421   3.901   1.831  12.300 -0.1740 -1.2836 -2.8411
 4644TIP3   OH235422   5.944   6.539  15.311  0.0786 -0.2893 -0.4256
 4644TIP3    H135423   5.937   6.453  15.269 -0.4242 -0.2595 -0.4022
 4644TIP3    H235424   6.005   6.588  15.256  0.8816 -0.8808 -0.0782
 4645TIP3   OH235425   0.628   5.760  11.169 -0.3708  0.0187  0.1219
 4645TIP3    H135426   0.581   5.806  11.100 -1.8533  0.1636  1.1966
 4645TIP3    H235427   0.718   5.793  11.163 -1.4917  3.5051  1.2082
 4646TIP3   OH235428   0.577   2.906   5.498 -0.1003 -0.2277  0.5263
 4646TIP3    H135429   0.556   2.981   5.443  1.3542 -0.0301  0.2359
 4646TIP3    H235430   0.558   2.936   5.587 -2.5491 -0.5783  0.1600
 4647TIP3   OH235431   3.389   1.598  16.595 -0.3568 -0.4380 -0.5520
 4647TIP3    H135432   3.431   1.561  16.672  2.5867  1.3960 -1.1759
 4647TIP3    H235433   3.374   1.523  16.537  0.4177 -1.3943  0.4624
 4648TIP3   OH235434   4.142   4.386  13.695 -0.5993  0.5929  0.4176
 4648TIP3    H135435   4.125   4.300  13.734 -0.1000  0.6745  0.8153
 4648TIP3    H235436   4.146   4.368  13.601 -0.9606  0.2569  0.4615
 4649TIP3   OH235437   0.884   2.527   1.017  0.0681  0.2717  0.0554
 4649TIP3    H135438   0.905   2.435   1.027  0.6480  0.5129  1.0532
 4649TIP3    H235439   0.962   2.566   0.978 -0.3435  0.2682 -0.7969
 4650TIP3   OH235440   5.945   3.051   5.033  0.5652 -0.3245  0.1710
 4650TIP3    H135441   6.035   3.029   5.009  0.8869 -1.3271  2.1281
 4650TIP3    H235442   5.929   3.000   5.112 -1.0795  1.2896  0.9162
 4651TIP3   OH235443   0.389   0.837   5.533 -0.1804  0.2520  0.0544
 4651TIP3    H135444   0.306   0.803   5.499 -0.6511  1.7969 -0.3823
 4651TIP3    H235445   0.427   0.764   5.581 -0.8719 -1.0768 -1.3914
 4652TIP3   OH235446   2.357   3.036  11.302 -0.2095  0.7515 -0.4487
 4652TIP3    H135447   2.436   3.002  11.259 -0.3146 -0.2161  0.1306
 4652TIP3    H235448   2.285   3.012  11.243 -0.5706 -2.1833  1.1275
 4653TIP3   OH235449   3.493   4.928   5.456  0.1933  0.0904  0.4192
 4653TIP3    H135450   3.544   4.889   5.386 -0.7974 -0.0750 -0.2275
 4653TIP3    H235451   3.426   4.862   5.476 -1.2209  1.2449 -0.3821
 4654TIP3   OH235452   0.180   6.359   5.933  0.5492  0.0745  0.6223
 4654TIP3    H135453   0.172   6.435   5.876 -0.2180 -0.7059 -0.3198
 4654TIP3    H235454   0.094   6.352   5.975  0.7296 -0.0826  0.9706
 4655TIP3   OH235455   5.017   1.486  15.248 -0.3826  0.4920 -0.3882
 4655TIP3    H135456   4.936   1.531  15.226 -0.5281  0.1006 -0.6566
 4655TIP3    H235457   5.049   1.530  15.327 -1.1303  0.3050  0.0250
 4656TIP3   OH235458   4.756   4.180   5.667  0.5429 -0.5760  0.2402
 4656TIP3    H135459   4.704   4.164   5.746  0.6475 -0.0370  0.4218
 4656TIP3    H235460   4.746   4.101   5.615 -0.5809 -0.4177  0.2064
 4657TIP3   OH235461   1.086   0.813   6.091 -0.2159  0.7765  0.0057
 4657TIP3    H135462   1.104   0.746   6.025  1.9902  0.4368  0.8914
 4657TIP3    H235463   1.068   0.764   6.171  1.1920  1.2005  0.6054
 4658TIP3   OH235464   0.825   2.745  16.699 -0.0183 -0.8295  0.2959
 4658TIP3    H135465   0.802   2.810  16.633  2.3119  0.5768  0.7998
 4658TIP3    H235466   0.785   2.777  16.779  2.3488  0.8718  0.8725
 4659TIP3   OH235467   2.020   5.481   0.906  0.2633  0.2051 -0.1494
 4659TIP3    H135468   2.046   5.566   0.869  0.8940 -0.2245 -0.6925
 4659TIP3    H235469   2.074   5.471   0.984  0.2361  0.2753 -0.1213
 4660TIP3   OH235470   2.714   4.427   4.067  0.1810 -0.4225  0.1471
 4660TIP3    H135471   2.714   4.372   4.145  1.0164  0.2501  0.6264
 4660TIP3    H235472   2.625   4.419   4.032  0.3587 -2.2538  0.0765
 4661TIP3   OH235473   2.198   3.588   1.631  0.4455  0.0630 -0.1300
 4661TIP3    H135474   2.263   3.520   1.611  0.9017  0.8041 -1.2160
 4661TIP3    H235475   2.139   3.588   1.556  0.1446  0.5197  0.1023
 4662TIP3   OH235476   1.312   6.240  12.342  0.2842 -0.4861 -0.0568
 4662TIP3    H135477   1.340   6.331  12.333  0.7849 -0.6622 -0.3088
 4662TIP3    H235478   1.384   6.189  12.304  0.8066 -1.0748  1.6925
 4663TIP3   OH235479   2.977   2.010   4.966  0.2440 -0.5151 -0.4740
 4663TIP3    H135480   3.004   1.961   5.043  0.8603 -1.8481 -1.5214
 4663TIP3    H235481   3.024   1.969   4.894  0.4561  1.3781 -1.4248
 4664TIP3   OH235482   6.810   2.457   6.012  0.6184  0.1927  0.4627
 4664TIP3    H135483   6.868   2.525   6.047 -0.3983  0.1511  2.2793
 4664TIP3    H235484   6.758   2.429   6.087 -1.6758  0.1485 -1.1031
 4665TIP3   OH235485   6.573   3.458  16.432  0.4823  0.6083 -0.1318
 4665TIP3    H135486   6.498   3.417  16.473  1.4991  0.9663  2.1786
 4665TIP3    H235487   6.543   3.547  16.411 -0.1757  0.2912 -0.5333
 4666TIP3   OH235488   6.481   2.009   5.440  0.0560  0.4736 -0.1267
 4666TIP3    H135489   6.521   1.966   5.364 -1.1660  1.0504 -1.1186
 4666TIP3    H235490   6.402   2.050   5.405 -0.8379  0.2562  1.5910
 4667TIP3   OH235491   5.864   4.434  11.420 -0.0281  0.0498  0.1636
 4667TIP3    H135492   5.819   4.487  11.354 -0.3951 -1.4654 -0.8197
 4667TIP3    H235493   5.793   4.397  11.473  0.2419  0.7502  1.0392
 4668TIP3   OH235494   3.097   3.101   0.206 -0.5422 -0.4340 -0.2390
 4668TIP3    H135495   3.101   3.007   0.223 -2.0622 -0.6133 -0.7849
 4668TIP3    H235496   3.128   3.141   0.287 -1.0403 -1.3983  0.4444
 4669TIP3   OH235497   5.915   4.055   2.304  0.8556  0.1075 -0.5300
 4669TIP3    H135498   5.920   4.035   2.210  0.4862  0.5517 -0.6459
 4669TIP3    H235499   5.909   4.150   2.308 -0.7555  0.0048 -0.1206
 4670TIP3   OH235500   1.770   2.469   2.966  0.7066 -0.4667  0.1558
 4670TIP3    H135501   1.811   2.407   3.026  0.9281 -0.6067 -0.1378
 4670TIP3    H235502   1.682   2.483   3.001  0.5655 -1.1496  0.0730
 4671TIP3   OH235503   0.981   5.275  13.452 -0.0251  0.5480 -0.4554
 4671TIP3    H135504   0.986   5.311  13.364 -0.6373  0.9005 -0.3539
 4671TIP3    H235505   0.906   5.216  13.450  0.8105 -0.5110 -0.5428
 4672TIP3   OH235506   3.474   6.284  16.380 -0.1848  0.0355 -0.1414
 4672TIP3    H135507   3.455   6.205  16.330  0.3371 -0.5726  0.6136
 4672TIP3    H235508   3.536   6.333  16.325 -0.7954  0.1046 -0.7754
 4673TIP3   OH235509   3.063   0.173  14.140  0.0656  0.2604 -0.7225
 4673TIP3    H135510   3.017   0.166  14.057  2.0602  1.1441 -1.9374
 4673TIP3    H235511   3.097   0.263  14.142 -0.5382  0.4683  1.3586
 4674TIP3   OH235512   4.652   2.697   5.181 -0.7580 -0.0279  0.2313
 4674TIP3    H135513   4.715   2.655   5.122 -0.4937 -2.2543  2.0657
 4674TIP3    H235514   4.567   2.678   5.142 -0.5413 -0.7998  0.1229
 4675TIP3   OH235515   4.160   0.252  15.060 -0.2564  0.9156 -0.6404
 4675TIP3    H135516   4.113   0.180  15.102  0.7125 -0.0217 -1.1367
 4675TIP3    H235517   4.091   0.308  15.024 -1.1491  1.9075  2.4178
 4676TIP3   OH235518   6.380   1.396  14.089 -0.1507  0.0223 -0.2859
 4676TIP3    H135519   6.390   1.378  14.182  2.0856 -0.2865 -0.5590
 4676TIP3    H235520   6.375   1.492  14.083  4.6882  0.4234 -0.1942
 4677TIP3   OH235521   6.709   4.786   6.584 -0.8546 -0.0449 -0.0016
 4677TIP3    H135522   6.782   4.727   6.600  0.0456  0.6238 -1.4532
 4677TIP3    H235523   6.646   4.733   6.534 -1.4603 -0.6711  1.3968
 4678TIP3   OH235524   6.463   3.245   2.792  0.0173 -0.9558  0.2175
 4678TIP3    H135525   6.482   3.334   2.822 -0.3591 -0.5252 -0.7853
 4678TIP3    H235526   6.446   3.255   2.698  1.4786 -2.3080 -0.2114
 4679TIP3   OH235527   0.491   5.855  12.026  0.0001  0.4016  0.6111
 4679TIP3    H135528   0.568   5.807  11.994 -2.0533 -2.5909 -0.0941
 4679TIP3    H235529   0.443   5.791  12.078 -3.2371  1.4097 -0.9795
 4680TIP3   OH235530   1.397   1.020  15.325 -0.1877  0.0597 -0.3627
 4680TIP3    H135531   1.438   0.986  15.246  1.4789 -0.1510  0.5683
 4680TIP3    H235532   1.461   1.081  15.361 -1.0719  0.4104  0.6379
 4681TIP3   OH235533   4.844   3.974  17.074  0.1555  0.6569 -0.1403
 4681TIP3    H135534   4.811   4.052  17.030  2.1406  1.2331 -0.6472
 4681TIP3    H235535   4.914   3.942  17.017  0.5052 -0.5007  0.9227
 4682TIP3   OH235536   5.803   4.443  13.548 -0.6229 -0.4631  0.1970
 4682TIP3    H135537   5.861   4.367  13.552 -0.3393 -0.1665  1.8216
 4682TIP3    H235538   5.724   4.411  13.503 -1.0235 -2.0573  2.0134
 4683TIP3   OH235539   0.967   1.175  14.386 -0.1098 -0.2178  0.3259
 4683TIP3    H135540   1.046   1.174  14.332  1.6969  0.3311  2.8713
 4683TIP3    H235541   0.946   1.083  14.401  0.4482 -0.3610  0.2108
 4684TIP3   OH235542   5.600   0.723  15.488  0.2512 -0.7247  0.2271
 4684TIP3    H135543   5.599   0.813  15.519 -0.0377 -1.3537  2.1319
 4684TIP3    H235544   5.686   0.689  15.515 -0.6051 -1.7415  1.7650
 4685TIP3   OH235545   4.294   3.706  17.233  0.3746  0.4070 -0.0564
 4685TIP3    H135546   4.253   3.786  17.200  0.7618  0.5234 -0.2641
 4685TIP3    H235547   4.283   3.643  17.162 -1.5189 -0.2731  0.8091
 4686TIP3   OH235548   6.065   0.700  15.676  0.3524 -0.4995  0.6117
 4686TIP3    H135549   6.121   0.746  15.614 -0.3946  0.6906  0.8220
 4686TIP3    H235550   6.113   0.618  15.694  0.1728 -1.2907 -2.1817
 4687TIP3   OH235551   0.681   3.696  10.839  0.6659  0.5642  0.1046
 4687TIP3    H135552   0.691   3.715  10.745  1.9430  0.9844  0.3182
 4687TIP3    H235553   0.586   3.689  10.851  0.4765  0.5984 -1.2002
 4688TIP3   OH235554   3.015   3.763   2.618  0.3762 -0.0969 -0.1978
 4688TIP3    H135555   3.012   3.832   2.685 -0.5024 -0.7167  0.4167
 4688TIP3    H235556   2.924   3.735   2.609  0.5807 -0.4508 -1.2104
 4689TIP3   OH235557   5.465   3.153   0.616 -0.2253  0.5023  0.4251
 4689TIP3    H135558   5.483   3.101   0.695  0.7948  2.8274  1.7645
 4689TIP3    H235559   5.446   3.241   0.649 -1.5149  1.0969 -1.8346
 4690TIP3   OH235560   4.779   2.883   2.926 -0.2885 -0.3376 -0.1676
 4690TIP3    H135561   4.813   2.794   2.926  0.8881  0.1048 -1.8937
 4690TIP3    H235562   4.816   2.923   3.004  0.8919 -0.7171 -0.5284
 4691TIP3   OH235563   5.375   0.516  14.765  0.5695  0.2639 -0.4414
 4691TIP3    H135564   5.394   0.591  14.707  0.9303  0.0542 -0.5985
 4691TIP3    H235565   5.394   0.548  14.853 -0.3178  0.6951 -0.4044
 4692TIP3   OH235566   6.359   2.104   6.290 -0.3854 -0.5338  0.1993
 4692TIP3    H135567   6.285   2.067   6.337  0.6803 -2.3085  0.5230
 4692TIP3    H235568   6.400   2.164   6.353 -2.1642  1.3362 -0.3585
 4693TIP3   OH235569   5.387   3.967  10.684 -0.4615 -0.3333 -0.1844
 4693TIP3    H135570   5.451   4.039  10.688 -1.2267  0.4926 -2.3723
 4693TIP3    H235571   5.384   3.934  10.774  2.4698  0.0957  0.1337
 4694TIP3   OH235572   4.734   0.757  10.569  0.4012  0.6935 -0.1902
 4694TIP3    H135573   4.713   0.799  10.652  0.1532 -0.3177  0.2684
 4694TIP3    H235574   4.650   0.731  10.533  0.6059 -0.2814  0.0077
 4695TIP3   OH235575   0.245   4.548   1.257 -0.3160  0.3950  0.4365
 4695TIP3    H135576   0.323   4.549   1.202 -0.6802 -0.0211 -0.0996
 4695TIP3    H235577   0.172   4.551   1.194 -0.7358  0.0879  0.9045
 4696TIP3   OH235578   3.117   0.255  11.518  0.0368 -0.3693  0.2546
 4696TIP3    H135579   3.181   0.321  11.545 -0.6770  0.5996 -0.3856
 4696TIP3    H235580   3.111   0.266  11.423  2.6001 -3.7895 -0.4194
 4697TIP3   OH235581   6.816   3.437  12.365 -1.6821 -0.3370  0.1779
 4697TIP3    H135582   6.898   3.479  12.339 -1.3464 -0.9918  0.1727
 4697TIP3    H235583   6.751   3.473  12.306 -1.5382  0.7824  0.6963
 4698TIP3   OH235584   4.210   2.401   4.669 -0.2100 -0.2283 -0.2343
 4698TIP3    H135585   4.198   2.372   4.579 -0.8725  2.1833 -0.9374
 4698TIP3    H235586   4.270   2.336   4.707  1.0154 -0.6024 -2.7316
 4699TIP3   OH235587   2.713   4.498  15.581  0.0129  0.1242  0.0661
 4699TIP3    H135588   2.708   4.482  15.486  2.6757  3.8788 -0.8284
 4699TIP3    H235589   2.643   4.561  15.598  1.3761  1.7103 -0.0303
 4700TIP3   OH235590   3.935   2.358   1.793  0.5872  0.6871  0.5181
 4700TIP3    H135591   4.018   2.387   1.755  0.6718  1.2894  1.1438
 4700TIP3    H235592   3.950   2.266   1.816  0.7173  0.4867 -0.3698
 4701TIP3   OH235593   0.729   5.437   3.716 -0.3205 -0.1648  0.3058
 4701TIP3    H135594   0.718   5.378   3.642 -1.3340 -0.6976  0.8650
 4701TIP3    H235595   0.730   5.525   3.676  0.0783 -0.4935 -0.4191
 4702TIP3   OH235596   4.813   0.749  13.426  0.4001 -0.5772 -0.3324
 4702TIP3    H135597   4.866   0.820  13.461  1.2260 -0.7427 -1.2449
 4702TIP3    H235598   4.875   0.691  13.382 -0.7691  0.4707 -3.5275
 4703TIP3   OH235599   4.717   2.183   4.284 -0.0704  0.0677 -0.6500
 4703TIP3    H135600   4.739   2.230   4.365  2.3603  0.4803 -1.5156
 4703TIP3    H235601   4.697   2.094   4.313  2.2548 -0.1962  0.3157
 4704TIP3   OH235602   1.940   4.701   4.615  0.2593  0.5458 -0.3684
 4704TIP3    H135603   1.996   4.624   4.627 -1.8815 -0.9158  0.5091
 4704TIP3    H235604   1.867   4.687   4.676 -0.3049  3.1525 -0.3852
 4705TIP3   OH235605   0.023   6.205   2.164  0.4238 -0.2030 -0.4291
 4705TIP3    H135606   0.038   6.298   2.146  1.1576 -0.1363  0.4971
 4705TIP3    H235607   0.110   6.166   2.167  0.0699 -1.1352 -1.8796
 4706TIP3   OH235608   0.027   5.714   4.960 -0.5690 -0.0580  0.1130
 4706TIP3    H135609  -0.027   5.653   5.010 -0.2073 -0.2327  0.2979
 4706TIP3    H235610  -0.024   5.795   4.957 -1.1817 -0.4549 -0.3820
 4707TIP3   OH235611   3.239   0.924  17.031  0.3468 -0.0111 -0.2363
 4707TIP3    H135612   3.186   0.899  17.107  0.4322 -0.2456 -0.2528
 4707TIP3    H235613   3.252   0.842  16.984 -1.6089  0.4799 -1.7170
 4708TIP3   OH235614   0.842   5.828  12.839  0.3892  0.2026  0.5173
 4708TIP3    H135615   0.917   5.805  12.784  1.6510  0.5538  2.0440
 4708TIP3    H235616   0.881   5.848  12.924 -1.4103  0.8032  1.2111
 4709TIP3   OH235617   4.862   0.385   5.922  0.1174 -0.0027 -0.2790
 4709TIP3    H135618   4.917   0.381   5.844 -1.1888  0.6365 -1.2635
 4709TIP3    H235619   4.829   0.296   5.934 -0.8946  0.2186 -1.3667
 4710TIP3   OH235620   3.062   1.155   2.160  0.1805 -0.0417 -0.0035
 4710TIP3    H135621   3.113   1.146   2.241  1.0554  0.6975 -0.4613
 4710TIP3    H235622   3.059   1.067   2.123  0.6858 -0.1870  0.2975
 4711TIP3   OH235623   5.817   3.207   0.391 -0.3724 -0.4405  0.7317
 4711TIP3    H135624   5.727   3.196   0.358  0.1639  2.2876 -1.8913
 4711TIP3    H235625   5.805   3.235   0.483 -2.1961 -0.5982  0.5680
 4712TIP3   OH235626   3.261   3.147   5.605  0.2659 -0.1247 -0.1199
 4712TIP3    H135627   3.222   3.121   5.522  0.5393  0.5957 -0.4781
 4712TIP3    H235628   3.212   3.224   5.632  0.6732  0.0906  0.0116
 4713TIP3   OH235629   1.985   2.970   5.267 -0.1245  0.3515 -0.7375
 4713TIP3    H135630   2.038   3.034   5.220 -0.9361  0.0221 -2.1496
 4713TIP3    H235631   2.046   2.898   5.286  0.2164  0.4946 -1.2821
 4714TIP3   OH235632   4.375   6.349   3.417  0.1056  0.2774 -0.2741
 4714TIP3    H135633   4.450   6.301   3.453  0.9712  0.9898 -1.1223
 4714TIP3    H235634   4.305   6.285   3.414  1.0259 -0.7192 -0.6181
 4715TIP3   OH235635   2.017   4.956   3.773 -0.2077 -0.3460  0.3121
 4715TIP3    H135636   1.941   4.996   3.731  0.3783  0.7557  0.2992
 4715TIP3    H235637   1.983   4.876   3.814 -0.9825 -0.9092 -1.3843
 4716TIP3   OH235638   2.276   6.703  12.082  0.5718  0.0109 -0.0457
 4716TIP3    H135639   2.310   6.771  12.141 -0.2084  0.3621  0.0077
 4716TIP3    H235640   2.228   6.751  12.015 -1.3497 -0.5275  0.8780
 4717TIP3   OH235641   4.573   0.411  16.574 -0.2384 -0.3929  0.0994
 4717TIP3    H135642   4.564   0.418  16.670 -3.5794 -0.3174 -0.1451
 4717TIP3    H235643   4.639   0.476  16.552  1.0461 -0.8465  2.4179
 4718TIP3   OH235644   6.334   0.947  13.233 -0.6340  0.1490 -0.3712
 4718TIP3    H135645   6.368   1.032  13.206  1.0242 -0.1069  0.7953
 4718TIP3    H235646   6.378   0.884  13.176  1.7714 -0.2719  1.8301
 4719TIP3   OH235647   3.991   3.079  16.729 -0.2476 -0.1939 -0.3272
 4719TIP3    H135648   3.925   3.013  16.705 -0.4881  0.2014 -0.7580
 4719TIP3    H235649   4.041   3.038  16.800 -1.5269 -0.1395  0.6223
 4720TIP3   OH235650   0.523   0.354   1.263 -0.1524 -0.1169 -0.4855
 4720TIP3    H135651   0.616   0.351   1.237  0.2211  0.7865  0.6822
 4720TIP3    H235652   0.475   0.345   1.181  0.9723 -0.6067 -1.1040
 4721TIP3   OH235653   5.121   6.524   2.005 -0.6309 -0.0058  0.4216
 4721TIP3    H135654   5.080   6.439   1.988 -0.7711  0.2338 -0.4547
 4721TIP3    H235655   5.132   6.527   2.100 -1.5507 -0.5761  0.5474
 4722TIP3   OH235656   5.334   6.794  13.857  0.2908  0.5988  0.0974
 4722TIP3    H135657   5.358   6.805  13.949  1.0661 -0.4486  0.0246
 4722TIP3    H235658   5.410   6.753  13.817 -0.1706  0.7404 -0.9453
 4723TIP3   OH235659   0.812   1.777   2.316  0.2807 -0.8443 -0.0603
 4723TIP3    H135660   0.799   1.850   2.376  0.6478  1.2302 -2.3971
 4723TIP3    H235661   0.905   1.783   2.292  0.6128 -2.8301  0.6052
 4724TIP3   OH235662   1.858   0.107  15.421 -0.6087  0.3667 -1.0429
 4724TIP3    H135663   1.893   0.183  15.468 -0.5275 -0.9895  1.1656
 4724TIP3    H235664   1.924   0.088  15.354 -0.0246  1.4580 -0.7974
 4725TIP3   OH235665   6.767   6.062   2.416 -0.1030 -0.0761  0.5024
 4725TIP3    H135666   6.743   6.111   2.495 -0.9800 -0.9655  0.8018
 4725TIP3    H235667   6.757   6.125   2.345 -1.2678  0.1648  0.8737
 4726TIP3   OH235668   4.152   2.538   0.425  0.3137  0.1147  0.4631
 4726TIP3    H135669   4.106   2.576   0.351  0.3078  0.3111  0.5664
 4726TIP3    H235670   4.150   2.444   0.409 -2.9711 -0.1686  2.0760
 4727TIP3   OH235671   4.010   1.565  10.705  0.0903  0.1723  0.3449
 4727TIP3    H135672   3.985   1.496  10.765 -2.2699  0.8234  0.1523
 4727TIP3    H235673   3.957   1.550  10.627 -1.3308  2.8610  0.7344
 4728TIP3   OH235674   0.505   1.588  13.905  0.1751 -0.3016 -0.1912
 4728TIP3    H135675   0.487   1.614  13.995  1.8299 -1.0029  0.3762
 4728TIP3    H235676   0.601   1.581  13.901  0.2025  0.9117 -2.3445
 4729TIP3   OH235677   2.385   6.183   5.475  0.1530  0.4949  0.6657
 4729TIP3    H135678   2.437   6.260   5.449 -0.3462  1.0272  1.2232
 4729TIP3    H235679   2.296   6.216   5.484  0.0436 -0.0048  1.5274
 4730TIP3   OH235680   0.873   5.154   1.823 -0.0969 -0.7141  0.3650
 4730TIP3    H135681   0.960   5.124   1.850  0.0217 -1.1649 -0.4865
 4730TIP3    H235682   0.891   5.222   1.757 -0.3815 -0.4727  0.5377
 4731TIP3   OH235683   1.454   3.785   1.692 -0.1104 -0.3565  0.6677
 4731TIP3    H135684   1.521   3.721   1.668  0.7044 -0.0054  1.9159
 4731TIP3    H235685   1.439   3.769   1.786 -1.3779 -0.0618  0.5257
 4732TIP3   OH235686   4.871   6.664  15.880 -0.5232  0.3272  0.1236
 4732TIP3    H135687   4.932   6.637  15.812 -1.8657  0.0219 -0.9697
 4732TIP3    H235688   4.924   6.667  15.960  0.9852  0.3902 -0.8684
 4733TIP3   OH235689   6.800   1.842  14.027  0.3090  0.2090  1.0182
 4733TIP3    H135690   6.728   1.901  14.047  0.2113 -0.0816  1.5356
 4733TIP3    H235691   6.849   1.835  14.110  0.0787 -0.7590  1.0718
 4734TIP3   OH235692   1.473   0.330   0.236  0.3959 -0.4970  0.5119
 4734TIP3    H135693   1.553   0.277   0.231 -0.0220 -1.2681  1.8546
 4734TIP3    H235694   1.403   0.270   0.214  0.0734 -0.0956  0.4357
 4735TIP3   OH235695   5.990   1.295   4.605  0.1161  0.0364 -0.3593
 4735TIP3    H135696   6.058   1.252   4.553 -0.1065 -0.4646 -0.2356
 4735TIP3    H235697   5.960   1.367   4.550  2.0055  1.3711  0.3086
 4736TIP3   OH235698   3.119   0.761  15.246  0.1194  0.2962  0.0870
 4736TIP3    H135699   3.185   0.784  15.181 -0.9147  2.3775 -0.2872
 4736TIP3    H235700   3.037   0.758  15.197 -0.1028 -2.2032  0.5559
 4737TIP3   OH235701   1.999   2.237   4.747 -0.2340  0.1120  0.0327
 4737TIP3    H135702   1.944   2.169   4.786 -0.5883  0.2273 -0.2686
 4737TIP3    H235703   1.956   2.320   4.770 -0.4062  0.1840 -0.5482
 4738TIP3   OH235704   4.667   1.460   5.465 -0.5111 -0.0530  0.6727
 4738TIP3    H135705   4.630   1.376   5.494  0.8319 -0.6860  0.5698
 4738TIP3    H235706   4.643   1.465   5.373  0.3539 -0.8501  0.3987
 4739TIP3   OH235707   2.832   1.545  15.301 -0.6776 -0.0071 -0.1192
 4739TIP3    H135708   2.881   1.469  15.333 -1.5173 -1.4409 -2.1032
 4739TIP3    H235709   2.842   1.611  15.370  0.5060 -1.7271  1.4132
 4740TIP3   OH235710   5.238   4.090   2.672 -0.0779  0.0258  0.0169
 4740TIP3    H135711   5.284   4.025   2.619  2.1577 -0.2054  2.1420
 4740TIP3    H235712   5.258   4.174   2.630  0.4186 -0.2891 -0.3876
 4741TIP3   OH235713   5.386   5.932  11.708  0.4353 -0.3161  0.8602
 4741TIP3    H135714   5.420   5.846  11.732  2.0105 -0.4209 -1.5404
 4741TIP3    H235715   5.300   5.915  11.671  1.0629 -0.9570 -0.3134
 4742TIP3   OH235716   3.153   0.307  10.606  0.3648  0.7354  0.3657
 4742TIP3    H135717   3.216   0.300  10.678  0.3341 -2.2538  0.1730
 4742TIP3    H235718   3.202   0.276  10.529 -0.8173  0.0190 -0.1134
 4743TIP3   OH235719   1.694   0.519   0.671  0.9022 -0.1125  0.2561
 4743TIP3    H135720   1.713   0.518   0.578  1.9937 -0.3562  0.4715
 4743TIP3    H235721   1.685   0.612   0.693 -0.9804 -0.1129 -0.3916
 4744TIP3   OH235722   5.381   4.949   3.577 -0.0366 -0.2752 -0.2180
 4744TIP3    H135723   5.329   4.921   3.652 -1.2031 -0.6216 -1.1454
 4744TIP3    H235724   5.443   5.013   3.613 -1.5699  0.6706  0.7814
 4745TIP3   OH235725   5.666   4.108   3.340  0.1050 -0.5550  0.1591
 4745TIP3    H135726   5.732   4.167   3.377 -0.2809 -0.2182  0.3057
 4745TIP3    H235727   5.629   4.156   3.266 -2.2519  0.5823  2.0156
 4746TIP3   OH235728   6.427   2.702   0.097  0.4307 -0.1563 -0.4029
 4746TIP3    H135729   6.455   2.710   0.189 -3.0093  2.2267  0.5189
 4746TIP3    H235730   6.509   2.694   0.048  2.5365  2.1063  2.5602
 4747TIP3   OH235731   2.027   4.756   1.203  0.5229  0.1133 -0.5675
 4747TIP3    H135732   2.001   4.844   1.175  0.1217  0.3683  0.5726
 4747TIP3    H235733   1.951   4.701   1.184 -0.3695  0.5952  1.4787
 4748TIP3   OH235734   1.456   4.377  11.241 -0.4219  0.6165 -0.5651
 4748TIP3    H135735   1.542   4.384  11.198  0.0711  1.2323  0.5066
 4748TIP3    H235736   1.399   4.435  11.191  0.0362  0.9808 -0.6614
 4749TIP3   OH235737   6.326   2.456  12.472 -0.2223  0.0168  1.0265
 4749TIP3    H135738   6.379   2.403  12.413 -1.7953  0.8015 -1.1185
 4749TIP3    H235739   6.258   2.494  12.417 -2.3685 -0.0395  3.5093
 4750TIP3   OH235740   2.063   2.863  16.215 -0.6147 -0.6129  0.9107
 4750TIP3    H135741   2.018   2.820  16.288  1.6792 -1.1612  2.0359
 4750TIP3    H235742   2.089   2.948  16.251 -3.8590  1.2098 -0.8549
 4751TIP3   OH235743   0.553   5.024   5.901 -0.0358  0.0414 -0.4398
 4751TIP3    H135744   0.468   4.989   5.925  0.4166 -0.7876 -0.0293
 4751TIP3    H235745   0.565   5.100   5.957 -0.1546 -0.3183  0.0766
 4752TIP3   OH235746   5.753   4.842   2.834 -0.0455 -0.0720 -0.4807
 4752TIP3    H135747   5.838   4.801   2.821 -0.5371 -1.2398 -0.0443
 4752TIP3    H235748   5.694   4.797   2.774 -1.0277 -1.4128  1.4467
 4753TIP3   OH235749   1.333   3.622   6.238  0.5013 -0.0492 -0.0406
 4753TIP3    H135750   1.329   3.657   6.327 -2.8439 -0.5689  0.0878
 4753TIP3    H235751   1.338   3.527   6.249 -0.9222 -0.1832 -0.3431
 4754TIP3   OH235752   3.562   1.643  10.399  0.5918  0.0779 -0.3878
 4754TIP3    H135753   3.523   1.720  10.440  0.5056  0.1835 -0.6611
 4754TIP3    H235754   3.649   1.672  10.371  0.0016  0.5181 -1.8137
 4755TIP3   OH235755   4.962   1.075   5.978 -0.2739 -0.0985  0.3150
 4755TIP3    H135756   4.938   1.115   5.894  0.8983 -1.5257 -0.7111
 4755TIP3    H235757   4.958   1.148   6.040 -2.5027  0.7016 -0.6888
 4756TIP3   OH235758   4.151   5.074   5.381  0.1936 -0.9194 -0.1275
 4756TIP3    H135759   4.224   5.108   5.330  0.0763  2.1527  1.6485
 4756TIP3    H235760   4.073   5.095   5.329  0.1619  1.1713  0.7332
 4757TIP3   OH235761   5.797   6.446   3.990 -0.8579 -0.3551  0.1479
 4757TIP3    H135762   5.797   6.511   4.061 -0.2385 -0.9679  0.7160
 4757TIP3    H235763   5.864   6.382   4.016 -0.8903 -0.7823 -0.8097
 4758TIP3   OH235764   3.733   6.396   3.887  0.2243  0.1278 -0.2868
 4758TIP3    H135765   3.739   6.418   3.794 -0.6109  1.5417 -0.0183
 4758TIP3    H235766   3.824   6.386   3.915  0.4202 -2.9776 -1.8455
 4759TIP3   OH235767   3.215   0.257  13.852  0.5962  0.3562  0.1581
 4759TIP3    H135768   3.253   0.193  13.912  0.0496  0.7082  0.8889
 4759TIP3    H235769   3.243   0.342  13.886  0.0758  0.5676  0.0665
 4760TIP3   OH235770   0.384   5.715   2.888  0.2066  0.5583 -0.0007
 4760TIP3    H135771   0.455   5.773   2.859  0.3668  1.4088  2.0124
 4760TIP3    H235772   0.318   5.721   2.819  0.9409  1.8753 -0.6017
 4761TIP3   OH235773   6.179   2.743   2.416  1.0458  0.5613  0.1775
 4761TIP3    H135774   6.136   2.799   2.351 -0.7652 -0.4588  0.4910
 4761TIP3    H235775   6.203   2.664   2.367 -0.5390 -0.3121  0.7744
 4762TIP3   OH235776   1.876   5.805   6.090 -0.1021  0.4124  0.4711
 4762TIP3    H135777   1.844   5.805   6.180  0.8268  0.0465  0.8081
 4762TIP3    H235778   1.930   5.884   6.084 -1.6507  1.4467 -0.3192
 4763TIP3   OH235779   0.030   1.817  16.885  0.1094 -0.9869  0.5542
 4763TIP3    H135780   0.055   1.757  16.955  0.0434 -1.7645 -0.0805
 4763TIP3    H235781  -0.020   1.886  16.929 -0.9302 -2.0795  1.1053
 4764TIP3   OH235782   0.021   5.305  14.081  0.3777 -0.1282  0.5546
 4764TIP3    H135783   0.040   5.227  14.028 -0.2913  1.0236 -1.4592
 4764TIP3    H235784   0.105   5.351  14.087  0.3646 -0.0388  0.0927
 4765TIP3   OH235785   5.954   2.975   0.358  0.0887 -0.0666  0.6827
 4765TIP3    H135786   5.948   3.063   0.394  0.5641  0.3078 -0.1384
 4765TIP3    H235787   5.882   2.969   0.295  0.5626  0.0275  0.1278
 4766TIP3   OH235788   3.392   1.526   5.608 -0.2383 -0.1207 -0.2799
 4766TIP3    H135789   3.446   1.521   5.687 -0.7240 -0.6404  0.0277
 4766TIP3    H235790   3.336   1.602   5.622 -0.3317 -0.2193 -0.1185
 4767TIP3   OH235791   0.388   5.404  11.977  0.1029 -0.0175 -0.1024
 4767TIP3    H135792   0.318   5.442  12.028 -1.1937 -0.0431 -1.8028
 4767TIP3    H235793   0.431   5.479  11.935  0.9805 -0.0173  0.7792
 4768TIP3   OH235794   5.943   1.911   0.667 -0.2185 -0.2789 -0.3517
 4768TIP3    H135795   5.885   1.929   0.594  0.1989  1.6742 -0.2296
 4768TIP3    H235796   6.028   1.945   0.640 -0.1298  0.7699  1.1486
 4769TIP3   OH235797   2.054   5.118   3.144 -0.4541  0.1031 -0.2302
 4769TIP3    H135798   1.996   5.194   3.144 -2.3189 -1.2838  0.5398
 4769TIP3    H235799   2.078   5.107   3.236  0.2424  0.0747 -0.4163
 4770TIP3   OH235800   3.743   5.697   5.670 -0.7134  0.3896  0.3254
 4770TIP3    H135801   3.822   5.648   5.692 -1.0904 -0.2985  0.1624
 4770TIP3    H235802   3.721   5.668   5.581 -0.7442  1.1158  0.0878
 4771TIP3   OH235803   2.809   4.368   5.523 -0.5203 -0.1417  0.5719
 4771TIP3    H135804   2.794   4.376   5.429 -0.9012 -0.6407  0.5885
 4771TIP3    H235805   2.734   4.318   5.555  0.9241 -2.2183  0.7564
 4772TIP3   OH235806   4.567   3.534   1.296  0.6588  0.4452  0.6356
 4772TIP3    H135807   4.624   3.486   1.235  0.2860  0.8894 -0.0644
 4772TIP3    H235808   4.478   3.512   1.268  0.4739 -0.3893  1.8410
 4773TIP3   OH235809   0.141   4.655  17.214  0.4225  0.5036  0.3118
 4773TIP3    H135810   0.213   4.669  17.152  0.1460 -0.2840 -0.1939
 4773TIP3    H235811   0.069   4.621  17.160 -0.5417  1.8667  0.7066
 4774TIP3   OH235812   4.833   2.364  11.863 -0.3850 -0.4270 -0.2912
 4774TIP3    H135813   4.791   2.381  11.778 -1.0901  1.4183  0.4028
 4774TIP3    H235814   4.766   2.319  11.914  0.0291 -1.5095 -0.6715
 4775TIP3   OH235815   2.692   1.096  16.402  0.2259  0.3527 -0.8415
 4775TIP3    H135816   2.781   1.069  16.378  0.1798 -2.0004  1.3962
 4775TIP3    H235817   2.649   1.015  16.429 -1.4289  2.0218  1.7318
 4776TIP3   OH235818   4.111   1.869   4.916  0.2465  0.2422 -0.3306
 4776TIP3    H135819   4.171   1.845   4.987 -1.6972  0.2838  1.3885
 4776TIP3    H235820   4.129   1.961   4.900 -0.4801  0.6852  1.3279
 4777TIP3   OH235821   3.208   6.760   2.787 -0.2576 -0.1403 -0.0110
 4777TIP3    H135822   3.149   6.770   2.862 -1.3324  0.3744 -0.9213
 4777TIP3    H235823   3.295   6.758   2.826 -0.7609  0.7806  1.2010
 4778TIP3   OH235824   1.649   1.230   1.143 -0.4643  0.0305 -0.5027
 4778TIP3    H135825   1.643   1.283   1.063 -0.4736  0.4695 -0.2147
 4778TIP3    H235826   1.736   1.192   1.140 -0.4965 -0.0238 -0.7668
 4779TIP3   OH235827   2.468   5.411   4.900  0.4682 -0.2163  0.0619
 4779TIP3    H135828   2.425   5.326   4.910  2.3902 -1.1978  0.1838
 4779TIP3    H235829   2.530   5.415   4.972  1.6407  0.5067 -0.9750
 4780TIP3   OH235830   1.113   6.101   4.817  0.0779  0.8861  0.0537
 4780TIP3    H135831   1.063   6.120   4.896  0.0598  0.7064  0.0851
 4780TIP3    H235832   1.131   6.187   4.778  2.2518  1.1457  1.5580
 4781TIP3   OH235833   4.572   2.606   2.593  0.0536 -0.0487  0.1927
 4781TIP3    H135834   4.657   2.637   2.623 -1.7431  1.5119  4.0546
 4781TIP3    H235835   4.584   2.512   2.577  2.1049 -0.1726  2.2931
 4782TIP3   OH235836   0.950   5.478  14.630  0.2151  0.0819  0.0401
 4782TIP3    H135837   0.959   5.550  14.691  2.2849  0.6467 -0.8799
 4782TIP3    H235838   1.031   5.428  14.639 -0.0539 -0.6152 -1.2184
 4783TIP3   OH235839   4.753   2.303  12.261  0.2925  0.5146 -0.1428
 4783TIP3    H135840   4.764   2.246  12.337  0.0220 -0.6715 -0.9788
 4783TIP3    H235841   4.679   2.359  12.283  2.0918  2.3016  1.7299
 4784TIP3   OH235842   3.311   4.876  14.474  0.0285 -0.5656 -0.0444
 4784TIP3    H135843   3.267   4.824  14.408  0.1704  1.0298 -1.4161
 4784TIP3    H235844   3.404   4.866  14.454  0.0677  0.0116 -0.1298
 4785TIP3   OH235845   6.413   5.549  10.614 -0.4931 -0.3765  0.6422
 4785TIP3    H135846   6.354   5.573  10.686 -1.2870  0.9497 -0.4293
 4785TIP3    H235847   6.491   5.603  10.628 -2.0344  2.5630 -1.4194
 4786TIP3   OH235848   1.390   3.968  12.063  0.1588 -0.1809  0.9340
 4786TIP3    H135849   1.374   3.924  12.146 -0.3430  0.7739  1.3542
 4786TIP3    H235850   1.335   3.922  12.000  1.1395 -1.4174  0.9648
 4787TIP3   OH235851   5.876   5.198  13.607  0.7977 -0.8848 -0.2032
 4787TIP3    H135852   5.891   5.138  13.680 -0.2782 -0.2204  0.5881
 4787TIP3    H235853   5.866   5.284  13.649  0.3405 -0.4738 -1.1462
 4788TIP3   OH235854   0.497   2.065  16.898 -0.2040 -0.2744  0.6917
 4788TIP3    H135855   0.417   2.012  16.890  0.4252 -1.0024 -0.8345
 4788TIP3    H235856   0.465   2.152  16.921 -1.4197 -0.6513  0.4793
 4789TIP3   OH235857   1.465   2.699  11.162 -0.6084  0.2344 -0.1777
 4789TIP3    H135858   1.509   2.663  11.239 -0.4709 -0.4911 -0.5886
 4789TIP3    H235859   1.428   2.782  11.192  0.6681  0.6533  0.3005
 4790TIP3   OH235860   2.876   0.274   5.554 -0.5653 -0.8929 -0.3911
 4790TIP3    H135861   2.934   0.331   5.503  0.8038 -0.5387  1.4652
 4790TIP3    H235862   2.869   0.194   5.503  2.1714 -1.2095 -0.3678
 4791TIP3   OH235863   5.101   1.913  15.380 -0.1760  1.1780  0.3058
 4791TIP3    H135864   5.118   1.941  15.290  0.4192  1.7076  0.5816
 4791TIP3    H235865   5.143   1.979  15.435  0.0720  0.4796  0.9670
 4792TIP3   OH235866   4.981   6.664  12.024  0.2662 -0.3288 -0.2284
 4792TIP3    H135867   5.002   6.571  12.023 -0.5712 -0.5318  0.2044
 4792TIP3    H235868   5.034   6.700  12.095  0.9909 -0.3808 -0.7487
 4793TIP3   OH235869   6.234   4.111  11.753 -0.2175  0.1266  0.0786
 4793TIP3    H135870   6.150   4.069  11.734  0.3811 -1.8443  1.5268
 4793TIP3    H235871   6.297   4.066  11.696  0.2944 -0.4195  1.0459
 4794TIP3   OH235872   2.475   2.509  16.568 -0.3725 -0.0802  0.4690
 4794TIP3    H135873   2.516   2.589  16.602 -1.0783 -0.4178  2.1724
 4794TIP3    H235874   2.381   2.527  16.568 -0.4652 -0.5230 -0.1988
 4795TIP3   OH235875   0.397   4.840   3.150 -0.1628  0.0431 -0.2705
 4795TIP3    H135876   0.414   4.766   3.208  0.4830 -0.4333 -1.0627
 4795TIP3    H235877   0.420   4.808   3.063 -1.1506  0.7389 -0.8016
 4796TIP3   OH235878   3.215   4.700  11.211 -1.0423  0.0355 -0.3859
 4796TIP3    H135879   3.164   4.735  11.138 -2.5669 -0.6737  0.3258
 4796TIP3    H235880   3.203   4.605  11.206 -0.6096 -0.0631  0.3866
 4797TIP3   OH235881   3.780   3.078  15.620  0.1644 -0.2967  0.5192
 4797TIP3    H135882   3.769   3.132  15.698 -1.9710  1.5979 -1.0371
 4797TIP3    H235883   3.835   3.130  15.561  0.2571 -0.9258  0.0421
 4798TIP3   OH235884   5.672   2.541   0.922  0.5071 -0.0064 -0.1479
 4798TIP3    H135885   5.582   2.535   0.891  0.0026  3.4335  0.3767
 4798TIP3    H235886   5.723   2.488   0.861 -1.7480 -1.3071 -0.9446
 4799TIP3   OH235887   2.584   4.473   1.036  0.5318 -0.4621  0.1979
 4799TIP3    H135888   2.538   4.517   1.108  0.1365 -1.7652  0.7503
 4799TIP3    H235889   2.545   4.510   0.957  0.4247  0.4097  0.6464
 4800TIP3   OH235890   2.007   0.076  12.244 -0.2890 -0.0456  0.4222
 4800TIP3    H135891   1.964  -0.009  12.254  1.3903 -0.8261  1.4244
 4800TIP3    H235892   2.017   0.087  12.150 -1.0509 -0.6919  0.2631
 4801TIP3   OH235893   0.326   2.773  16.911 -0.1339  0.0966 -0.6834
 4801TIP3    H135894   0.276   2.745  16.988 -0.0278 -1.9028 -1.3019
 4801TIP3    H235895   0.363   2.858  16.936 -0.1742 -0.4691  1.4409
 4802TIP3   OH235896   3.420   2.291   0.015 -0.2167  0.2805  0.1674
 4802TIP3    H135897   3.451   2.322  -0.070 -0.1519 -0.3271 -0.0300
 4802TIP3    H235898   3.389   2.371   0.060 -1.0489  0.4839 -0.7502
 4803TIP3   OH235899   0.092   1.496  10.921 -0.2247  0.1520  0.1860
 4803TIP3    H135900   0.185   1.474  10.923 -0.2655  0.0432  0.8695
 4803TIP3    H235901   0.087   1.573  10.864  0.4889  1.1689  1.4627
 4804TIP3   OH235902   6.133   4.152  11.089 -0.4625 -0.2504  0.4488
 4804TIP3    H135903   6.052   4.101  11.092  1.8016 -3.8945  1.7906
 4804TIP3    H235904   6.167   4.147  11.179  1.9548  0.0686 -0.4354
 4805TIP3   OH235905   2.453   4.542   2.475  0.1693 -0.2156 -0.2047
 4805TIP3    H135906   2.396   4.471   2.445 -0.2862  0.1638 -0.2485
 4805TIP3    H235907   2.541   4.506   2.470 -0.0401 -0.6961 -0.4615
 4806TIP3   OH235908   0.987   1.795   0.815 -0.3260  0.4556  0.2157
 4806TIP3    H135909   1.019   1.765   0.730 -0.8577 -0.4930  0.3408
 4806TIP3    H235910   1.037   1.744   0.879  0.0386  1.1325  0.4633
 4807TIP3   OH235911   6.671   6.162  14.720  0.4601 -0.4166  0.3000
 4807TIP3    H135912   6.716   6.161  14.804  0.9079  0.6291  0.0769
 4807TIP3    H235913   6.708   6.236  14.673  0.5097 -1.2428 -0.9952
 4808TIP3   OH235914   5.158   1.092   3.686 -0.3041  0.2032 -0.4530
 4808TIP3    H135915   5.189   1.012   3.728  2.0345  0.6262 -1.2991
 4808TIP3    H235916   5.135   1.066   3.597 -1.3380  0.1192 -0.1694
 4809TIP3   OH235917   1.445   5.481   1.311  0.1306  0.2387  0.2656
 4809TIP3    H135918   1.356   5.446   1.305  0.5822 -0.7353 -1.0549
 4809TIP3    H235919   1.461   5.490   1.405 -1.2915  0.2535  0.5224
 4810TIP3   OH235920   5.010   4.782  13.382  0.0248 -0.5252  0.3270
 4810TIP3    H135921   5.047   4.708  13.431 -2.1523 -1.3737  0.7409
 4810TIP3    H235922   5.032   4.859  13.434  0.3106 -1.1243  1.0957
 4811TIP3   OH235923   6.681   3.576  16.717 -0.3479 -0.1134 -0.6776
 4811TIP3    H135924   6.736   3.647  16.750 -1.4713  0.1188  0.7562
 4811TIP3    H235925   6.673   3.593  16.623  1.7286  0.0349 -0.8380
 4812TIP3   OH235926   3.580   0.599   5.057 -0.0706 -0.0921  0.6768
 4812TIP3    H135927   3.569   0.629   4.967  0.7097  2.1755  1.2959
 4812TIP3    H235928   3.516   0.528   5.067 -0.5277 -0.0236 -1.4788
 4813TIP3   OH235929   0.058   1.957  16.060 -0.2131 -0.0093  0.0593
 4813TIP3    H135930   0.073   1.896  16.132  0.2137  0.7129  0.5882
 4813TIP3    H235931   0.076   2.043  16.097  1.1648  0.2885 -1.2330
 4814TIP3   OH235932   2.801   3.102  15.051 -0.0317 -0.4215 -0.0493
 4814TIP3    H135933   2.713   3.132  15.030 -0.2859 -0.1327  1.3892
 4814TIP3    H235934   2.798   3.007  15.037 -1.1665 -0.7051  1.9608
 4815TIP3   OH235935   4.616   0.638   3.028  0.2434  0.4818 -0.3096
 4815TIP3    H135936   4.594   0.719   3.074 -1.1172 -0.5630  0.9655
 4815TIP3    H235937   4.699   0.655   2.985  0.8130  1.9839  1.3615
 4816TIP3   OH235938   2.652   0.763  14.262 -0.1654  0.0864  0.0966
 4816TIP3    H135939   2.660   0.858  14.273  1.4067  0.5849 -4.1894
 4816TIP3    H235940   2.742   0.731  14.267 -0.6121 -1.0704  0.7653
 4817TIP3   OH235941   0.631   3.295   5.038 -0.0921 -0.2040 -0.0265
 4817TIP3    H135942   0.640   3.215   5.089  1.4547 -0.9999 -1.4966
 4817TIP3    H235943   0.542   3.290   5.002  0.7014 -2.3011 -1.7781
 4818TIP3   OH235944   3.529   2.720   0.350 -0.5778 -0.1520  0.2748
 4818TIP3    H135945   3.611   2.767   0.336 -0.0906 -1.3024 -0.9234
 4818TIP3    H235946   3.539   2.640   0.298 -1.0339 -1.9536  2.8884
 4819TIP3   OH235947   5.691   5.525  11.098  0.0539 -0.1313 -0.0027
 4819TIP3    H135948   5.627   5.566  11.040 -0.7263 -0.9045  0.2868
 4819TIP3    H235949   5.774   5.569  11.078 -0.2572 -0.1879 -1.4906
 4820TIP3   OH235950   1.811   1.516  10.947  0.1447 -0.4804  0.2882
 4820TIP3    H135951   1.779   1.506  10.857 -1.0039  4.8340 -0.0656
 4820TIP3    H235952   1.905   1.526  10.938  0.0148  0.1837 -0.3748
 4821TIP3   OH235953   5.842   6.401  10.553  0.3129 -0.1231  0.7535
 4821TIP3    H135954   5.829   6.480  10.605  2.2718 -0.1627  1.3139
 4821TIP3    H235955   5.790   6.416  10.474  3.0952  3.1165 -0.5752
 4822TIP3   OH235956   6.243   6.197  16.980  0.2452  0.2435  0.0876
 4822TIP3    H135957   6.322   6.233  16.941  0.0352 -0.3625 -0.9059
 4822TIP3    H235958   6.260   6.103  16.988  0.6270  0.4590  2.2839
 4823TIP3   OH235959   6.301   6.152   0.040 -0.1141  0.1439  0.5048
 4823TIP3    H135960   6.276   6.194  -0.043  0.2196  0.8385  0.7506
 4823TIP3    H235961   6.391   6.123   0.026 -0.2914 -0.3533  0.3907
 4824TIP3   OH235962   3.622   2.175  16.291  0.5081 -0.0245 -0.5136
 4824TIP3    H135963   3.577   2.126  16.360  0.8662  1.1127  0.5594
 4824TIP3    H235964   3.715   2.157  16.306  0.6435  0.9988 -0.0819
 4825TIP3   OH235965   1.131   6.258  12.079  0.0743 -0.0045 -0.4704
 4825TIP3    H135966   1.177   6.190  12.030  0.7995  0.7501 -0.8411
 4825TIP3    H235967   1.076   6.210  12.141  1.7827 -0.8979  0.3781
 4826TIP3   OH235968   0.661   5.564   5.061  0.5145  0.4197 -0.1266
 4826TIP3    H135969   0.635   5.590   5.150 -0.0959  2.7934 -0.9432
 4826TIP3    H235970   0.665   5.469   5.064 -2.8579  0.2571  1.5504
 4827TIP3   OH235971   4.436   4.484  16.658  0.2821  0.3858  0.1893
 4827TIP3    H135972   4.433   4.549  16.589 -0.0262 -0.2754 -0.4350
 4827TIP3    H235973   4.375   4.416  16.629  0.4661 -0.0901  0.9075
 4828TIP3   OH235974   5.290   3.362   4.222  0.3664  0.2180  0.4820
 4828TIP3    H135975   5.259   3.436   4.276  0.3880  2.2001 -2.1009
 4828TIP3    H235976   5.348   3.313   4.280  1.2441  2.8700  1.9515
 4829TIP3   OH235977   6.431   5.861   2.921  0.2814 -0.5711 -0.0665
 4829TIP3    H135978   6.432   5.921   2.996  2.9592 -0.6530  0.0350
 4829TIP3    H235979   6.381   5.908   2.854 -1.7476 -0.2989  1.5897
 4830TIP3   OH235980   5.422   5.147   2.165  0.3022  0.6411  0.2405
 4830TIP3    H135981   5.412   5.149   2.260  0.7951 -0.8406  0.3318
 4830TIP3    H235982   5.341   5.107   2.133  0.1491  1.1128  0.0237
 4831TIP3   OH235983   0.178   1.740  13.430  0.0838 -0.1105  0.0310
 4831TIP3    H135984   0.215   1.652  13.419 -0.9807 -0.4013 -1.2905
 4831TIP3    H235985   0.149   1.765  13.343 -1.6044  0.6635  0.7921
 4832TIP3   OH235986   1.862   1.060  11.999 -0.0856 -0.2299  0.0190
 4832TIP3    H135987   1.807   1.122  11.950  0.4182 -0.5574 -0.9676
 4832TIP3    H235988   1.809   1.037  12.076 -0.8879  0.2736 -0.3744
 4833TIP3   OH235989   2.719   6.683   3.562  0.6088 -0.4186 -0.1282
 4833TIP3    H135990   2.737   6.769   3.523 -0.6623  0.6433  1.5858
 4833TIP3    H235991   2.743   6.692   3.654 -0.7624 -1.4806  0.3614
 4834TIP3   OH235992   4.644   2.984   5.211 -0.4517 -0.0879 -0.0205
 4834TIP3    H135993   4.579   2.924   5.175 -0.8806  0.8217 -0.7701
 4834TIP3    H235994   4.715   2.927   5.243 -1.9425 -1.1374  1.5079
 4835TIP3   OH235995   5.137   0.541  15.494  0.2083 -0.0557 -0.1761
 4835TIP3    H135996   5.182   0.564  15.413  0.9145  1.3297  0.5880
 4835TIP3    H235997   5.153   0.615  15.553 -1.4183 -0.4344  0.7823
 4836TIP3   OH235998   3.753   1.448  14.535  0.2768 -0.4829 -0.2178
 4836TIP3    H135999   3.838   1.452  14.492 -0.4495 -0.1060 -1.6471
 4836TIP3    H236000   3.743   1.534  14.576  1.7693 -1.4699  2.3019
 4837TIP3   OH236001   6.670   3.545   6.967  0.4053 -0.2606  0.3628
 4837TIP3    H136002   6.638   3.473   6.913  0.7799 -0.3708  0.2856
 4837TIP3    H236003   6.746   3.509   7.013  1.2226  0.3993 -0.4640
 4838TIP3   OH236004   3.197   6.154  12.126 -0.3097 -0.1555 -0.3930
 4838TIP3    H136005   3.237   6.202  12.199 -1.0604  1.2240 -0.8827
 4838TIP3    H236006   3.103   6.163  12.140 -0.4579  0.3024 -1.6418
 4839TIP3   OH236007   3.157   1.772   0.797  0.3925 -0.6182 -0.4655
 4839TIP3    H136008   3.074   1.816   0.815  0.1972 -0.6776 -1.2187
 4839TIP3    H236009   3.208   1.785   0.876  0.2917  0.8505 -0.6383
 4840TIP3   OH236010   0.662   2.317  16.633 -0.0128 -0.1238 -0.1147
 4840TIP3    H136011   0.727   2.378  16.667 -0.1796  0.1872 -0.3501
 4840TIP3    H236012   0.590   2.373  16.603 -0.7304 -0.4891  0.8647
 4841TIP3   OH236013   2.151   0.459   4.597 -0.0823 -0.0602 -0.0125
 4841TIP3    H136014   2.068   0.506   4.609 -0.0966  0.1682 -0.9419
 4841TIP3    H236015   2.218   0.527   4.609 -0.0091 -0.2971  0.9975
 4842TIP3   OH236016   2.962   5.385   4.072  0.1061  0.2801 -0.6714
 4842TIP3    H136017   3.009   5.345   3.998 -0.3715  0.9462 -1.3474
 4842TIP3    H236018   2.945   5.475   4.043  0.5560  0.7713  0.5493
 4843TIP3   OH236019   0.416   2.568   0.836 -0.3460 -0.0304  0.2877
 4843TIP3    H136020   0.399   2.499   0.771  2.0405 -1.5201  1.1622
 4843TIP3    H236021   0.512   2.569   0.844 -0.5052  1.6406  2.1811
 4844TIP3   OH236022   1.401   0.312   0.971  0.3027 -0.3997 -0.1757
 4844TIP3    H136023   1.466   0.263   1.022  1.2155  0.0077 -0.9247
 4844TIP3    H236024   1.421   0.289   0.880  0.0009  0.4716 -0.4587
 4845TIP3   OH236025   1.331   0.655  14.996  0.2156 -0.1228  0.4238
 4845TIP3    H136026   1.354   0.708  14.920 -1.0993  1.4302  1.0823
 4845TIP3    H236027   1.262   0.705  15.040  0.6867 -1.1875  2.4194
 4846TIP3   OH236028   4.612   5.190  13.749  0.3482 -0.4550 -0.2347
 4846TIP3    H136029   4.525   5.222  13.727  0.4098  0.7790  1.2176
 4846TIP3    H236030   4.618   5.200  13.844  2.2786  0.0271 -0.3806
 4847TIP3   OH236031   1.680   5.305   2.073  0.0275  0.2776 -0.3720
 4847TIP3    H136032   1.684   5.370   2.144 -0.2818  0.9950 -1.0076
 4847TIP3    H236033   1.772   5.285   2.055  0.1091  0.1122  0.2148
 4848TIP3   OH236034   2.802   4.987   3.563  0.2645 -0.5691 -0.3429
 4848TIP3    H136035   2.840   5.059   3.511 -0.2030 -0.3535 -0.3856
 4848TIP3    H236036   2.807   4.911   3.506  1.7364 -0.8109  0.0824
 4849TIP3   OH236037   2.541   1.849  13.011 -0.4313 -0.2534  0.0713
 4849TIP3    H136038   2.506   1.878  13.095 -0.0831 -1.0234  0.4783
 4849TIP3    H236039   2.625   1.894  13.003  0.6486 -2.0317  1.2368
 4850TIP3   OH236040   0.909   0.195   5.233  0.5615 -0.1527  0.5808
 4850TIP3    H136041   0.971   0.162   5.168  0.6757 -0.2681  0.7482
 4850TIP3    H236042   0.843   0.126   5.241 -0.7500  0.8527 -1.1488
 4851TIP3   OH236043   4.808   5.458   5.172  0.2059  0.6100  0.2369
 4851TIP3    H136044   4.833   5.547   5.198  0.0341  0.6188  0.3722
 4851TIP3    H236045   4.750   5.428   5.242 -0.5718  0.7792 -0.3381
 4852TIP3   OH236046   1.497   4.567  15.201 -0.1225  0.1324  0.6254
 4852TIP3    H136047   1.579   4.544  15.157  0.8944  1.4750  1.7541
 4852TIP3    H236048   1.449   4.618  15.136  0.5118  0.4475  0.3989
 4853TIP3   OH236049   4.288   3.319  16.801 -0.3636 -0.1971  0.1332
 4853TIP3    H136050   4.318   3.278  16.882  0.0829  0.7854  0.4696
 4853TIP3    H236051   4.203   3.356  16.822  0.7934  2.1424  0.8489
 4854TIP3   OH236052   4.945   3.801   5.783  0.0043 -0.0827 -0.3813
 4854TIP3    H136053   4.875   3.738   5.765  1.6259 -1.5260 -1.8273
 4854TIP3    H236054   5.020   3.748   5.808  1.2919  1.2766 -1.2527
 4855TIP3   OH236055   2.760   4.920  12.111 -0.0910  0.4611 -0.6639
 4855TIP3    H136056   2.748   4.936  12.204 -0.4005  0.1492 -0.6487
 4855TIP3    H236057   2.710   4.840  12.094  2.4852 -1.2235 -0.4994
 4856TIP3   OH236058   2.568   3.627   5.740 -0.4020  0.0573  0.2012
 4856TIP3    H136059   2.540   3.710   5.702 -0.3282 -0.1692 -0.3442
 4856TIP3    H236060   2.507   3.562   5.705 -1.2812  0.0769  1.6677
 4857TIP3   OH236061   4.795   5.689  12.641  0.5900 -0.4359 -0.3354
 4857TIP3    H136062   4.865   5.636  12.679  0.2613 -1.4425 -1.1087
 4857TIP3    H236063   4.714   5.650  12.675  0.3917  0.8275  0.6950
 4858TIP3   OH236064   2.340   1.258  11.254 -0.0523  0.5232  0.0057
 4858TIP3    H136065   2.311   1.325  11.194  0.8449  2.5720  1.7967
 4858TIP3    H236066   2.430   1.239  11.227 -0.2410  0.1754 -0.3799
 4859TIP3   OH236067   0.166   3.999  12.746  0.4053  0.4053  0.0266
 4859TIP3    H136068   0.123   4.023  12.828  0.5276 -0.5024  0.3546
 4859TIP3    H236069   0.214   4.078  12.722 -0.0666  0.8634  0.5399
 4860TIP3   OH236070   0.073   0.493   5.298  0.1612 -0.5717 -0.1017
 4860TIP3    H136071   0.113   0.469   5.382 -2.1442  2.1112  1.8419
 4860TIP3    H236072  -0.001   0.433   5.288 -1.9126  1.6114  1.7494
 4861TIP3   OH236073   0.304   4.292   4.358 -0.2945  0.1431 -0.1274
 4861TIP3    H136074   0.212   4.318   4.370 -0.2071  0.3046  0.1994
 4861TIP3    H236075   0.342   4.362   4.305 -0.2516  0.2969  0.1049
 4862TIP3   OH236076   0.247   1.987  16.903 -0.0295  0.3170  0.0154
 4862TIP3    H136077   0.192   1.919  16.865 -0.4690 -0.0526  1.2983
 4862TIP3    H236078   0.207   2.069  16.875 -0.9171  0.0481  0.4813
 4863TIP3   OH236079   1.192   0.456  12.425 -0.1176  0.8047 -0.1989
 4863TIP3    H136080   1.156   0.543  12.407 -1.9530  0.1569  0.2679
 4863TIP3    H236081   1.175   0.441  12.518 -0.5216 -0.3705 -0.4504
 4864TIP3   OH236082   4.336   5.151  13.130 -0.3020  0.4666 -0.4463
 4864TIP3    H136083   4.413   5.129  13.078 -0.5363 -1.7173  0.0856
 4864TIP3    H236084   4.369   5.163  13.219 -0.4466  0.3776 -0.3798
 4865TIP3   OH236085   1.247   4.076  16.354 -0.2197  0.2146 -0.2830
 4865TIP3    H136086   1.279   4.165  16.365  0.0612  0.2463 -1.2838
 4865TIP3    H236087   1.308   4.022  16.405 -0.4963  0.6108  0.4706
 4866TIP3   OH236088   1.836   4.462   1.438  0.0947 -0.3771 -0.6364
 4866TIP3    H136089   1.775   4.392   1.416  0.6423 -0.9231 -0.4639
 4866TIP3    H236090   1.782   4.531   1.475 -0.4448 -0.7561 -0.7094
 4867TIP3   OH236091   4.975   4.502   5.893 -0.2284 -0.1883 -0.0502
 4867TIP3    H136092   4.959   4.571   5.828  0.2604 -0.6537 -0.6650
 4867TIP3    H236093   4.906   4.515   5.958 -0.3614  0.6560 -0.3512
 4868TIP3   OH236094   2.882   6.415   0.177  0.0649 -0.1364 -0.3894
 4868TIP3    H136095   2.940   6.357   0.226 -1.0922 -0.9457  0.0611
 4868TIP3    H236096   2.874   6.374   0.091  0.3005  0.0693 -0.5095
 4869TIP3   OH236097   6.718   0.869  15.528 -0.3945 -0.2265 -0.1117
 4869TIP3    H136098   6.658   0.940  15.502  0.2180 -0.0039 -0.9394
 4869TIP3    H236099   6.697   0.798  15.468 -0.8036 -0.6561  0.5287
 4870TIP3   OH236100   5.210   2.898  15.160  0.1368 -1.1569 -0.6399
 4870TIP3    H136101   5.262   2.834  15.111  2.6844  0.8065 -0.6105
 4870TIP3    H236102   5.237   2.983  15.124 -0.5973  0.1098  1.7139
 4871TIP3   OH236103   1.433   0.297   2.278  0.0170 -0.3086 -0.3632
 4871TIP3    H136104   1.427   0.358   2.352 -1.5898 -1.2329  0.3025
 4871TIP3    H236105   1.519   0.256   2.287  0.2910  0.4158  0.3366
 4872TIP3   OH236106   3.814   2.859   5.664  0.2150  0.2812  0.0918
 4872TIP3    H136107   3.733   2.907   5.651 -0.5505 -0.4776  1.8352
 4872TIP3    H236108   3.856   2.857   5.578 -0.5285  2.6110 -0.3431
 4873TIP3   OH236109   6.584   1.682  12.181 -0.2790  0.1247 -0.6075
 4873TIP3    H136110   6.673   1.655  12.161 -0.2011 -0.1972  0.1414
 4873TIP3    H236111   6.538   1.683  12.097  0.5435  0.7177 -1.0512
 4874TIP3   OH236112   6.209   0.170   5.071  0.1237  0.5197 -0.0953
 4874TIP3    H136113   6.229   0.210   5.156 -0.0696 -0.6919  0.5348
 4874TIP3    H236114   6.265   0.093   5.067 -0.5446  0.0616 -0.6629
 4875TIP3   OH236115   5.145   0.199   1.501 -0.3524 -0.6876 -0.9931
 4875TIP3    H136116   5.235   0.169   1.512 -0.2853 -0.4231 -0.8262
 4875TIP3    H236117   5.091   0.128   1.535 -0.2163 -0.9805 -1.3811
 4876TIP3   OH236118   1.466   6.659  11.420  0.1350  0.2115 -0.7307
 4876TIP3    H136119   1.537   6.633  11.361 -1.2557 -0.9938 -1.8931
 4876TIP3    H236120   1.439   6.577  11.462  1.2900  1.0878  1.8460
 4877TIP3   OH236121   1.692   4.870   0.932 -0.6756 -0.0889  0.3851
 4877TIP3    H136122   1.728   4.791   0.892 -1.7039 -0.0222 -0.7136
 4877TIP3    H236123   1.754   4.893   1.001  0.5587 -0.8346 -0.4621
 4878TIP3   OH236124   1.073   5.449  11.246  0.0613 -0.1265  0.3195
 4878TIP3    H136125   1.025   5.510  11.301 -0.5376 -0.6477  0.3891
 4878TIP3    H236126   1.005   5.395  11.205  0.5468 -0.3731 -0.1813
 4879TIP3   OH236127   5.331   0.775   2.050  0.6596  1.2256  0.4219
 4879TIP3    H136128   5.279   0.803   1.975  1.2293  0.5354 -0.2358
 4879TIP3    H236129   5.409   0.734   2.012  0.4788 -0.0310  1.3683
 4880TIP3   OH236130   3.044   4.807   0.258 -0.9287  0.7189 -0.3649
 4880TIP3    H136131   3.116   4.854   0.299 -0.4338  0.2357 -0.6798
 4880TIP3    H236132   3.030   4.852   0.174 -1.9297  1.6945  0.3004
 4881TIP3   OH236133   0.181   6.775  16.151  0.0068 -0.2474 -0.1493
 4881TIP3    H136134   0.094   6.787  16.115 -0.9397  0.8324  2.4055
 4881TIP3    H236135   0.217   6.863  16.159  0.2815 -0.4732  1.2719
 4882TIP3   OH236136   3.931   3.762   2.778  0.0874 -0.3174 -0.5814
 4882TIP3    H136137   3.917   3.790   2.868  0.3055 -2.5839  0.1767
 4882TIP3    H236138   3.988   3.830   2.741 -0.1009  0.6964  0.9340
 4883TIP3   OH236139   0.325   3.962  14.414  0.1284 -0.2787  0.2035
 4883TIP3    H136140   0.229   3.964  14.418  0.1327 -1.3300  1.4409
 4883TIP3    H236141   0.353   4.043  14.456 -0.2278  1.7065 -3.2109
 4884TIP3   OH236142   5.687   4.798  16.261  0.3332 -0.2447  0.2610
 4884TIP3    H136143   5.769   4.841  16.233  2.1459 -1.5656  3.3050
 4884TIP3    H236144   5.692   4.710  16.224 -1.1824  0.6102 -2.0663
 4885TIP3   OH236145   0.044   0.023  17.285 -0.2028  0.0455  0.4012
 4885TIP3    H136146   0.061   0.117  17.294  1.1539 -0.1915  0.4096
 4885TIP3    H236147   0.055   0.006  17.191  2.2017 -0.5820  0.7651
 4886TIP3   OH236148   1.285   3.597   5.972 -0.0859  0.4505 -0.0564
 4886TIP3    H136149   1.352   3.533   5.949  0.2899  0.9256 -0.3253
 4886TIP3    H236150   1.278   3.593   6.067  1.9556  1.9753  0.1939
 4887TIP3   OH236151   0.246   3.108  11.299 -0.3987  0.1172  0.8155
 4887TIP3    H136152   0.156   3.136  11.284 -0.2825 -0.5044 -1.2091
 4887TIP3    H236153   0.298   3.188  11.296 -1.0028  0.6796  3.4713
 4888TIP3   OH236154   5.638   5.384  16.578  0.0483 -0.0782 -0.1682
 4888TIP3    H136155   5.625   5.462  16.525 -0.1916 -0.5241 -0.7662
 4888TIP3    H236156   5.729   5.391  16.609  0.2153  0.1402 -0.7019
 4889TIP3   OH236157   4.187   4.070  11.751  0.1535  0.5305  0.1455
 4889TIP3    H136158   4.151   4.158  11.739 -1.2447 -0.1930 -1.2413
 4889TIP3    H236159   4.179   4.054  11.845  1.0927  2.1415  0.5229
 4890TIP3   OH236160   3.938   0.710  15.639  0.3127 -0.5051 -0.0618
 4890TIP3    H136161   4.001   0.703  15.568 -0.2038 -1.8238 -0.4018
 4890TIP3    H236162   3.971   0.782  15.693  0.7112  0.5066 -1.6139
 4891TIP3   OH236163   0.055   5.649  10.983 -0.4189  0.6583 -0.4908
 4891TIP3    H136164   0.111   5.707  10.932  2.0331 -0.9903  0.2680
 4891TIP3    H236165   0.083   5.561  10.959  0.5737 -0.1720  3.3937
 4892TIP3   OH236166   6.215   4.510  14.541 -0.1450 -0.1747  0.1052
 4892TIP3    H136167   6.284   4.449  14.567 -0.3192 -0.3740  0.0958
 4892TIP3    H236168   6.217   4.510  14.446  2.3564  2.6412  0.0863
 4893TIP3   OH236169   4.181   6.010   5.663 -0.0898 -0.1617 -0.3708
 4893TIP3    H136170   4.136   5.927   5.644 -0.5732  0.1805 -0.7610
 4893TIP3    H236171   4.259   5.985   5.711  0.0235 -0.8892 -0.9203
 4894TIP3   OH236172   2.480   0.247  15.023 -0.9260  0.2679 -0.3833
 4894TIP3    H136173   2.410   0.231  14.960 -0.9701  0.3276 -0.3488
 4894TIP3    H236174   2.463   0.186  15.094 -0.7354  0.0294 -0.5437
 4895TIP3   OH236175   6.675   0.014  17.020  0.0302  0.1895 -0.0085
 4895TIP3    H136176   6.617  -0.045  16.972 -1.3926  1.1729  0.4870
 4895TIP3    H236177   6.762  -0.027  17.012 -0.7021 -1.2639 -0.7928
 4896TIP3   OH236178   5.502   3.756  17.042 -0.3788 -0.1728  0.2116
 4896TIP3    H136179   5.584   3.806  17.036  0.6979 -1.7843  1.0069
 4896TIP3    H236180   5.440   3.804  16.986  0.5510  2.1362  1.1023
 4897TIP3   OH236181   6.729   3.292  14.848 -0.2202  0.3604  0.1615
 4897TIP3    H136182   6.741   3.198  14.865  2.8522  0.5542 -0.7339
 4897TIP3    H236183   6.672   3.294  14.771 -0.2850 -0.7821  0.1618
 4898TIP3   OH236184   5.021   2.126   1.101  0.2672  0.0568  0.3603
 4898TIP3    H136185   4.931   2.109   1.071  0.0031  1.6999  0.1777
 4898TIP3    H236186   5.075   2.114   1.023 -0.0255  1.0160  0.0110
 4899TIP3   OH236187   2.119   3.641   5.576 -0.3985  0.1943 -0.1233
 4899TIP3    H136188   2.212   3.662   5.585 -0.3290 -0.2005  0.0792
 4899TIP3    H236189   2.116   3.565   5.520 -0.4727 -0.9661  1.4142
 4900TIP3   OH236190   5.669   6.067  16.220  0.0100  0.1573 -0.2552
 4900TIP3    H136191   5.666   6.163  16.214 -0.1977  0.2872  1.5933
 4900TIP3    H236192   5.747   6.049  16.272  0.7964 -0.7637 -1.7205
 4901TIP3   OH236193   3.199   5.975  16.596  0.5563 -0.1674 -0.1223
 4901TIP3    H136194   3.197   6.018  16.511  1.0423 -1.5711 -0.8737
 4901TIP3    H236195   3.223   5.884  16.576  1.6112 -0.2941  1.5999
 4902TIP3   OH236196   3.109   6.251   4.122  0.0203 -0.4739 -0.3828
 4902TIP3    H136197   3.096   6.156   4.117 -0.4389 -0.4454  0.1017
 4902TIP3    H236198   3.141   6.277   4.036 -1.0167 -0.8973 -0.8936
 4903TIP3   OH236199   1.530   3.987  14.265 -0.6561 -0.3273 -0.0150
 4903TIP3    H136200   1.522   4.067  14.317 -3.1051 -1.1781  0.9584
 4903TIP3    H236201   1.525   4.018  14.174 -1.3943  0.6438  0.3456
 4904TIP3   OH236202   4.824   0.648  16.515 -0.2762 -0.3590 -0.4086
 4904TIP3    H136203   4.894   0.688  16.464  1.9397 -2.2000  1.1009
 4904TIP3    H236204   4.811   0.707  16.589  1.9068 -1.5688  0.9845
 4905TIP3   OH236205   6.728   1.952   0.196 -0.1348  0.4682  0.1856
 4905TIP3    H136206   6.701   2.039   0.167 -0.8406 -0.4012 -1.8605
 4905TIP3    H236207   6.706   1.894   0.123  2.0308 -1.1511  0.7488
 4906TIP3   OH236208   5.512   1.473  14.487  0.2540 -0.5040  0.7094
 4906TIP3    H136209   5.438   1.416  14.464 -0.1602 -0.0564  0.9448
 4906TIP3    H236210   5.559   1.486  14.404 -0.7821  0.4341  0.2650
 4907TIP3   OH236211   3.330   3.761  15.962 -0.3673 -0.3871  0.3677
 4907TIP3    H136212   3.419   3.725  15.956 -0.1767  0.3055 -1.1219
 4907TIP3    H236213   3.319   3.781  16.055  0.3577 -2.1793  0.8662
 4908TIP3   OH236214   2.712   4.053   3.001 -0.2150 -0.3158  0.1017
 4908TIP3    H136215   2.765   3.980   3.033  0.8656  0.2880 -0.2687
 4908TIP3    H236216   2.627   4.042   3.044  0.0255 -1.6184  0.2658
 4909TIP3   OH236217   1.833   6.763  16.095  0.5324  0.0015  0.1615
 4909TIP3    H136218   1.756   6.707  16.082  0.7865 -0.5997  1.1606
 4909TIP3    H236219   1.835   6.819  16.017 -2.1887  1.5807  1.1355
 4910TIP3   OH236220   5.497   4.433   4.751 -0.0291  0.2374  0.1631
 4910TIP3    H136221   5.587   4.435   4.783 -1.2483  1.0955  3.7608
 4910TIP3    H236222   5.486   4.345   4.714  1.7593 -0.4803  1.3021
 4911TIP3   OH236223   6.675   1.943  16.305  0.0802  0.7620  0.1379
 4911TIP3    H136224   6.608   2.002  16.268 -0.0787  0.9786  0.7709
 4911TIP3    H236225   6.641   1.855  16.288 -1.1645  0.8797  1.8881
 4912TIP3   OH236226   0.970   0.238   4.422  0.3566  0.5171  0.0686
 4912TIP3    H136227   1.062   0.224   4.399  0.8978 -0.3820  2.6669
 4912TIP3    H236228   0.965   0.331   4.444  0.2938  0.9000 -1.4876
 4913TIP3   OH236229   2.619   0.805   3.073  0.1783 -0.0838 -0.2791
 4913TIP3    H136230   2.646   0.896   3.087  1.5073 -0.5007 -0.0318
 4913TIP3    H236231   2.604   0.798   2.979  0.4892  0.2773 -0.3546
 4914TIP3   OH236232   1.105   6.760  15.513 -0.5303  0.1726 -0.0575
 4914TIP3    H136233   1.060   6.844  15.505 -0.1721  0.5590  1.8108
 4914TIP3    H236234   1.122   6.733  15.422 -1.1489  1.8299 -0.6769
 4915TIP3   OH236235   1.345   6.744  13.772 -0.0551  0.2709 -0.3122
 4915TIP3    H136236   1.278   6.803  13.737  0.6476  1.2498 -0.0016
 4915TIP3    H236237   1.345   6.670  13.711 -0.0601  1.1630 -1.4109
 4916TIP3   OH236238   5.370   3.590  12.102  0.4812  0.7893 -0.5027
 4916TIP3    H136239   5.427   3.572  12.177  0.9264  0.8864 -0.8122
 4916TIP3    H236240   5.358   3.685  12.105 -1.3895  0.5334  0.7886
 4917TIP3   OH236241   5.791   2.058  13.920 -0.3914 -0.1115  0.1979
 4917TIP3    H136242   5.836   2.142  13.929 -0.4019  0.0149 -0.8800
 4917TIP3    H236243   5.701   2.076  13.946 -0.5878  0.4089 -0.8246
 4918TIP3   OH236244   6.646   5.994  16.604  0.3054 -0.1229 -0.1533
 4918TIP3    H136245   6.606   6.075  16.572  0.7787  0.5556  0.9556
 4918TIP3    H236246   6.582   5.926  16.584 -0.5047  0.6609 -0.2546
 4919TIP3   OH236247   3.569   0.201   2.914  0.5898  0.2048 -0.0319
 4919TIP3    H136248   3.568   0.230   3.006 -0.2195  1.9935 -0.5771
 4919TIP3    H236249   3.500   0.135   2.909  2.3695 -1.8071  1.2080
 4920TIP3   OH236250   3.019   1.785   3.017  0.7058 -0.7120 -0.3237
 4920TIP3    H136251   3.047   1.876   3.024 -0.2697 -0.4659  0.4424
 4920TIP3    H236252   2.951   1.786   2.950  0.4634 -0.8321 -0.0756
 4921TIP3   OH236253   1.900   5.550  11.306 -0.1222  0.8070  0.1661
 4921TIP3    H136254   1.995   5.536  11.305 -0.0502  1.2557  0.4935
 4921TIP3    H236255   1.891   5.645  11.304 -0.5925  0.7488 -2.2022
 4922TIP3   OH236256   3.351   4.733   2.718 -0.7347 -0.1045  0.3244
 4922TIP3    H136257   3.342   4.749   2.812 -0.6274 -1.5416  0.5947
 4922TIP3    H236258   3.315   4.645   2.705 -2.4345  0.7777 -1.2710
 4923TIP3   OH236259   2.677   5.103  17.238  0.6214  0.7247 -0.2113
 4923TIP3    H136260   2.628   5.037  17.188 -0.1362  0.8603  0.3577
 4923TIP3    H236261   2.760   5.059  17.259  0.4058  0.2001 -0.4334
 4924TIP3   OH236262   6.600   0.686   5.939  0.5143 -0.3068  0.0169
 4924TIP3    H136263   6.683   0.639   5.930  1.9912  2.3871 -1.0481
 4924TIP3    H236264   6.578   0.678   6.032 -0.0700 -4.2740 -0.3636
 4925TIP3   OH236265   6.187   2.210   3.059 -0.0600  0.4744  0.6190
 4925TIP3    H136266   6.131   2.231   2.985  0.0584 -0.7748  0.1706
 4925TIP3    H236267   6.255   2.277   3.058 -0.4519  0.8628  0.0214
 4926TIP3   OH236268   3.645   0.707  15.583  0.2083 -0.4910 -0.0912
 4926TIP3    H136269   3.632   0.753  15.666  1.2382  0.0973 -0.2503
 4926TIP3    H236270   3.737   0.722  15.562  0.0904 -1.1196 -1.0555
 4927TIP3   OH236271   0.434   5.368   1.558 -0.1469  0.1827  0.0997
 4927TIP3    H136272   0.480   5.390   1.477  0.4936 -0.5664  0.2573
 4927TIP3    H236273   0.395   5.451   1.586  2.2520  1.1734  0.6946
 4928TIP3   OH236274   2.655   0.567  10.974  0.4322  0.1616 -0.1457
 4928TIP3    H136275   2.678   0.601  10.887  1.1846  1.1230  0.4304
 4928TIP3    H236276   2.594   0.632  11.010  2.9819  1.6918  1.5379
 4929TIP3   OH236277   1.944   0.136  14.647 -0.2821  0.0311 -0.4961
 4929TIP3    H136278   1.879   0.153  14.714  1.2748  0.9999  0.8146
 4929TIP3    H236279   1.896   0.139  14.564 -1.9047  0.5240  0.4600
 4930TIP3   OH236280   2.736   1.828   1.983 -0.3855  0.3897  0.2053
 4930TIP3    H136281   2.757   1.921   1.985  0.1103  0.2596  2.0455
 4930TIP3    H236282   2.659   1.822   1.925  1.3066  1.5375 -2.2245
 4931TIP3   OH236283   0.759   0.536  16.743 -0.0526 -0.2007 -0.0973
 4931TIP3    H136284   0.776   0.561  16.833  1.4478  0.2601 -0.5014
 4931TIP3    H236285   0.713   0.612  16.705  0.0810 -0.0546  0.0359
 4932TIP3   OH236286   5.109   3.198  12.680  0.1506  0.7867  0.2172
 4932TIP3    H136287   5.160   3.174  12.757 -0.3854  0.3845  0.4513
 4932TIP3    H236288   5.070   3.283  12.702  1.4021  1.5028 -0.2960
 4933TIP3   OH236289   4.545   1.731   4.360  0.0163 -0.0103  0.0916
 4933TIP3    H136290   4.471   1.767   4.312  0.4470 -0.9443 -1.3103
 4933TIP3    H236291   4.508   1.659   4.411 -0.0243 -0.6607 -0.8261
 4934TIP3   OH236292   1.136   4.603  11.935 -0.1449  0.4180 -0.1006
 4934TIP3    H136293   1.200   4.607  12.006  0.2731 -1.1216 -0.3650
 4934TIP3    H236294   1.176   4.653  11.864 -0.6941  2.2085  0.8228
 4935TIP3   OH236295   2.141   2.263  14.096  0.8164 -0.2448 -0.2077
 4935TIP3    H136296   2.219   2.312  14.123 -0.3469  2.7020 -2.0177
 4935TIP3    H236297   2.079   2.274  14.168  1.3439 -0.9658  0.3686
 4936TIP3   OH236298   3.310   5.137  14.489 -0.2762 -0.0218 -0.2420
 4936TIP3    H136299   3.298   5.042  14.487 -0.2080 -0.0072 -2.6835
 4936TIP3    H236300   3.224   5.172  14.465 -0.6440  0.6169  1.8319
 4937TIP3   OH236301   5.674   3.801  11.140 -0.6635 -0.4757  0.3345
 4937TIP3    H136302   5.616   3.869  11.173  0.5928  1.2112 -0.8188
 4937TIP3    H236303   5.615   3.733  11.107 -2.1138  2.3256 -3.1580
 4938TIP3   OH236304   4.014   1.153  15.319  0.1806 -0.4528  0.1610
 4938TIP3    H136305   4.024   1.170  15.413 -0.7006  1.8352 -0.1224
 4938TIP3    H236306   4.091   1.193  15.279 -0.3367  0.1462 -0.2454
 4939TIP3   OH236307   2.797   1.081  15.769 -0.3302  0.1412  0.3396
 4939TIP3    H136308   2.736   1.050  15.836  0.3530  0.1962  0.9905
 4939TIP3    H236309   2.818   1.170  15.795  1.6157 -0.5519  1.2734
 4940TIP3   OH236310   1.102   3.307   2.501  0.2055 -0.1973 -0.3274
 4940TIP3    H136311   1.023   3.285   2.551  0.2746  1.3032  0.4781
 4940TIP3    H236312   1.080   3.287   2.410 -0.4311 -1.5941  0.1346
 4941TIP3   OH236313   0.144   2.131  11.473  0.5287 -0.2654  0.4296
 4941TIP3    H136314   0.070   2.121  11.532  1.7979 -0.6407  2.0188
 4941TIP3    H236315   0.138   2.056  11.413 -1.1099  0.4501 -0.3129
 4942TIP3   OH236316   5.381   3.250   1.237 -0.0892  0.0232  0.3776
 4942TIP3    H136317   5.286   3.256   1.240 -0.1776 -0.5775 -1.1289
 4942TIP3    H236318   5.407   3.306   1.164  0.8000  1.0518  1.4608
 4943TIP3   OH236319   3.879   5.042  14.731  0.3712  0.0648 -0.3676
 4943TIP3    H136320   3.789   5.021  14.709 -0.4730  1.9100  1.2669
 4943TIP3    H236321   3.919   4.957  14.753 -1.3110 -0.5807  0.2217
 4944TIP3   OH236322   0.110   5.196   5.853  0.3562  0.3809  0.3452
 4944TIP3    H136323   0.187   5.246   5.827  0.0965  1.4077  1.4938
 4944TIP3    H236324   0.103   5.209   5.947 -0.2769 -1.0559  0.5189
 4945TIP3   OH236325   3.139   4.078  12.585  0.2303  0.1297 -0.3142
 4945TIP3    H136326   3.071   4.033  12.635 -0.4572  1.1921 -0.2760
 4945TIP3    H236327   3.093   4.115  12.509  0.8839  0.2872 -0.6423
 4946TIP3   OH236328   2.676   2.685  14.916  0.1567 -1.1300  0.2306
 4946TIP3    H136329   2.734   2.694  14.840  0.1386 -0.6339  0.2694
 4946TIP3    H236330   2.625   2.606  14.899 -0.8666 -0.2485 -0.9790
 4947TIP3   OH236331   3.851   1.275  15.887  0.0426  0.7222  0.0453
 4947TIP3    H136332   3.912   1.205  15.911  0.6706  1.1096 -0.4011
 4947TIP3    H236333   3.850   1.332  15.963  0.8704  1.1473 -0.2567
 4948TIP3   OH236334   1.637   4.385   1.760 -0.0423 -0.2326  0.1120
 4948TIP3    H136335   1.593   4.317   1.711 -2.0906 -1.7537  3.8761
 4948TIP3    H236336   1.569   4.450   1.778  0.5912  0.1485  1.1944
 4949TIP3   OH236337   5.774   6.798   3.755  0.0344  0.0002 -0.6160
 4949TIP3    H136338   5.850   6.853   3.736 -0.6982  0.3964 -2.4500
 4949TIP3    H236339   5.776   6.729   3.690 -1.2401  0.0768 -0.7589
 4950TIP3   OH236340   3.651   4.915   3.527 -0.2440  0.4649  0.1976
 4950TIP3    H136341   3.637   4.897   3.434 -2.0077 -1.4749  0.7980
 4950TIP3    H236342   3.564   4.930   3.563  0.4336  1.4384  1.4994
 4951TIP3   OH236343   3.512   3.482  15.986  0.1782  0.0289 -0.5500
 4951TIP3    H136344   3.537   3.490  16.078 -0.6772  2.0677 -0.4808
 4951TIP3    H236345   3.548   3.560  15.944 -0.3530 -0.3562 -1.7470
 4952TIP3   OH236346   0.192   5.332   5.498 -0.2572  0.1633 -0.2958
 4952TIP3    H136347   0.136   5.354   5.572 -1.5335 -2.1025 -0.5382
 4952TIP3    H236348   0.152   5.378   5.424 -2.1283 -1.8690 -0.5638
 4953TIP3   OH236349   2.477   3.070  16.106 -0.1378 -0.0651  0.2158
 4953TIP3    H136350   2.439   3.107  16.026  0.8726 -0.0600 -0.2762
 4953TIP3    H236351   2.495   2.979  16.085  2.6143  0.5840 -0.5034
 4954TIP3   OH236352   0.410   0.440  12.945 -0.2750  0.2898 -0.1196
 4954TIP3    H136353   0.496   0.483  12.944 -0.4281  0.6266  1.0166
 4954TIP3    H236354   0.350   0.507  12.978 -1.1473  0.3538 -1.7986
 4955TIP3   OH236355   2.793   5.724   0.126 -0.7910  0.6887  0.7699
 4955TIP3    H136356   2.709   5.757   0.156 -1.3915 -1.0655  1.0936
 4955TIP3    H236357   2.804   5.763   0.039 -2.0820  0.6834  0.5909
 4956TIP3   OH236358   0.715   0.697   4.640 -0.0440  0.3928 -0.7308
 4956TIP3    H136359   0.748   0.757   4.707 -0.9191 -0.8367  0.8182
 4956TIP3    H236360   0.747   0.611   4.667 -1.4157 -0.2816 -1.2235
 4957TIP3   OH236361   2.972   1.101  11.697 -0.1307 -0.9029  0.0279
 4957TIP3    H136362   2.945   1.115  11.606 -0.2488  0.8559  0.3308
 4957TIP3    H236363   2.896   1.059  11.738 -0.7542 -0.0556 -0.2443
 4958TIP3   OH236364   5.747   3.285  14.127  0.2678 -0.6239  0.0892
 4958TIP3    H136365   5.738   3.369  14.082 -0.9463 -0.9055 -0.2193
 4958TIP3    H236366   5.728   3.304  14.219 -0.1374 -0.5840 -0.0033
 4959TIP3   OH236367   5.022   5.049  13.244  0.2181 -0.2396  0.0302
 4959TIP3    H136368   5.059   4.966  13.214 -0.6251 -0.5929 -0.0359
 4959TIP3    H236369   4.932   5.048  13.211 -1.5968 -1.7682  4.7380
 4960TIP3   OH236370   4.701   1.612   4.150 -0.2423 -0.3764  0.0193
 4960TIP3    H136371   4.691   1.698   4.109 -0.1819 -1.0132 -1.3910
 4960TIP3    H236372   4.660   1.621   4.236 -0.4883  0.9743 -0.2296
 4961TIP3   OH236373   5.147   5.153   0.511  0.2266 -0.0793  0.2364
 4961TIP3    H136374   5.236   5.184   0.530  0.5641 -0.4672 -0.7113
 4961TIP3    H236375   5.139   5.158   0.416 -0.6977 -0.2599  0.2983
 4962TIP3   OH236376   3.436   1.437   4.364  0.2091 -0.0793  0.0541
 4962TIP3    H136377   3.493   1.429   4.440 -0.4830 -0.6830  0.5148
 4962TIP3    H236378   3.352   1.400   4.392 -1.0974  2.7482  0.0709
 4963TIP3   OH236379   5.598   1.001   2.628 -0.1951 -0.5556 -0.7217
 4963TIP3    H136380   5.664   0.990   2.697  0.5536  0.3504 -1.2748
 4963TIP3    H236381   5.600   0.918   2.579  1.8108  0.0819 -1.8027
 4964TIP3   OH236382   2.028   3.375  15.139 -0.3767 -0.0259  0.4837
 4964TIP3    H136383   2.054   3.384  15.047  1.0585  1.4993  1.0114
 4964TIP3    H236384   2.043   3.283  15.160  3.8360  0.5452  0.4743
 4965TIP3   OH236385   6.442   5.957  16.330 -0.2956 -0.0768  0.6000
 4965TIP3    H136386   6.398   5.878  16.360  0.1687  0.2803  2.2910
 4965TIP3    H236387   6.515   5.969  16.392  1.6175 -0.1457 -1.5742
 4966TIP3   OH236388   5.621   4.639   2.617 -0.0096  0.4256  0.6722
 4966TIP3    H136389   5.682   4.582   2.664  0.5968  0.4408 -0.0733
 4966TIP3    H236390   5.577   4.581   2.555  1.1548  0.8752 -0.6182
 4967TIP3   OH236391   6.709   1.331  13.114 -0.0846 -0.4132  0.6760
 4967TIP3    H136392   6.778   1.343  13.049 -0.9517 -0.1754 -0.2100
 4967TIP3    H236393   6.710   1.237  13.134 -1.2514 -0.8575 -1.2928
 4968TIP3   OH236394   6.457   3.953  12.518 -0.1561  0.3389 -0.1117
 4968TIP3    H136395   6.393   4.024  12.520 -1.4178 -0.8100  1.6458
 4968TIP3    H236396   6.449   3.911  12.603  0.7730 -1.7202 -1.0105
 4969TIP3   OH236397   2.307   2.094  15.277  0.1568 -0.0784 -0.7483
 4969TIP3    H136398   2.252   2.034  15.327 -0.4889  0.1099 -1.2379
 4969TIP3    H236399   2.380   2.040  15.246  0.5738 -0.1965  0.3996
 4970TIP3   OH236400   5.137   0.290  12.967  0.1555  0.3412  0.2306
 4970TIP3    H136401   5.173   0.326  12.886  0.6134 -0.5901  0.0123
 4970TIP3    H236402   5.053   0.335  12.978 -0.0941  0.2035 -0.9740
 4971TIP3   OH236403   2.152   4.541  16.138  0.8743 -0.4372  0.3109
 4971TIP3    H136404   2.067   4.498  16.144  1.0116 -0.7096  0.3040
 4971TIP3    H236405   2.216   4.469  16.136  1.0524 -0.2599 -0.6503
 4972TIP3   OH236406   2.208   6.727   1.718  0.4094 -0.1762  0.4443
 4972TIP3    H136407   2.169   6.640   1.716  0.6478 -0.3063  1.3728
 4972TIP3    H236408   2.133   6.787   1.720  0.2486 -0.3770  0.3851
 4973TIP3   OH236409   5.126   5.686   4.687  0.3985 -0.2747  0.5130
 4973TIP3    H136410   5.097   5.692   4.778 -0.6300  0.3177  0.1496
 4973TIP3    H236411   5.222   5.686   4.693  0.3375 -0.9069  1.6309
 4974TIP3   OH236412   3.048   2.462   5.144  0.4795 -0.2388 -0.0156
 4974TIP3    H136413   3.018   2.372   5.145 -2.4180  0.6855 -0.1357
 4974TIP3    H236414   3.026   2.494   5.057  1.5155  0.5988  0.0136
 4975TIP3   OH236415   2.732   0.822   4.997 -0.8389  0.3007  0.0464
 4975TIP3    H136416   2.724   0.896   5.057  0.4767  0.2768  0.2648
 4975TIP3    H236417   2.660   0.764   5.020 -0.0783  0.0671  1.9291
 4976TIP3   OH236418   0.610   5.330   0.643 -0.8427 -0.1770 -0.0962
 4976TIP3    H136419   0.636   5.276   0.569  1.6721  0.3789  0.3415
 4976TIP3    H236420   0.599   5.269   0.716 -1.4828 -0.5101 -0.4778
 4977TIP3   OH236421   3.938   0.909   4.495  0.4078  0.5001  0.3468
 4977TIP3    H136422   3.898   0.985   4.538 -0.3509  0.7881 -0.8412
 4977TIP3    H236423   3.865   0.863   4.454  1.2771  1.1649 -2.0553
 4978TIP3   OH236424   3.284   1.840   3.906 -0.1453  0.3074  0.0186
 4978TIP3    H136425   3.242   1.905   3.963 -1.2040 -0.9020  0.6434
 4978TIP3    H236426   3.257   1.755   3.942 -0.3529 -0.4881 -1.9278
 4979TIP3   OH236427   0.040   4.323   0.407 -0.0821 -0.2251  0.0617
 4979TIP3    H136428   0.011   4.413   0.424 -2.1028 -0.7115 -0.6062
 4979TIP3    H236429   0.054   4.286   0.495  0.6110  0.6772  0.3422
 4980TIP3   OH236430   6.411   2.867  11.353 -0.4444 -0.8459  0.5925
 4980TIP3    H136431   6.336   2.860  11.412 -0.5091  1.3921  0.8091
 4980TIP3    H236432   6.485   2.838  11.406 -0.6216  0.4037  1.5583
 4981TIP3   OH236433   5.962   4.413   3.142 -0.3016 -0.4343  0.2778
 4981TIP3    H136434   6.053   4.423   3.171 -0.7402  1.0387  1.1992
 4981TIP3    H236435   5.968   4.363   3.061  1.3711  0.0384  0.0888
 4982TIP3   OH236436   4.969   0.815  16.874 -0.2738  0.1019  0.0465
 4982TIP3    H136437   4.991   0.780  16.960 -0.0592  1.2570  0.4771
 4982TIP3    H236438   4.880   0.850  16.884 -0.6370 -0.6741 -0.4817
 4983TIP3   OH236439   3.205   0.964  12.757  0.2444 -0.1953  0.1112
 4983TIP3    H136440   3.228   0.954  12.665 -0.9870  1.6403 -0.4172
 4983TIP3    H236441   3.156   0.885  12.778 -0.3033 -0.1775 -1.0747
 4984TIP3   OH236442   6.015   2.831  13.589 -0.1375 -0.0389  0.4273
 4984TIP3    H136443   6.011   2.892  13.663 -0.8935 -0.5211  0.8028
 4984TIP3    H236444   6.105   2.836  13.558  0.6436 -1.0367  2.4332
 4985TIP3   OH236445   0.001   4.880  16.086 -0.4065 -0.2284 -0.2355
 4985TIP3    H136446   0.013   4.807  16.025  2.0787  0.6909 -0.9096
 4985TIP3    H236447   0.089   4.918  16.096 -1.5476  2.3515  0.4812
 4986TIP3   OH236448   3.975   2.613  15.071  0.1457  0.2814 -0.5892
 4986TIP3    H136449   3.903   2.665  15.107  1.0863  0.9970  0.2588
 4986TIP3    H236450   3.946   2.522  15.082 -0.3472  0.5484  0.3599
 4987TIP3   OH236451   2.166   3.354  11.151 -0.2213 -0.9202 -0.0099
 4987TIP3    H136452   2.081   3.390  11.129 -0.5528 -2.3795 -1.2049
 4987TIP3    H236453   2.196   3.312  11.070  1.9720  0.2185  0.1692
 4988TIP3   OH236454   3.970   5.794  10.981  0.0277  0.3713 -0.3431
 4988TIP3    H136455   3.909   5.794  10.906  0.8560  1.1339 -1.0271
 4988TIP3    H236456   3.935   5.727  11.039 -1.0928  0.3199 -1.0414
 4989TIP3   OH236457   1.822   2.066   2.991  0.2786  0.8759  0.1611
 4989TIP3    H136458   1.818   2.101   3.080  0.7831  0.4936  0.3390
 4989TIP3    H236459   1.779   1.980   2.998  0.5159  0.7505  0.0874
 4990TIP3   OH236460   0.258   2.271   1.851  0.3014 -0.3490  1.0437
 4990TIP3    H136461   0.324   2.201   1.846 -0.6525 -1.1532 -0.8319
 4990TIP3    H236462   0.246   2.298   1.760 -2.1890 -0.4250  1.3316
 4991TIP3   OH236463   1.213   1.464   3.534  0.5111 -1.0034 -0.3267
 4991TIP3    H136464   1.272   1.451   3.609 -0.1941  0.3394  0.4760
 4991TIP3    H236465   1.159   1.385   3.533  2.0755 -2.1109 -0.8757
 4992TIP3   OH236466   3.552   1.464  16.799  0.5493  0.2361 -0.1954
 4992TIP3    H136467   3.515   1.468  16.887 -0.0498  0.3236 -0.4424
 4992TIP3    H236468   3.533   1.375  16.769 -0.8157  0.7471 -0.8946
 4993TIP3   OH236469   0.970   6.328   0.411 -0.5495 -0.5606 -0.6282
 4993TIP3    H136470   0.991   6.239   0.439  0.4536  0.1582  0.9815
 4993TIP3    H236471   0.974   6.325   0.315  1.8134 -1.7018 -0.5218
 4994TIP3   OH236472   6.617   1.895   1.669  0.3194  0.2308 -0.3694
 4994TIP3    H136473   6.640   1.874   1.760 -2.3498  0.1229  0.3444
 4994TIP3    H236474   6.670   1.971   1.648  2.0151 -0.6036  0.8072
 4995TIP3   OH236475   0.241   3.060  10.953  0.2262  0.0506 -0.3945
 4995TIP3    H136476   0.291   3.117  10.895 -0.2579 -0.3203 -1.1994
 4995TIP3    H236477   0.153   3.098  10.954 -0.3229 -1.1332 -1.6104
 4996TIP3   OH236478   4.334   4.137   3.940  0.2103 -0.0505 -0.1511
 4996TIP3    H136479   4.368   4.133   3.850 -0.0367  1.2706 -0.3123
 4996TIP3    H236480   4.410   4.115   3.995  0.3873 -0.7605 -0.6696
 4997TIP3   OH236481   0.446   6.026  12.607 -0.3763  0.2016 -0.1594
 4997TIP3    H136482   0.490   5.943  12.626 -0.8712  0.3884  1.9486
 4997TIP3    H236483   0.366   6.023  12.659 -1.4411  1.1036 -1.7260
 4998TIP3   OH236484   0.561   2.180   3.334  0.1008 -0.4561  0.3993
 4998TIP3    H136485   0.518   2.241   3.394  1.7248  1.1881 -0.0530
 4998TIP3    H236486   0.591   2.108   3.390 -1.2658 -0.5376  1.0413
 4999TIP3   OH236487   1.206   4.847   3.169 -0.2162 -0.0783  0.4317
 4999TIP3    H136488   1.115   4.837   3.196 -0.5725 -0.1672 -0.7666
 4999TIP3    H236489   1.243   4.759   3.176  0.1301  0.1845  2.1137
 5000TIP3   OH236490   3.007   0.236  16.352 -0.1563 -0.6788  0.0748
 5000TIP3    H136491   2.915   0.215  16.336 -0.0779 -0.7650 -0.2734
 5000TIP3    H236492   3.054   0.195  16.279 -0.0028  0.6908 -0.6063
 5001TIP3   OH236493   2.105   1.927  15.803 -0.5758 -0.0058 -0.1334
 5001TIP3    H136494   2.172   1.990  15.776 -1.1788  0.2071 -1.1192
 5001TIP3    H236495   2.090   1.946  15.896  0.6707 -0.0052  0.0814
 5002TIP3   OH236496   5.176   4.128   5.568  0.3413  0.3210  0.1928
 5002TIP3    H136497   5.150   4.219   5.553  2.4413  1.0048  0.4772
 5002TIP3    H236498   5.222   4.103   5.488 -2.4211 -1.3808 -0.9478
 5003TIP3   OH236499   4.346   3.908  11.535 -0.5827 -0.0349 -0.1220
 5003TIP3    H136500   4.263   3.955  11.522 -0.1222  0.3998 -1.5378
 5003TIP3    H236501   4.339   3.832  11.478  0.2364  0.2998 -0.6596
 5004TIP3   OH236502   6.403   4.234  13.957 -0.3213  0.7640 -0.3948
 5004TIP3    H136503   6.475   4.177  13.930  0.7053  0.5413  2.6673
 5004TIP3    H236504   6.331   4.212  13.898  1.1962 -1.1020 -1.6017
 5005TIP3   OH236505   3.698   3.510  17.033  0.3852  0.1739 -0.5311
 5005TIP3    H136506   3.637   3.577  17.001  0.4955  0.9943  0.9852
 5005TIP3    H236507   3.649   3.428  17.024 -0.9408  0.8292  0.6517
 5006TIP3   OH236508   4.630   6.288   4.747 -0.3515 -0.2742 -0.3310
 5006TIP3    H136509   4.539   6.315   4.748 -0.5467 -0.8501 -1.4114
 5006TIP3    H236510   4.667   6.323   4.828 -1.5174 -0.0115  0.0907
 5007TIP3   OH236511   6.771   4.662  15.402  0.5055  0.2961  0.5934
 5007TIP3    H136512   6.794   4.634  15.491  1.3318 -0.3656  0.1667
 5007TIP3    H236513   6.763   4.757  15.409  0.4771  0.2386  1.3975
 5008TIP3   OH236514   6.799   6.632  13.920  0.3973  0.0397  0.0057
 5008TIP3    H136515   6.828   6.715  13.883 -2.3944  1.1382  0.1825
 5008TIP3    H236516   6.795   6.572  13.845  0.7966  0.5085 -0.3950
 5009TIP3   OH236517   2.655   6.624  12.507  0.0228  0.3514  0.4100
 5009TIP3    H136518   2.583   6.669  12.552  0.2767  1.4769 -0.3110
 5009TIP3    H236519   2.732   6.678  12.524  1.1775 -1.9782  3.0083
 5010TIP3   OH236520   0.750   2.598   1.262 -0.5434 -0.5965  0.6363
 5010TIP3    H136521   0.732   2.616   1.170  0.5882 -2.5716  0.0135
 5010TIP3    H236522   0.841   2.627   1.275 -0.3871 -1.2063  0.8981
 5011TIP3   OH236523   5.365   2.843   1.718 -0.0234  0.2100  0.1858
 5011TIP3    H136524   5.341   2.817   1.807 -1.6850 -0.6248 -0.4893
 5011TIP3    H236525   5.415   2.924   1.730  0.3792 -0.2603  1.9153
 5012TIP3   OH236526   2.280   1.710  14.589 -0.0711  0.6243 -0.3926
 5012TIP3    H136527   2.236   1.696  14.505  1.3624 -0.8777 -0.9232
 5012TIP3    H236528   2.286   1.623  14.628 -0.1031  1.2174  0.9497
 5013TIP3   OH236529   1.035   5.895   0.881  0.0260  0.0937  0.9091
 5013TIP3    H136530   0.971   5.831   0.913  0.1618 -1.5319 -1.8448
 5013TIP3    H236531   1.044   5.875   0.788  0.9271  3.4435  0.1926
 5014TIP3   OH236532   5.296   4.240  15.697 -0.1139  0.5675 -0.2768
 5014TIP3    H136533   5.231   4.227  15.628 -0.4367  0.0869  0.1098
 5014TIP3    H236534   5.244   4.257  15.775  0.1660 -1.5235  0.3917
 5015TIP3   OH236535   0.322   4.837  12.556 -0.0332 -0.4034  0.1229
 5015TIP3    H136536   0.246   4.894  12.567  0.1059 -0.4486  1.3710
 5015TIP3    H236537   0.286   4.756  12.519 -0.6619 -0.5809  1.1124
 5016TIP3   OH236538   6.350   1.143   2.514  0.1888 -0.0370 -0.1878
 5016TIP3    H136539   6.299   1.224   2.515 -2.3022 -1.5566  0.8594
 5016TIP3    H236540   6.409   1.151   2.589  2.5834  2.3346 -2.2101
 5017TIP3   OH236541   4.797   1.877  17.280 -0.4434 -0.1796 -0.1680
 5017TIP3    H136542   4.792   1.844  17.191 -0.4011 -1.1497  0.1757
 5017TIP3    H236543   4.706   1.896  17.304 -0.4050  0.4855 -0.5693
 5018TIP3   OH236544   4.558   5.011  14.299  0.2169  0.1912  0.2491
 5018TIP3    H136545   4.509   5.020  14.381  0.7910  0.6838  0.5381
 5018TIP3    H236546   4.495   5.035  14.231 -0.3522 -0.5060  0.5189
 5019TIP3   OH236547   3.509   4.876  17.142 -0.1187 -0.3917 -0.2494
 5019TIP3    H136548   3.511   4.816  17.217  0.9070  2.0343  1.7686
 5019TIP3    H236549   3.441   4.940  17.164 -0.7390 -0.4168 -2.0378
 5020TIP3   OH236550   4.838   3.304   4.765  0.4566 -0.2536 -0.6363
 5020TIP3    H136551   4.813   3.249   4.690 -2.9715  1.4586 -0.8237
 5020TIP3    H236552   4.778   3.279   4.835  1.0384  0.9552  0.3107
 5021TIP3   OH236553   2.267   5.774  14.798  0.9600 -0.5522 -0.4117
 5021TIP3    H136554   2.287   5.747  14.888 -0.6241  0.0207  0.1246
 5021TIP3    H236555   2.171   5.771  14.793  0.9485  1.1168 -1.5423
 5022TIP3   OH236556   4.420   3.299  13.053 -0.9010 -0.1597 -0.0655
 5022TIP3    H136557   4.345   3.243  13.074 -0.6681  0.4969  2.6255
 5022TIP3    H236558   4.458   3.322  13.138  1.9591  0.0721 -1.3583
 5023TIP3   OH236559   4.260   0.515  13.960 -0.5591  0.0980 -0.4962
 5023TIP3    H136560   4.210   0.501  13.879 -2.1765 -2.0169  0.8236
 5023TIP3    H236561   4.255   0.431  14.006  5.0484 -0.5284 -0.7143
 5024TIP3   OH236562   3.151   2.993   5.400 -0.3295  0.7491  0.1913
 5024TIP3    H136563   3.085   3.001   5.331 -0.6085 -1.2884  0.1706
 5024TIP3    H236564   3.215   2.932   5.364 -0.6146 -0.5322  1.8066
 5025TIP3   OH236565   0.650   1.859  14.732  0.0921 -0.2528 -0.1211
 5025TIP3    H136566   0.645   1.843  14.638  2.5563  1.4297 -0.6162
 5025TIP3    H236567   0.675   1.775  14.769 -1.1231 -0.9899 -0.9342
 5026TIP3   OH236568   5.390   2.427   3.963 -0.0044  0.3119 -0.3499
 5026TIP3    H136569   5.439   2.442   4.044  1.6797 -1.7653 -0.9697
 5026TIP3    H236570   5.431   2.485   3.899  1.1643 -0.8485 -0.6683
 5027TIP3   OH236571   3.456   3.517   1.322 -0.0378  0.5716 -0.7196
 5027TIP3    H136572   3.392   3.449   1.302 -1.1640  0.8695  1.6296
 5027TIP3    H236573   3.516   3.517   1.247 -0.6029 -2.2769 -1.2411
 5028TIP3   OH236574   0.664   5.760   0.407  0.1623 -0.3419  0.0269
 5028TIP3    H136575   0.626   5.694   0.465 -0.9946  0.0365 -0.2703
 5028TIP3    H236576   0.617   5.749   0.325 -0.6151  1.3584  0.2139
 5029TIP3   OH236577   5.621   3.007  11.599 -0.1447  0.1048 -0.3982
 5029TIP3    H136578   5.610   3.063  11.676  1.1166  1.3655 -1.1198
 5029TIP3    H236579   5.574   3.053  11.529 -0.0464 -0.2978 -0.7308
 5030TIP3   OH236580   5.527   5.950   4.135 -0.3168  0.4930  0.0502
 5030TIP3    H136581   5.579   6.025   4.106 -0.5636  0.9402  0.7629
 5030TIP3    H236582   5.576   5.913   4.208 -1.6884  1.7796  1.6653
 5031TIP3   OH236583   5.832   1.659   2.845  0.1756  0.1240  0.1407
 5031TIP3    H136584   5.895   1.589   2.864  0.5718  0.2677 -0.6018
 5031TIP3    H236585   5.776   1.663   2.922  0.2747 -0.8777  0.2753
 5032TIP3   OH236586   2.970   4.905  13.166 -0.1701 -0.5819  0.4019
 5032TIP3    H136587   3.058   4.867  13.168 -0.0082 -0.2382 -0.2425
 5032TIP3    H236588   2.984   4.999  13.168 -0.4954 -0.5099 -0.3734
 5033TIP3   OH236589   0.901   5.894  11.872 -0.2317  0.0866  0.0269
 5033TIP3    H136590   0.831   5.834  11.845 -1.1138  0.5262  1.2815
 5033TIP3    H236591   0.861   5.981  11.868  0.0656  0.2925  1.2898
 5034TIP3   OH236592   5.486   3.990   0.127  0.1506 -0.1772 -0.4161
 5034TIP3    H136593   5.511   4.067   0.178 -0.0442 -0.9779  0.9337
 5034TIP3    H236594   5.552   3.983   0.059 -0.1177  1.4750 -0.8541
 5035TIP3   OH236595   6.691   1.457   5.242 -0.1049 -0.0268 -0.0598
 5035TIP3    H136596   6.626   1.387   5.242  2.0607 -2.1476  1.0349
 5035TIP3    H236597   6.648   1.531   5.285 -2.2219 -0.9098 -0.6368
 5036TIP3   OH236598   1.706   4.331  10.805  0.1561  0.3042 -0.2298
 5036TIP3    H136599   1.769   4.389  10.762  1.3655 -0.2136  0.8244
 5036TIP3    H236600   1.722   4.343  10.899 -0.7351 -0.4780  0.0270
 5037TIP3   OH236601   3.634   3.598   0.114 -0.7393  0.0605 -0.4773
 5037TIP3    H136602   3.561   3.544   0.083 -0.1608 -0.2733 -1.2945
 5037TIP3    H236603   3.691   3.536   0.160 -0.0789 -0.0432 -1.4095
 5038TIP3   OH236604   4.683   1.913   1.139 -0.0682 -0.6291 -0.3764
 5038TIP3    H136605   4.750   1.885   1.202  1.1003  0.7877 -0.9441
 5038TIP3    H236606   4.667   1.836   1.085 -1.0105 -1.8305  1.5630
 5039TIP3   OH236607   6.687   2.465   2.619  0.1212 -0.3201  0.0774
 5039TIP3    H136608   6.668   2.416   2.699 -0.7166 -1.8408 -1.0353
 5039TIP3    H236609   6.735   2.542   2.650 -1.7826  0.0784  2.2295
 5040TIP3   OH236610   4.086   4.334  12.862  0.3473 -0.1516 -0.2744
 5040TIP3    H136611   4.069   4.260  12.804  1.0648 -1.1237  0.7527
 5040TIP3    H236612   4.156   4.384  12.818  1.2872 -1.1953  0.0263
 5041TIP3   OH236613   2.769   1.962  10.674  0.0834  0.1758  0.3262
 5041TIP3    H136614   2.694   1.956  10.616  0.2178  0.5719  0.1136
 5041TIP3    H236615   2.834   2.012  10.625  0.8858 -1.0892  0.0777
 5042TIP3   OH236616   0.923   1.784  13.906 -0.0996  0.1186  0.0121
 5042TIP3    H136617   0.882   1.856  13.953  1.3402  1.8651 -1.3420
 5042TIP3    H236618   1.016   1.793  13.925  0.3848  0.2522 -2.3434
 5043TIP3   OH236619   1.539   0.648   3.197  0.1284 -0.3316  0.1811
 5043TIP3    H136620   1.481   0.637   3.272  1.6733  1.5365  1.7182
 5043TIP3    H236621   1.585   0.565   3.190 -1.3210 -1.1455  0.1489
 5044TIP3   OH236622   1.566   6.710  13.496  0.3187  0.2284  0.1236
 5044TIP3    H136623   1.546   6.637  13.555 -0.8351 -0.0312 -0.5855
 5044TIP3    H236624   1.512   6.783  13.528  0.6125  0.4425  0.1346
 5045TIP3   OH236625   0.616   2.507  14.591 -0.0823  0.0419  0.1563
 5045TIP3    H136626   0.536   2.473  14.551  0.9144 -2.9835  0.5315
 5045TIP3    H236627   0.675   2.522  14.518 -0.1771 -0.0820  0.0546
 5046TIP3   OH236628   1.682   0.288  14.049 -0.5199 -0.2351 -0.1160
 5046TIP3    H136629   1.727   0.275  13.966 -1.5970  0.7192 -0.8479
 5046TIP3    H236630   1.735   0.238  14.112  1.8213  1.2075 -0.8773
 5047TIP3   OH236631   2.918   0.249  17.184 -0.1977 -0.2767 -0.2923
 5047TIP3    H136632   3.007   0.278  17.203 -0.7439 -0.0503  2.0212
 5047TIP3    H236633   2.864   0.327  17.193 -0.8826 -0.7963  0.1782
 5048TIP3   OH236634   4.137   6.143   4.015  0.3283  0.6834  0.0696
 5048TIP3    H136635   4.224   6.114   4.043  0.1178  0.5883  0.6165
 5048TIP3    H236636   4.121   6.094   3.934 -0.0487 -0.7766  1.0125
 5049TIP3   OH236637   0.850   4.707   5.841  0.2794  1.0579 -0.1954
 5049TIP3    H136638   0.843   4.612   5.827 -0.8075  1.2063 -0.7053
 5049TIP3    H236639   0.928   4.733   5.791  0.8219  0.3739  0.2846
 5050TIP3   OH236640   0.980   1.175   0.351 -0.4693 -0.8543 -0.4380
 5050TIP3    H136641   0.959   1.103   0.291  0.5355 -1.9141  0.4616
 5050TIP3    H236642   0.987   1.252   0.294 -1.1357 -1.5392 -1.4644
 5051TIP3   OH236643   6.267   4.745   3.006  0.1419  0.2078  0.1406
 5051TIP3    H136644   6.295   4.662   3.046 -2.8638 -0.5170  0.8650
 5051TIP3    H236645   6.251   4.803   3.080  1.1132  1.0863 -0.3268
 5052TIP3   OH236646   0.048   1.044   1.795  0.4307 -0.4660  0.2094
 5052TIP3    H136647  -0.037   1.070   1.832  0.0356 -1.3700 -0.0555
 5052TIP3    H236648   0.112   1.070   1.862 -0.0060  0.6065  0.2294
 5053TIP3   OH236649   5.641   5.265  13.470  0.4341  0.0818 -0.9438
 5053TIP3    H136650   5.616   5.256  13.562  1.2032  0.3979 -0.6980
 5053TIP3    H236651   5.722   5.215  13.462  0.9872  0.9880 -1.1739
 5054TIP3   OH236652   1.386   1.568  14.695  0.1920 -0.0122  0.5828
 5054TIP3    H136653   1.316   1.507  14.671  0.0037 -0.3264  1.9385
 5054TIP3    H236654   1.463   1.512  14.704  0.6714  0.3466 -1.0107
 5055TIP3   OH236655   3.613   4.614   6.358 -0.0017 -0.3844  0.0815
 5055TIP3    H136656   3.524   4.590   6.332 -0.4570  1.2741  0.1070
 5055TIP3    H236657   3.658   4.631   6.275 -0.3701  1.0678  0.1647
 5056TIP3   OH236658   0.423   3.733  12.263 -0.3207 -0.1982 -0.1133
 5056TIP3    H136659   0.407   3.774  12.348  0.9592  0.4715 -0.1736
 5056TIP3    H236660   0.507   3.771  12.234 -1.1537  0.2245 -2.0606
 5057TIP3   OH236661   1.010   4.225   3.565 -0.1766  0.6073 -0.4875
 5057TIP3    H136662   0.935   4.181   3.525 -1.7637  0.9974  1.9351
 5057TIP3    H236663   1.084   4.201   3.510 -2.0291  0.0463 -2.8327
 5058TIP3   OH236664   4.829   2.983   3.868  0.0158  0.4568 -0.2421
 5058TIP3    H136665   4.824   2.890   3.845  0.2960  0.4370 -0.2300
 5058TIP3    H236666   4.797   3.029   3.791 -0.1679  0.3462 -0.2308
 5059TIP3   OH236667   5.369   1.885  11.714 -0.5110  0.0344  0.6387
 5059TIP3    H136668   5.390   1.933  11.794 -0.6405 -0.7661  1.1529
 5059TIP3    H236669   5.273   1.888  11.710 -0.5399 -0.5767  0.9125
 5060TIP3   OH236670   2.771   0.985   4.028  0.6685 -0.1578 -0.4008
 5060TIP3    H136671   2.791   0.999   4.120  0.8513 -2.0892 -0.1342
 5060TIP3    H236672   2.692   1.036   4.013 -0.1110 -0.8723  1.1680
 5061TIP3   OH236673   5.917   1.027  13.517  0.8343 -0.0574 -0.1288
 5061TIP3    H136674   5.956   1.007  13.432  3.8429 -0.5596  1.3112
 5061TIP3    H236675   5.919   1.123  13.522  1.2828 -0.0576 -0.3321
 5062TIP3   OH236676   3.714   2.231   0.119  0.4950  0.6304  0.0730
 5062TIP3    H136677   3.687   2.157   0.065 -1.4660 -0.3466  2.2689
 5062TIP3    H236678   3.804   2.210   0.145  0.4460 -0.2953 -0.4632
 5063TIP3   OH236679   5.694   2.735   0.217  0.3399  0.7607  0.2200
 5063TIP3    H136680   5.732   2.823   0.216  1.1715  0.3976 -0.3761
 5063TIP3    H236681   5.706   2.703   0.128 -0.6023  0.3098  0.2485
 5064TIP3   OH236682   4.522   1.312  11.880 -0.5309 -0.3792 -0.2576
 5064TIP3    H136683   4.462   1.250  11.921  0.0080 -0.1501  0.9057
 5064TIP3    H236684   4.546   1.372  11.950 -1.3211  1.3747 -1.4497
 5065TIP3   OH236685   4.362   3.004  11.417 -1.0877 -0.2634 -0.4267
 5065TIP3    H136686   4.372   2.972  11.327  0.6757  0.9596 -0.6876
 5065TIP3    H236687   4.355   2.925  11.470  0.4149 -1.0414 -1.3620
 5066TIP3   OH236688   2.287   2.102  12.606  0.4797  0.2682  0.2580
 5066TIP3    H136689   2.369   2.151  12.604  1.9467 -2.1013 -0.7278
 5066TIP3    H236690   2.298   2.041  12.679  0.4242 -1.3223 -1.0219
 5067TIP3   OH236691   4.158   4.504   3.884 -0.4965 -0.2741  0.5013
 5067TIP3    H136692   4.205   4.525   3.965  0.8089  1.1711 -0.6251
 5067TIP3    H236693   4.121   4.587   3.855 -0.1426 -0.6000 -0.9218
 5068TIP3   OH236694   0.394   4.090   0.241  0.3923 -0.0315  0.1782
 5068TIP3    H136695   0.380   4.169   0.190  0.1051 -0.0647  0.2047
 5068TIP3    H236696   0.488   4.088   0.257 -0.1642  3.1417  4.7339
 5069TIP3   OH236697   3.350   0.103  15.968 -0.2673  1.0498 -0.2778
 5069TIP3    H136698   3.404   0.180  15.953  1.4072 -0.3012 -1.3576
 5069TIP3    H236699   3.273   0.116  15.912 -0.2465  2.1928 -0.0371
 5070TIP3   OH236700   4.733   3.392   2.683  0.1273  0.2070  0.2452
 5070TIP3    H136701   4.693   3.467   2.639  1.3262 -0.9501 -2.9660
 5070TIP3    H236702   4.743   3.327   2.614  3.0415 -1.3070  2.0219
 5071TIP3   OH236703   2.324   4.812  13.145 -0.2166 -0.2027  0.0627
 5071TIP3    H136704   2.246   4.757  13.143 -0.2566 -0.1334 -0.2328
 5071TIP3    H236705   2.347   4.826  13.053 -1.3754  1.9323  0.0675
 5072TIP3   OH236706   2.584   5.461   5.342  0.0344  0.1313 -0.0358
 5072TIP3    H136707   2.519   5.528   5.321  0.2230  0.2063 -0.3695
 5072TIP3    H236708   2.537   5.378   5.332  0.0132  0.1825 -0.3522
 5073TIP3   OH236709   0.710   6.472   5.555 -0.3554 -0.7469 -0.1162
 5073TIP3    H136710   0.692   6.481   5.648  1.3202 -1.7917  0.3438
 5073TIP3    H236711   0.642   6.523   5.511 -0.8646  0.1416  1.6935
 5074TIP3   OH236712   1.726   1.137   4.538  0.0832 -0.1816  0.8587
 5074TIP3    H136713   1.733   1.045   4.511  0.6995 -0.0189  0.4751
 5074TIP3    H236714   1.637   1.162   4.511 -0.0442 -0.6298  0.8526
 5075TIP3   OH236715   2.961   2.201  14.727  0.2023  0.5964  0.3978
 5075TIP3    H136716   2.891   2.174  14.667  0.2236 -1.1495  1.1102
 5075TIP3    H236717   2.916   2.229  14.806  0.2664  0.1473  0.5976
 5076TIP3   OH236718   0.348   4.384   3.978  0.0106  0.2895  0.5719
 5076TIP3    H136719   0.262   4.412   4.008 -0.3987  0.3244 -0.6109
 5076TIP3    H236720   0.334   4.296   3.944  0.7001 -0.1945  1.5027
 5077TIP3   OH236721   3.126   5.634  11.545 -0.3173 -0.0839 -0.1110
 5077TIP3    H136722   3.041   5.679  11.551  0.4226  1.3539 -0.2711
 5077TIP3    H236723   3.105   5.549  11.506 -1.5728  0.5899 -0.9383
 5078TIP3   OH236724   0.490   1.957   0.494  0.5480 -0.6037 -0.0194
 5078TIP3    H136725   0.444   1.983   0.414 -0.4863 -1.0138  0.4460
 5078TIP3    H236726   0.526   1.870   0.473 -0.4947 -1.1125  0.2716
 5079TIP3   OH236727   6.765   5.291  11.952  0.3649  0.7221 -0.2755
 5079TIP3    H136728   6.829   5.270  11.884  0.1767  0.3872 -0.3523
 5079TIP3    H236729   6.680   5.289  11.906  0.3056  1.2104 -0.1863
 5080TIP3   OH236730   1.686   0.727   6.266  0.3581 -0.3296  0.0978
 5080TIP3    H136731   1.679   0.658   6.332 -0.7090 -1.1383 -0.8463
 5080TIP3    H236732   1.601   0.727   6.222  1.4946 -0.6940 -2.1541
 5081TIP3   OH236733   4.230   4.502  12.640 -0.2013  0.0753  1.1879
 5081TIP3    H136734   4.282   4.427  12.669  0.8134  0.8156  1.2969
 5081TIP3    H236735   4.286   4.547  12.577 -1.3651 -0.0478  0.0379
 5082TIP3   OH236736   1.536   1.124  14.393  0.4510  0.3726 -0.2522
 5082TIP3    H136737   1.501   1.153  14.309  2.3520 -0.7234 -1.4515
 5082TIP3    H236738   1.630   1.142  14.387  0.4493  1.3785  2.1184
 5083TIP3   OH236739   1.788   5.905   5.290  0.4766 -0.4023  0.2806
 5083TIP3    H136740   1.880   5.920   5.313  0.7929  1.1390 -1.7910
 5083TIP3    H236741   1.739   5.935   5.367  1.6184  1.3652  0.3708
 5084TIP3   OH236742   2.892   0.051   1.449 -0.0730 -0.0618 -0.3730
 5084TIP3    H136743   2.945  -0.027   1.428  0.0044  0.0177 -0.4714
 5084TIP3    H236744   2.923   0.118   1.388 -1.9725 -0.7055 -2.1136
 5085TIP3   OH236745   6.336   3.432  14.238  0.0281 -0.0216  0.5275
 5085TIP3    H136746   6.335   3.435  14.142 -2.2086  0.3602  0.5268
 5085TIP3    H236747   6.263   3.374  14.261 -1.5670  2.4394  2.0024
 5086TIP3   OH236748   4.218   0.752  15.930 -0.5324 -0.0038 -0.2050
 5086TIP3    H136749   4.279   0.825  15.920 -2.4897  1.5556 -1.3917
 5086TIP3    H236750   4.265   0.676  15.895  0.9479  1.0147 -0.4814
 5087TIP3   OH236751   3.692   1.398  13.584 -0.1591 -0.4109  0.4615
 5087TIP3    H136752   3.661   1.463  13.648  2.2165  1.2515 -0.0007
 5087TIP3    H236753   3.645   1.419  13.503 -2.2303 -1.7220  1.2851
 5088TIP3   OH236754   2.771   6.137  16.199  0.0933  0.0033  0.4865
 5088TIP3    H136755   2.749   6.220  16.241  1.1319  0.4365  0.1643
 5088TIP3    H236756   2.767   6.073  16.271 -0.6834  0.3246  0.7373
 5089TIP3   OH236757   0.561   1.662  11.412  0.5318  0.1039 -0.0280
 5089TIP3    H136758   0.598   1.650  11.325  0.1610  0.8360 -0.2931
 5089TIP3    H236759   0.637   1.668  11.470  0.7873 -0.0449 -0.3522
 5090TIP3   OH236760   5.123   2.892  11.791  0.3582 -0.2793  0.3303
 5090TIP3    H136761   5.108   2.890  11.696 -0.2520  0.9689  0.3985
 5090TIP3    H236762   5.137   2.800  11.814  0.1542 -0.6373 -0.9105
 5091TIP3   OH236763   6.556   2.900   0.748 -0.5735 -0.1489 -0.6573
 5091TIP3    H136764   6.469   2.875   0.717 -0.5010 -1.0854 -0.1501
 5091TIP3    H236765   6.541   2.939   0.834 -0.6744  1.4846 -1.4035
 5092TIP3   OH236766   2.999   6.655   4.167 -0.5976  0.7867  0.0980
 5092TIP3    H136767   3.030   6.628   4.254 -1.8568  1.9675  0.9321
 5092TIP3    H236768   3.051   6.732   4.146  0.8860 -0.4809 -0.9538
 5093TIP3   OH236769   4.004   5.709  13.643  0.1643 -0.2688 -0.1660
 5093TIP3    H136770   3.961   5.781  13.596  0.8662  1.3487  1.5787
 5093TIP3    H236771   4.089   5.744  13.667  0.4748 -1.6687  0.8235
 5094TIP3   OH236772   0.449   4.113  10.206 -0.6352  0.0970  0.2075
 5094TIP3    H136773   0.453   4.147  10.295  0.4287  2.5243 -0.7352
 5094TIP3    H236774   0.429   4.189  10.152 -1.3876 -1.3685 -1.6214
 5095TIP3   OH236775   4.377   1.101  12.017  0.1653  0.0249  0.4651
 5095TIP3    H136776   4.298   1.105  11.962 -0.8422 -1.1205  1.7817
 5095TIP3    H236777   4.345   1.069  12.102  1.9057  0.4916  1.3092
 5096TIP3   OH236778   3.547   1.281   1.788  0.1781  0.1635  0.1516
 5096TIP3    H136779   3.533   1.375   1.796  1.2625  0.3158  0.3585
 5096TIP3    H236780   3.520   1.245   1.872  1.1897  0.4751  0.6211
 5097TIP3   OH236781   4.135   2.650   4.620 -0.0827  0.2450  0.3354
 5097TIP3    H136782   4.208   2.705   4.648 -0.2859  0.6696  0.0392
 5097TIP3    H236783   4.164   2.561   4.640  0.0697  0.4826  1.2260
 5098TIP3   OH236784   2.415   6.346  15.466 -0.1148  0.3608 -0.1599
 5098TIP3    H136785   2.488   6.291  15.438 -0.0404 -0.9954  2.5569
 5098TIP3    H236786   2.367   6.293  15.530 -1.4373  2.5321  0.7354
 5099TIP3   OH236787   0.760   3.331  11.356 -0.6119  0.0969 -0.3102
 5099TIP3    H136788   0.738   3.395  11.424  0.7110  0.1080  0.1387
 5099TIP3    H236789   0.853   3.312  11.372 -1.3391 -3.0843  0.5340
 5100TIP3   OH236790   1.484   5.988  15.963  0.5299 -0.1550  0.0501
 5100TIP3    H136791   1.479   6.070  15.914 -1.4842  0.5001  1.3015
 5100TIP3    H236792   1.499   5.921  15.896  1.4937  1.1370 -1.0511
 5101TIP3   OH236793   0.402   1.391  16.598  0.5844  0.2392  0.8500
 5101TIP3    H136794   0.421   1.485  16.593  1.7422 -0.0042  0.5244
 5101TIP3    H236795   0.371   1.369  16.510 -0.4395  0.4720  1.1497
 5102TIP3   OH236796   1.729   0.876  16.277  0.0774  0.3574  0.5070
 5102TIP3    H136797   1.752   0.964  16.305  2.7013 -0.1857  0.1412
 5102TIP3    H236798   1.750   0.874  16.184  1.1487 -1.0101  0.7755
 5103TIP3   OH236799   1.659   0.767   0.389  0.0918 -0.2428  0.0609
 5103TIP3    H136800   1.567   0.776   0.412 -0.0198 -1.4194  0.0785
 5103TIP3    H236801   1.705   0.818   0.456 -0.4891 -0.3656  0.5608
 5104TIP3   OH236802   1.684   4.798  13.292 -0.0249 -0.0178 -0.1416
 5104TIP3    H136803   1.678   4.736  13.365  2.8625 -0.6659 -0.3949
 5104TIP3    H236804   1.713   4.879  13.332  0.7740 -0.1479 -0.4568
 5105TIP3   OH236805   5.863   2.718  13.386 -0.2065  0.3299  0.0060
 5105TIP3    H136806   5.850   2.628  13.414 -1.1029  0.1008 -1.0746
 5105TIP3    H236807   5.927   2.754  13.447  0.8891 -1.3166 -0.1334
 5106TIP3   OH236808   5.385   6.336  12.572 -0.1173 -0.0021 -0.5406
 5106TIP3    H136809   5.434   6.418  12.564 -0.0106  0.1348  1.2504
 5106TIP3    H236810   5.451   6.270  12.593 -0.3753 -0.3120 -0.6888
 5107TIP3   OH236811   1.047   5.897   5.487 -0.1765 -0.4899  0.3730
 5107TIP3    H136812   0.968   5.873   5.536 -0.8730 -2.5728 -1.6607
 5107TIP3    H236813   1.115   5.840   5.523 -0.2845 -0.7627  0.1510
 5108TIP3   OH236814   2.441   2.060   3.558 -0.0957  0.1571 -0.9063
 5108TIP3    H136815   2.504   2.116   3.511 -0.0676 -0.2918 -1.4094
 5108TIP3    H236816   2.491   2.025   3.632  0.3259 -0.3969 -1.4473
 5109TIP3   OH236817   6.012   0.349  13.782 -0.3029 -0.0740  0.6152
 5109TIP3    H136818   6.021   0.424  13.723  3.1523 -0.2101  0.8681
 5109TIP3    H236819   6.038   0.274  13.729 -1.4517 -0.7754  1.0424
 5110TIP3   OH236820   4.301   3.513  12.813 -0.2685  0.5041  0.5815
 5110TIP3    H136821   4.222   3.563  12.830 -0.8582 -0.8775  2.0943
 5110TIP3    H236822   4.270   3.424  12.798  0.9707  0.0419  0.7240
 5111TIP3   OH236823   6.229   5.796  14.372 -0.1677 -0.2389 -0.0571
 5111TIP3    H136824   6.304   5.827  14.321  0.4700  1.2389  1.7263
 5111TIP3    H236825   6.170   5.870  14.378 -0.3456 -0.4546  1.1213
 5112TIP3   OH236826   2.514   5.081   2.314  0.3134 -0.3602  0.3201
 5112TIP3    H136827   2.559   4.998   2.325 -0.1212 -0.6167  0.1531
 5112TIP3    H236828   2.566   5.144   2.365 -0.3275 -1.0536  1.8421
 5113TIP3   OH236829   0.202   5.765   5.321  0.3526 -0.4719 -0.6046
 5113TIP3    H136830   0.227   5.745   5.411 -0.2628  0.0325 -0.3122
 5113TIP3    H236831   0.178   5.681   5.283 -0.2025 -0.5829 -0.0290
 5114TIP3   OH236832   4.880   3.185  16.468  0.4328  0.0270  0.3700
 5114TIP3    H136833   4.938   3.215  16.399 -1.6198  1.2217 -0.8794
 5114TIP3    H236834   4.813   3.252  16.475 -0.6967 -1.2015  1.9310
 5115TIP3   OH236835   4.769   4.420  10.070 -0.0095 -0.6399  0.5137
 5115TIP3    H136836   4.707   4.384  10.006 -0.7115  0.9450  0.2633
 5115TIP3    H236837   4.833   4.351  10.084 -0.5489 -1.4519 -0.9810
 5116TIP3   OH236838   5.339   4.052   3.959  0.3558  0.6888  0.3603
 5116TIP3    H136839   5.313   4.111   4.030 -0.8510 -0.1427  0.6365
 5116TIP3    H236840   5.382   3.979   4.004  1.0954  0.9662  0.0957
 5117TIP3   OH236841   3.843   4.651  12.631 -0.0833  0.3703  0.0746
 5117TIP3    H136842   3.915   4.714  12.636  0.1129  0.1073  0.6867
 5117TIP3    H236843   3.770   4.693  12.676 -0.7032  1.1381 -1.6066
 5118TIP3   OH236844   3.708   4.530   2.729 -0.2703  0.0477 -0.2499
 5118TIP3    H136845   3.646   4.484   2.785 -0.2164  0.8901  0.5130
 5118TIP3    H236846   3.756   4.460   2.685 -1.7851 -0.6081 -0.8875
 5119TIP3   OH236847   5.639   4.006   1.761 -0.6165  0.6638  0.1839
 5119TIP3    H136848   5.706   3.938   1.758 -0.2711  0.9758  0.9061
 5119TIP3    H236849   5.585   3.985   1.837 -0.7642  0.9600  0.1661
 5120TIP3   OH236850   6.068   5.031  17.054  0.3242  0.9693  0.4751
 5120TIP3    H136851   6.010   5.098  17.089 -1.5500  0.9868 -2.4466
 5120TIP3    H236852   6.059   5.039  16.959  2.2090 -1.5787  0.0164
 5121TIP3   OH236853   4.477   1.962   2.493  0.1286  0.5111 -0.1676
 5121TIP3    H136854   4.417   1.890   2.514  1.6583 -0.8206 -0.2712
 5121TIP3    H236855   4.482   2.012   2.575 -0.4502  0.1418  0.1034
 5122TIP3   OH236856   4.115   5.481  15.564 -0.3621 -0.3659 -0.5060
 5122TIP3    H136857   4.206   5.502  15.540 -0.9410  0.6511 -1.8289
 5122TIP3    H236858   4.121   5.456  15.656  1.2403 -0.1145 -0.5138
 5123TIP3   OH236859   6.575   4.960   5.895  0.0523  0.1170 -0.1902
 5123TIP3    H136860   6.616   4.928   5.975  0.6932 -0.2706 -0.6657
 5123TIP3    H236861   6.646   5.000   5.846  0.3162 -2.3808 -1.9612
 5124TIP3   OH236862   0.604   0.711  16.595 -0.4562 -0.3301  0.1055
 5124TIP3    H136863   0.532   0.774  16.595  0.9136  1.3208  2.9294
 5124TIP3    H236864   0.642   0.717  16.508 -2.4513  0.2424 -0.7567
 5125TIP3   OH236865   0.571   5.810  14.417  1.3732  0.0340 -0.5982
 5125TIP3    H136866   0.610   5.726  14.438  0.8093 -0.1449 -0.2560
 5125TIP3    H236867   0.557   5.852  14.502  0.6420  0.0097 -0.6989
 5126TIP3   OH236868   4.271   5.295  11.103 -0.0101 -0.0495  0.1675
 5126TIP3    H136869   4.361   5.287  11.072  0.0020  1.0173 -0.0948
 5126TIP3    H236870   4.273   5.368  11.165 -0.4634 -0.7930  1.0690
 5127TIP3   OH236871   1.663   5.282   5.542  0.4700  0.0694  0.7029
 5127TIP3    H136872   1.621   5.199   5.564  0.8046  0.2403  2.0056
 5127TIP3    H236873   1.727   5.296   5.611  1.6378  0.5562 -0.4614
 5128TIP3   OH236874   6.278   5.730  16.397  0.2246 -0.5635  0.0416
 5128TIP3    H136875   6.244   5.650  16.439 -0.8094 -0.0679  0.1564
 5128TIP3    H236876   6.244   5.726  16.308  0.9180 -0.6949 -0.2188
 5129TIP3   OH236877   6.015   6.595  11.611  0.2493 -0.0026  0.2635
 5129TIP3    H136878   5.963   6.540  11.553 -0.9988  0.4211  0.9782
 5129TIP3    H236879   6.066   6.651  11.551  0.2858 -0.7742 -0.4359
 5130TIP3   OH236880   2.513   3.755  14.750 -0.4421 -0.1058 -0.2969
 5130TIP3    H136881   2.440   3.782  14.695 -1.6222 -1.4779  0.5426
 5130TIP3    H236882   2.486   3.780  14.839  0.6046  0.3814 -0.1151
 5131TIP3   OH236883   4.493   1.821  16.158 -0.1349 -0.6438 -0.0103
 5131TIP3    H136884   4.512   1.760  16.229 -1.5374  1.5516  2.3275
 5131TIP3    H236885   4.411   1.788  16.120 -0.9230 -0.2243  1.2830
 5132TIP3   OH236886   6.750   2.669   2.001  0.0644 -0.3124  0.1529
 5132TIP3    H136887   6.808   2.745   2.005 -1.7429  1.1896 -1.3090
 5132TIP3    H236888   6.780   2.619   1.926  0.5427 -0.4629  0.4408
 5133TIP3   OH236889   4.714   6.684  11.959  0.3412  0.1997  0.1555
 5133TIP3    H136890   4.686   6.593  11.968  0.8115  0.2294  2.2085
 5133TIP3    H236891   4.803   6.684  11.994 -0.2516  1.7671  1.6826
 5134TIP3   OH236892   2.802   0.746  16.838  0.3698  0.3189 -0.6834
 5134TIP3    H136893   2.890   0.712  16.853  0.1778 -0.3074 -0.9848
 5134TIP3    H236894   2.759   0.739  16.923 -0.0861 -1.4117 -1.0346
 5135TIP3   OH236895   4.436   5.103   0.927  0.1131 -0.2264  0.0740
 5135TIP3    H136896   4.396   5.172   0.875  0.8604 -0.0840 -0.3067
 5135TIP3    H236897   4.509   5.072   0.875 -0.0158 -1.0783  0.3935
 5136TIP3   OH236898   1.823   4.307   3.809 -0.0456  0.0961 -0.4010
 5136TIP3    H136899   1.782   4.348   3.733  0.4526 -1.4172 -1.5071
 5136TIP3    H236900   1.869   4.378   3.853  0.2450  0.8451 -1.9059
 5137TIP3   OH236901   5.816   6.359  11.855  0.3411  0.4328 -0.1982
 5137TIP3    H136902   5.843   6.404  11.775  0.8946 -0.3200 -0.4392
 5137TIP3    H236903   5.842   6.268  11.842  1.5019  0.5200  1.3211
 5138TIP3   OH236904   2.420   4.329   6.541  0.1302  0.0483  0.3885
 5138TIP3    H136905   2.450   4.244   6.510 -0.0258 -0.0738  0.5679
 5138TIP3    H236906   2.327   4.316   6.563  0.0248  0.3422  0.1247
 5139TIP3   OH236907   3.208   1.690  16.011  0.6219  0.3423 -0.4359
 5139TIP3    H136908   3.296   1.718  15.987 -0.1084  3.0983 -0.1097
 5139TIP3    H236909   3.200   1.602  15.975  2.9845  0.6028 -1.7205
 5140TIP3   OH236910   6.119   3.587  10.877 -0.0834  0.1223 -0.3982
 5140TIP3    H136911   6.164   3.655  10.825  1.0639  0.6029  1.1904
 5140TIP3    H236912   6.034   3.625  10.897  0.0870  0.5905 -0.5442
 5141TIP3   OH236913   6.122   3.947   0.625 -0.0938 -0.0164  0.1253
 5141TIP3    H136914   6.086   3.889   0.559  0.1268 -0.1996  0.1674
 5141TIP3    H236915   6.216   3.930   0.624  0.1255  1.2006 -0.6957
 5142TIP3   OH236916   2.064   2.167   3.849  0.3656  0.2505 -0.0329
 5142TIP3    H136917   1.992   2.177   3.912  0.3168  0.5052 -0.1277
 5142TIP3    H236918   2.143   2.176   3.902  0.3346 -0.8016  0.1974
 5143TIP3   OH236919   0.829   6.544  13.089  0.4926  0.5479 -0.0782
 5143TIP3    H136920   0.900   6.496  13.046  0.0743  0.4260 -0.6375
 5143TIP3    H236921   0.750   6.515  13.044  0.0706  0.5653  0.6522
 5144TIP3   OH236922   3.984   2.625  14.478 -0.2018  0.4539  0.1154
 5144TIP3    H136923   4.063   2.624  14.424  1.0183  0.8591  1.8208
 5144TIP3    H236924   3.933   2.699  14.445  0.5194  0.6818 -0.4908
 5145TIP3   OH236925   2.961   4.770  11.667 -0.5605 -0.0839 -0.0892
 5145TIP3    H136926   2.870   4.760  11.639 -0.2694 -0.6681 -0.8697
 5145TIP3    H236927   2.958   4.766  11.762 -1.4643  0.9033 -0.0717
 5146TIP3   OH236928   4.605   3.321   1.741  0.6537 -0.3905 -0.1630
 5146TIP3    H136929   4.648   3.329   1.656  0.6229 -2.0240 -0.3430
 5146TIP3    H236930   4.659   3.258   1.789  0.3402  0.0832  0.8210
 5147TIP3   OH236931   5.011   2.900   5.101 -0.3875  0.1454 -0.0322
 5147TIP3    H136932   4.974   2.951   5.029 -0.7734 -1.8479 -1.2547
 5147TIP3    H236933   5.041   2.819   5.061 -1.9551 -1.6550  2.2635
 5148TIP3   OH236934   0.391   4.213   1.771 -0.1421 -0.5872 -0.5530
 5148TIP3    H136935   0.366   4.155   1.700  0.6506 -0.7257 -0.7148
 5148TIP3    H236936   0.416   4.295   1.728  0.6055 -0.7618 -0.4560
 5149TIP3   OH236937   1.020   5.055  14.461 -0.0422  0.4677  1.0315
 5149TIP3    H136938   0.925   5.056  14.451 -0.2057 -0.7390  2.3655
 5149TIP3    H236939   1.042   4.963  14.475  1.3028  0.7633  0.9788
 5150TIP3   OH236940   2.886   3.400  15.779  0.2369 -0.5373  0.3113
 5150TIP3    H136941   2.955   3.352  15.734 -0.5129 -2.1096  0.7899
 5150TIP3    H236942   2.805   3.358  15.750 -0.6271  2.0405 -1.1686
 5151TIP3   OH236943   3.725   4.139  11.348  0.1720 -0.4088 -0.3037
 5151TIP3    H136944   3.730   4.043  11.351  0.4998 -0.3807  0.0483
 5151TIP3    H236945   3.686   4.158  11.263  1.2013 -0.8132 -0.8724
 5152TIP3   OH236946   4.268   5.071  13.617  0.3937 -0.1841  0.1669
 5152TIP3    H136947   4.249   5.103  13.705 -0.7923  0.5889 -0.3646
 5152TIP3    H236948   4.317   5.142  13.576 -0.7616  0.2546 -0.4500
 5153TIP3   OH236949   0.532   4.061  14.916  0.3096  0.6313  0.0153
 5153TIP3    H136950   0.440   4.042  14.937  0.2569  0.4131 -0.4214
 5153TIP3    H236951   0.550   4.009  14.838  0.9315  0.3517  0.3468
 5154TIP3   OH236952   6.212   6.718   6.004 -0.0883  0.0161 -0.4752
 5154TIP3    H136953   6.216   6.698   6.097 -0.3109  1.9280 -0.0278
 5154TIP3    H236954   6.298   6.693   5.970 -0.1023 -0.9405  0.1745
 5155TIP3   OH236955   1.596   5.647   3.765 -0.2723 -0.2029 -0.3117
 5155TIP3    H136956   1.556   5.654   3.852 -1.6607  1.1006 -1.0385
 5155TIP3    H236957   1.561   5.721   3.716  0.8459 -0.6694 -1.8562
 5156TIP3   OH236958   6.356   0.256  15.096 -0.1704  0.0977 -0.0918
 5156TIP3    H136959   6.289   0.199  15.058  0.5258 -2.2968  2.0901
 5156TIP3    H236960   6.424   0.261  15.029 -1.9284  1.5282 -1.8231
 5157TIP3   OH236961   4.226   6.714   1.793  0.1115 -0.6582 -0.2380
 5157TIP3    H136962   4.270   6.634   1.765  0.0494 -0.2841 -1.4400
 5157TIP3    H236963   4.195   6.754   1.711  1.1767  1.1825  0.2203
 5158TIP3   OH236964   6.577   4.257  13.035  0.5071 -0.3498  0.5192
 5158TIP3    H136965   6.500   4.222  13.080  0.1136 -2.7048 -1.8555
 5158TIP3    H236966   6.575   4.216  12.948  3.9348  0.2593  0.0765
 5159TIP3   OH236967   6.656   3.390  16.157 -0.3172 -0.2996 -0.2722
 5159TIP3    H136968   6.664   3.416  16.248 -0.2557 -1.4695  0.0623
 5159TIP3    H236969   6.604   3.310  16.159  1.0805 -1.2586 -1.1003
 5160TIP3   OH236970   5.408   2.860  14.040 -0.1350 -0.4340 -0.5865
 5160TIP3    H136971   5.481   2.903  13.997  0.5621 -1.9966 -1.0088
 5160TIP3    H236972   5.394   2.780  13.989 -0.6078 -1.3121  0.8804
 5161TIP3   OH236973   6.596   5.418   5.873 -0.1166 -0.4461 -0.8034
 5161TIP3    H136974   6.543   5.343   5.899 -0.7771 -0.0307 -0.9252
 5161TIP3    H236975   6.633   5.450   5.955 -1.3677  0.2331 -0.4806
 5162TIP3   OH236976   4.671   1.961  13.938  0.0668  0.5013  0.0841
 5162TIP3    H136977   4.621   2.030  13.980 -2.0518 -0.9718  0.0407
 5162TIP3    H236978   4.656   1.974  13.844  1.5642  1.3848 -0.0408
 5163TIP3   OH236979   0.175   1.059  13.007 -0.0961 -0.2749 -0.2932
 5163TIP3    H136980   0.163   1.068  13.102  0.4694 -2.5674  0.0207
 5163TIP3    H236981   0.144   0.970  12.987  1.3413 -0.4285 -1.9859
 5164TIP3   OH236982   0.919   5.249  12.375  0.0002 -0.3693 -0.2815
 5164TIP3    H136983   0.848   5.238  12.312 -1.8001 -0.0004  1.6182
 5164TIP3    H236984   0.906   5.177  12.437  1.7303 -0.7131 -0.2971
 5165TIP3   OH236985   1.995   4.102  17.137 -0.1702 -0.0455 -0.3238
 5165TIP3    H136986   1.922   4.129  17.192 -0.2598  1.3871 -1.1344
 5165TIP3    H236987   1.959   4.033  17.081 -0.4757 -0.4355  0.3448
 5166TIP3   OH236988   1.748   2.338   6.007  0.1593 -0.7577  0.0267
 5166TIP3    H136989   1.798   2.259   5.986  1.6948  0.0533  0.4952
 5166TIP3    H236990   1.719   2.325   6.097  0.4342 -0.7783  0.1125
 5167TIP3   OH236991   1.807   2.037   0.538  0.6564 -0.1672  0.1560
 5167TIP3    H136992   1.848   2.108   0.489  0.8172 -0.8258 -0.6743
 5167TIP3    H236993   1.740   2.080   0.591  1.3488  0.7107  0.3164
 5168TIP3   OH236994   2.091   2.030  13.077  0.0878  0.0478  0.3385
 5168TIP3    H136995   2.130   2.031  12.990 -1.7379  0.8190 -0.5081
 5168TIP3    H236996   2.039   1.950  13.079 -2.4210  1.5782 -0.5091
 5169TIP3   OH236997   1.663   5.683   0.699 -0.3433 -0.9843  0.1732
 5169TIP3    H136998   1.692   5.633   0.775 -0.0196  0.0258  0.7262
 5169TIP3    H236999   1.574   5.652   0.681 -0.1084 -1.8138  0.4533
 5170TIP3   OH237000   2.314   2.994  17.093  0.0812 -0.0581  0.3499
 5170TIP3    H137001   2.230   3.016  17.134 -0.4493 -0.9674 -0.2180
 5170TIP3    H237002   2.373   3.065  17.118 -0.4521 -0.1738  1.9894
 5171TIP3   OH237003   6.155   0.787   4.903 -0.4939 -0.6030  0.0564
 5171TIP3    H137004   6.121   0.790   4.993 -0.2044 -0.9824  0.1801
 5171TIP3    H237005   6.203   0.705   4.899  0.5717  0.0231 -0.0578
 5172TIP3   OH237006   5.127   5.458  13.144 -0.2375 -0.2767  0.2270
 5172TIP3    H137007   5.102   5.523  13.079  3.2991  0.7234 -0.1905
 5172TIP3    H237008   5.120   5.503  13.228 -0.0012 -0.0455  0.1242
 5173TIP3   OH237009   5.848   3.550   0.195  0.8097 -0.3011 -0.0839
 5173TIP3    H137010   5.768   3.536   0.246  1.0163  0.2141  0.3951
 5173TIP3    H237011   5.827   3.520   0.107  0.0641 -0.1030  0.0227
 5174TIP3   OH237012   5.732   5.399   4.590 -0.3052  0.1406  0.5016
 5174TIP3    H137013   5.695   5.354   4.514 -0.0066 -0.4795  0.7214
 5174TIP3    H237014   5.807   5.345   4.616  0.6029  1.2407  0.2164
 5175TIP3   OH237015   5.076   0.763   4.680 -0.3618  0.0455 -0.3796
 5175TIP3    H137016   5.075   0.736   4.588 -0.2380 -1.7430  0.1173
 5175TIP3    H237017   4.986   0.750   4.709 -0.3625  0.4513 -0.1972
 5176TIP3   OH237018   2.655   2.816   0.639  0.4158  0.4212  0.0161
 5176TIP3    H137019   2.733   2.770   0.669  1.3548  2.2392  0.3645
 5176TIP3    H237020   2.687   2.897   0.600 -1.2470  0.9485 -0.3113
 5177TIP3   OH237021   0.476   3.650  13.398 -0.1010  0.6587 -0.1905
 5177TIP3    H137022   0.543   3.584  13.418  0.2619  1.5918  1.8904
 5177TIP3    H237023   0.411   3.603  13.346  1.5557 -0.5914 -1.1750
 5178TIP3   OH237024   2.502   2.215  16.083 -0.3533  0.0485  0.0252
 5178TIP3    H137025   2.582   2.247  16.042  0.9025 -0.8723  1.6912
 5178TIP3    H237026   2.488   2.272  16.159 -0.4810 -0.6765  0.5559
 5179TIP3   OH237027   0.543   5.748   5.649 -0.4513  0.1307  0.6957
 5179TIP3    H137028   0.525   5.655   5.637 -1.7665  0.5619 -0.8239
 5179TIP3    H237029   0.544   5.785   5.560  0.2882  1.5324  1.2583
 5180TIP3   OH237030   4.751   4.684  11.348 -0.4264  0.7887 -0.0369
 5180TIP3    H137031   4.800   4.765  11.352 -1.7989  1.8270 -3.0137
 5180TIP3    H237032   4.711   4.683  11.261 -2.8806 -1.6277  1.0106
 5181TIP3   OH237033   6.432   1.921   4.960  0.3919 -0.5670 -0.4810
 5181TIP3    H137034   6.444   1.845   4.903  0.1602  0.2711 -1.6718
 5181TIP3    H237035   6.382   1.888   5.035  3.0514 -2.2827  0.5689
 5182TIP3   OH237036   1.746   2.183   3.248  0.2480 -0.3796 -0.0753
 5182TIP3    H137037   1.745   2.278   3.260  1.2335 -0.2862 -0.6948
 5182TIP3    H237038   1.822   2.153   3.299  2.0862 -0.4197 -2.7475
 5183TIP3   OH237039   5.135   5.068  14.478  0.0946  0.1890  0.4939
 5183TIP3    H137040   5.205   5.004  14.462 -0.1503  0.1691 -0.5577
 5183TIP3    H237041   5.121   5.109  14.393 -1.4559 -0.0906  0.6139
 5184TIP3   OH237042   5.764   2.622  14.299 -0.7750  0.0658  0.2974
 5184TIP3    H137043   5.693   2.558  14.308 -1.1477  0.3238 -0.7440
 5184TIP3    H237044   5.844   2.569  14.304 -1.0407 -0.2896  0.9540
 5185TIP3   OH237045   6.104   2.280   6.426  0.0239 -0.3419 -0.1744
 5185TIP3    H137046   6.184   2.287   6.478  0.3466 -1.8008 -0.4298
 5185TIP3    H237047   6.100   2.187   6.401 -1.8246 -0.3320 -0.0342
 5186TIP3   OH237048   3.374   1.147   4.177  0.0819  0.1989 -0.3711
 5186TIP3    H137049   3.417   1.112   4.255 -0.5739  0.0836 -0.0558
 5186TIP3    H237050   3.412   1.234   4.166  0.0361  0.2941  0.1949
 5187TIP3   OH237051   6.593   2.142  12.886  0.0608  0.0861  0.4348
 5187TIP3    H137052   6.551   2.056  12.881 -0.2977  0.3219 -0.7910
 5187TIP3    H237053   6.530   2.196  12.933  0.2188 -0.2834  1.0726
 5188TIP3   OH237054   4.556   6.706   4.195 -0.6600  0.1010  0.9466
 5188TIP3    H137055   4.480   6.743   4.239 -1.1631 -0.6220  0.6988
 5188TIP3    H237056   4.624   6.772   4.204 -1.9449  1.6788 -0.7312
 5189TIP3   OH237057   1.161   6.057   2.892 -0.6301 -0.1511 -0.8550
 5189TIP3    H137058   1.205   6.028   2.813 -0.3305  0.5539 -0.9513
 5189TIP3    H237059   1.169   6.152   2.890  2.2092 -0.2559  1.6275
 5190TIP3   OH237060   2.086   0.659  14.092 -0.4904 -0.1741  0.1178
 5190TIP3    H137061   2.078   0.571  14.056 -1.5273  0.0131 -0.1201
 5190TIP3    H237062   2.101   0.646  14.186 -1.1162 -0.5940  0.1583
 5191TIP3   OH237063   2.059   5.062  12.852  0.2036  0.0098 -0.1205
 5191TIP3    H137064   2.120   5.033  12.783  1.2584 -1.5747  1.4453
 5191TIP3    H237065   2.100   5.033  12.933 -1.4723  1.0907  1.1252
 5192TIP3   OH237066   3.718   6.761  16.923  0.2394 -1.3395  0.1202
 5192TIP3    H137067   3.640   6.712  16.949  0.4963 -1.7989  0.0379
 5192TIP3    H237068   3.684   6.846  16.893 -0.1289 -1.1370  1.0978
 5193TIP3   OH237069   6.335   1.128   1.937 -0.3649 -0.2840 -0.3048
 5193TIP3    H137070   6.276   1.167   2.003  2.0544  0.7440  1.3285
 5193TIP3    H237071   6.304   1.163   1.854 -1.8250  0.5693  0.5713
 5194TIP3   OH237072   3.476   3.777  14.581  0.0140 -0.3879  0.1850
 5194TIP3    H137073   3.389   3.816  14.573 -0.4977 -1.4812  0.3305
 5194TIP3    H237074   3.534   3.838  14.535 -1.1423 -0.6906 -1.7554
 5195TIP3   OH237075   5.872   2.572   4.315  0.2273 -0.6112  0.6075
 5195TIP3    H137076   5.902   2.526   4.238  2.3859 -1.9212  2.1752
 5195TIP3    H237077   5.901   2.663   4.302  2.5738 -1.2902  0.8502
 5196TIP3   OH237078   4.775   6.799   2.595  0.3798  0.2800 -0.2010
 5196TIP3    H137079   4.698   6.772   2.545  0.0985 -0.0592  0.4107
 5196TIP3    H237080   4.816   6.867   2.541  1.6919 -2.0709 -2.2832
 5197TIP3   OH237081   0.422   0.948  16.627  0.3693 -0.0806  0.0264
 5197TIP3    H137082   0.452   1.005  16.557  0.8308  0.5700  0.7520
 5197TIP3    H237083   0.383   1.007  16.691  1.0190 -0.5535  0.8644
 5198TIP3   OH237084   4.770   3.090   2.475  0.1052 -0.2533  0.3270
 5198TIP3    H137085   4.782   3.061   2.566  2.7956  0.4804  0.2266
 5198TIP3    H237086   4.687   3.051   2.449  1.2527 -3.8475  1.7853
 5199TIP3   OH237087   6.620   4.015   0.654  0.3868 -0.3212 -0.1475
 5199TIP3    H137088   6.529   3.992   0.671  0.2502  0.0082 -0.4338
 5199TIP3    H237089   6.650   3.949   0.591 -0.1626  0.5842 -1.3790
 5200TIP3   OH237090   0.429   4.441   1.647  0.5246  0.6087  0.3862
 5200TIP3    H137091   0.339   4.429   1.619  1.1971 -0.9882 -1.1627
 5200TIP3    H237092   0.454   4.526   1.612  1.2735 -1.2203 -3.8854
 5201TIP3   OH237093   4.478   3.321   1.048 -0.2705 -0.3024  0.2069
 5201TIP3    H137094   4.573   3.326   1.063 -0.3928  0.4483  0.7350
 5201TIP3    H237095   4.467   3.349   0.957 -0.0743  0.4974  0.4297
 5202TIP3   OH237096   5.157   0.168  12.604  0.0150  0.1879 -0.9358
 5202TIP3    H137097   5.113   0.253  12.599 -1.0193 -0.3292 -0.6304
 5202TIP3    H237098   5.097   0.112  12.652  0.9968 -0.5416 -0.5420
 5203TIP3   OH237099   3.710   5.970  12.609  0.3305  0.7589 -0.2329
 5203TIP3    H137100   3.770   5.934  12.675  0.0332 -0.4369 -0.5979
 5203TIP3    H237101   3.712   5.906  12.538 -0.9716  0.9760 -0.4766
 5204TIP3   OH237102   5.958   5.878  16.122 -0.5083 -0.2989 -0.2648
 5204TIP3    H137103   5.925   5.948  16.178 -0.2418  0.0302 -0.5219
 5204TIP3    H237104   5.930   5.797  16.166 -0.4806 -0.0414  0.2306
 5205TIP3   OH237105   4.722   6.007  16.475 -0.4800 -0.2937  0.5241
 5205TIP3    H137106   4.799   5.957  16.448  0.7686  2.0617 -0.4394
 5205TIP3    H237107   4.754   6.068  16.541 -2.0131 -0.8542  1.8242
 5206TIP3   OH237108   5.689   3.261   4.379 -0.5697 -0.3106 -0.2645
 5206TIP3    H137109   5.749   3.330   4.349  0.5010 -1.0380  0.1572
 5206TIP3    H237110   5.624   3.254   4.309  0.3769 -0.1512 -1.1754
 5207TIP3   OH237111   6.208   0.723   1.925 -0.5648  0.6471  0.2437
 5207TIP3    H137112   6.295   0.762   1.917 -0.4314  0.4221  0.6175
 5207TIP3    H237113   6.148   0.798   1.920 -0.3512  0.8061  0.0355
 5208TIP3   OH237114   6.339   1.778  12.613  0.1173 -0.2540 -0.1359
 5208TIP3    H137115   6.247   1.792  12.637  0.6486  2.2112  0.5226
 5208TIP3    H237116   6.335   1.745  12.523 -1.4275 -0.8428  0.1184
 5209TIP3   OH237117   4.292   5.692  16.905  0.4152 -0.7191  0.3648
 5209TIP3    H137118   4.375   5.739  16.918  1.0590 -0.8284 -2.8822
 5209TIP3    H237119   4.305   5.644  16.823 -2.3674 -1.8778  0.5578
 5210TIP3   OH237120   3.432   5.102   5.684 -0.0599 -0.0426  0.0140
 5210TIP3    H137121   3.523   5.122   5.708 -0.4752 -0.1979  1.7873
 5210TIP3    H237122   3.440   5.041   5.611  1.3158 -1.8584  1.6101
 5211TIP3   OH237123   4.107   6.131   5.155 -0.1563 -0.0640  0.2501
 5211TIP3    H137124   4.026   6.170   5.189 -0.1830  0.4154 -0.3749
 5211TIP3    H237125   4.120   6.053   5.210  0.3119  1.2116  2.0107
 5212TIP3   OH237126   4.951   6.014  15.910  0.2805  0.3732 -0.3180
 5212TIP3    H137127   4.997   5.940  15.949 -1.9162 -1.8310 -1.7248
 5212TIP3    H237128   5.010   6.047  15.843  1.9672  0.9550  1.4342
 5213TIP3   OH237129   4.783   2.783  14.896  0.4150 -0.6062  0.2634
 5213TIP3    H137130   4.737   2.850  14.845  1.2907 -0.5861 -0.5053
 5213TIP3    H237131   4.720   2.711  14.903  0.9690 -1.4231 -2.5618
 5214TIP3   OH237132   1.134   2.149   2.978  0.0969  0.0824  0.0153
 5214TIP3    H137133   1.200   2.195   3.030 -1.9586  0.6192  2.2479
 5214TIP3    H237134   1.144   2.057   3.004  3.7058 -0.7746 -3.8974
 5215TIP3   OH237135   5.508   6.753   1.767  0.2327  0.6963  0.0554
 5215TIP3    H137136   5.599   6.732   1.745  0.0142  1.0773 -1.2286
 5215TIP3    H237137   5.475   6.802   1.692 -1.3578 -0.3493  0.0308
 5216TIP3   OH237138   3.231   3.744   4.049 -0.2625  0.6696  0.1346
 5216TIP3    H137139   3.224   3.825   3.999 -0.2086 -0.2516 -1.3764
 5216TIP3    H237140   3.206   3.769   4.138  0.0319  2.4014 -0.2523
 5217TIP3   OH237141   1.658   1.280   4.981  0.1991  0.2432 -0.0998
 5217TIP3    H137142   1.627   1.263   5.070  0.0302 -0.7981 -0.3502
 5217TIP3    H237143   1.704   1.363   4.987  0.1840  0.1782  0.9624
 5218TIP3   OH237144   6.627   3.803  11.891  0.2856 -0.2836  0.5747
 5218TIP3    H137145   6.688   3.774  11.824 -0.5753 -3.4710  1.1268
 5218TIP3    H237146   6.682   3.820  11.968  0.8873  0.4071 -0.0003
 5219TIP3   OH237147   6.193   3.108  12.850  0.2767  0.0760  0.3642
 5219TIP3    H137148   6.210   3.150  12.934  2.2726  0.5268 -0.2502
 5219TIP3    H237149   6.188   3.014  12.871  0.2964  0.2181  1.0306
 5220TIP3   OH237150   5.959   4.839  14.916  0.3537  0.4975  0.2294
 5220TIP3    H137151   6.028   4.872  14.859  0.1126  1.5992  0.5497
 5220TIP3    H237152   5.883   4.893  14.895 -0.0147  0.2464  0.8857
 5221TIP3   OH237153   1.785   5.425  14.605  0.4808  0.4355 -0.4290
 5221TIP3    H137154   1.867   5.425  14.655 -0.0128  2.3828  0.4094
 5221TIP3    H237155   1.798   5.490  14.536 -0.2140  0.4946 -0.5133
 5222TIP3   OH237156   3.187   4.041   3.256 -0.3068  0.5580  0.1593
 5222TIP3    H137157   3.238   3.967   3.222 -1.7133 -0.5017  0.3089
 5222TIP3    H237158   3.109   4.001   3.294 -0.8436  2.0883  0.7193
 5223TIP3   OH237159   1.336   0.210   2.036 -0.3881 -0.0124  0.4926
 5223TIP3    H137160   1.361   0.242   2.123  1.0300  1.0148 -0.2562
 5223TIP3    H237161   1.399   0.140   2.018  1.3698  1.8842 -0.9755
 5224TIP3   OH237162   6.520   2.548  16.078 -0.2539 -0.7343  0.1088
 5224TIP3    H137163   6.536   2.635  16.041 -1.1271  0.4500  2.3697
 5224TIP3    H237164   6.427   2.547  16.098  0.3229 -0.8732  3.1693
 5225TIP3   OH237165   2.376   4.943   2.793  0.0321  0.1044 -0.2053
 5225TIP3    H137166   2.425   4.875   2.746  1.0837  1.1351 -0.6276
 5225TIP3    H237167   2.415   4.944   2.880 -0.0289  0.1164 -0.1784
 5226TIP3   OH237168   6.434   0.721   4.123  0.3947  0.0185 -0.4795
 5226TIP3    H137169   6.411   0.769   4.044 -2.2196  1.2700  0.9831
 5226TIP3    H237170   6.415   0.781   4.195 -1.5881 -2.6347  1.3311
 5227TIP3   OH237171   6.421   2.130   6.007  0.4750 -0.5142 -0.0325
 5227TIP3    H137172   6.427   2.129   6.102 -0.1406 -0.5983  0.0083
 5227TIP3    H237173   6.457   2.215   5.981 -1.5239  0.5065  0.4352
 5228TIP3   OH237174   5.446   3.636  11.254 -0.0455  0.5197  0.1226
 5228TIP3    H137175   5.394   3.593  11.186 -1.1080 -0.9953  1.8628
 5228TIP3    H237176   5.520   3.577  11.269  0.2689  0.9272  0.1861
 5229TIP3   OH237177   5.549   0.652  13.599  0.4639 -0.0483 -0.0115
 5229TIP3    H137178   5.592   0.668  13.683  0.6609  3.3050 -0.7024
 5229TIP3    H237179   5.601   0.701  13.536 -1.0789 -0.5756 -1.7323
 5230TIP3   OH237180   5.911   2.657  16.536  0.3680  0.0400  0.1241
 5230TIP3    H137181   5.847   2.682  16.604  0.2317  1.2573 -0.4362
 5230TIP3    H237182   5.862   2.601  16.477  0.0198  0.3565  0.1099
 5231TIP3   OH237183   6.212   1.023   3.115 -0.2597 -0.1167 -0.2583
 5231TIP3    H137184   6.149   0.993   3.181 -0.6522 -0.3200 -0.7234
 5231TIP3    H237185   6.294   0.977   3.137  0.0615  1.0564  1.0705
 5232TIP3   OH237186   1.119   5.333  17.134 -0.2463  0.0100 -0.1083
 5232TIP3    H137187   1.060   5.264  17.166 -1.3643  1.1327  0.2982
 5232TIP3    H237188   1.137   5.309  17.044  2.3695 -2.8295  1.0759
 5233TIP3   OH237189   5.456   5.228  12.847 -0.0480  0.1771  0.0904
 5233TIP3    H137190   5.473   5.169  12.774 -2.5736 -0.2933 -0.1589
 5233TIP3    H237191   5.476   5.176  12.925 -2.1223 -1.0071 -0.1287
 5234TIP3   OH237192   4.857   5.189  16.425  0.2902 -0.0641  0.2558
 5234TIP3    H137193   4.768   5.158  16.442 -0.0117 -0.1908 -1.4930
 5234TIP3    H237194   4.853   5.283  16.445 -0.3735  0.0361 -0.3147
 5235TIP3   OH237195   6.198   1.551   0.833  0.4837  0.9186 -0.2663
 5235TIP3    H137196   6.182   1.509   0.749  2.2055 -1.2728  0.4601
 5235TIP3    H237197   6.271   1.611   0.816 -0.1282  1.5615 -0.6525
 5236TIP3   OH237198   6.429   0.551   1.773  0.0885  0.5991  0.3384
 5236TIP3    H137199   6.344   0.593   1.793 -0.8182 -0.9538 -0.1952
 5236TIP3    H237200   6.445   0.493   1.847  0.5678  0.6874  0.3057
 5237TIP3   OH237201   1.033   2.668  16.495 -0.3168  0.1426  0.0215
 5237TIP3    H137202   0.961   2.710  16.542  0.6941  1.6696  0.2341
 5237TIP3    H237203   1.037   2.713  16.411  1.4370  1.2338  0.6571
 5238TIP3   OH237204   3.802   1.236  17.119 -0.4808  0.1798 -0.0906
 5238TIP3    H137205   3.872   1.248  17.054 -0.7672  0.5284 -0.3369
 5238TIP3    H237206   3.842   1.262  17.202  0.4347 -1.9359  0.1756
 5239TIP3   OH237207   6.234   1.834   5.116 -0.4050  0.0808  1.0593
 5239TIP3    H137208   6.239   1.786   5.199  0.6447 -0.8254  0.4917
 5239TIP3    H237209   6.170   1.786   5.064  0.0285 -0.2338  0.8055
 5240TIP3   OH237210   5.721   5.181   6.146  0.0774 -0.1139 -0.6990
 5240TIP3    H137211   5.796   5.238   6.129  0.4897  0.1266  1.7752
 5240TIP3    H237212   5.656   5.238   6.188  0.2447 -1.2589  1.1930
 5241TIP3   OH237213   0.245   2.250  15.490 -0.5795 -0.0161 -0.4829
 5241TIP3    H137214   0.192   2.171  15.483  1.2507 -1.3347 -0.0798
 5241TIP3    H237215   0.268   2.256  15.583  0.6367  0.0668 -0.7751
 5242TIP3   OH237216   6.008   6.386   5.637 -0.4080  0.0521  0.1222
 5242TIP3    H137217   6.017   6.457   5.700  0.3698 -0.8282  1.0348
 5242TIP3    H237218   5.915   6.363   5.639 -0.3625 -0.0776  1.0938
 5243TIP3   OH237219   3.053   5.068   2.682 -0.3761  0.5030  0.2708
 5243TIP3    H137220   2.968   5.100   2.652 -1.2913 -1.1471  1.0666
 5243TIP3    H237221   3.084   5.137   2.742 -2.4197 -0.1079  2.1117
 5244TIP3   OH237222   5.037   2.981  17.228  0.4650 -0.3688 -0.6345
 5244TIP3    H137223   4.996   3.056  17.186  0.7168  0.1032 -0.0372
 5244TIP3    H237224   5.125   3.012  17.251  0.7990 -1.0485 -0.9766
 5245TIP3   OH237225   0.251   5.346  16.724  0.6228  0.2805  0.1182
 5245TIP3    H137226   0.170   5.375  16.766 -0.7281 -1.6098 -1.1043
 5245TIP3    H237227   0.240   5.369  16.632  1.2866 -0.3960 -0.1407
 5246TIP3   OH237228   5.206   3.252   6.102  0.2976  0.3508  0.3664
 5246TIP3    H137229   5.215   3.196   6.179 -0.5669 -0.0229  0.1926
 5246TIP3    H237230   5.223   3.340   6.135 -3.3436  0.6100  1.6832
 5247TIP3   OH237231   3.617   6.056  13.947 -0.2795  0.2458  0.3539
 5247TIP3    H137232   3.581   6.077  13.861 -0.5719 -1.2702  0.0779
 5247TIP3    H237233   3.558   5.989  13.981  0.5575 -0.0672  1.1957
 5248TIP3   OH237234   0.115   5.714   0.482  0.4499  0.2058  0.1391
 5248TIP3    H137235   0.107   5.619   0.486 -2.7719  0.4625  1.4774
 5248TIP3    H237236   0.050   5.746   0.545  1.4019  3.3027 -0.3559
 5249TIP3   OH237237   1.745   2.772   3.922 -0.2840 -0.1186 -0.0835
 5249TIP3    H137238   1.757   2.862   3.892  0.5145 -0.2237 -0.1030
 5249TIP3    H237239   1.799   2.767   4.001 -0.4654 -0.5364  0.0124
 5250TIP3   OH237240   4.454   0.881  12.520  0.7579 -0.1414 -0.3216
 5250TIP3    H137241   4.471   0.790  12.495  0.8209 -0.4244  0.7450
 5250TIP3    H237242   4.532   0.928  12.491  2.0858 -0.9477  1.8996
 5251TIP3   OH237243   1.174   3.657   1.726  0.1569 -0.6533 -0.0951
 5251TIP3    H137244   1.213   3.701   1.650  1.5802 -2.0318 -0.1818
 5251TIP3    H237245   1.080   3.669   1.715  0.3794 -0.3801 -1.8007
 5252TIP3   OH237246   3.437   1.154  11.514  0.0580  0.4395  0.4124
 5252TIP3    H137247   3.504   1.212  11.478  0.3049  0.1959  0.4771
 5252TIP3    H237248   3.385   1.211  11.570  2.2971 -0.0531  3.1091
 5253TIP3   OH237249   5.711   3.555   1.006  0.0119  0.1461  0.4394
 5253TIP3    H137250   5.725   3.648   0.987 -0.4722  0.1447  0.0591
 5253TIP3    H237251   5.799   3.520   1.021  0.1745  0.7207  0.8441
 5254TIP3   OH237252   6.110   5.160   1.831 -0.8358 -0.6872 -0.0197
 5254TIP3    H137253   6.047   5.219   1.871 -0.2749 -0.3128  0.3205
 5254TIP3    H237254   6.131   5.200   1.747 -1.1586 -0.8849 -0.1940
 5255TIP3   OH237255   4.822   0.155   3.993 -0.0973 -0.2488 -0.3162
 5255TIP3    H137256   4.808   0.064   4.020 -0.4104 -0.6683 -1.8455
 5255TIP3    H237257   4.777   0.207   4.059 -1.1017 -1.2658 -0.1760
 5256TIP3   OH237258   5.587   4.466  14.697  0.4249 -0.0857 -0.0433
 5256TIP3    H137259   5.600   4.561  14.699  0.1279 -0.0653  0.9066
 5256TIP3    H237260   5.520   4.449  14.763  1.3777 -1.0893  0.6919
 5257TIP3   OH237261   0.829   1.235   0.939 -0.3104  0.1670  0.0883
 5257TIP3    H137262   0.831   1.140   0.948  1.2913  0.1327 -0.5001
 5257TIP3    H237263   0.842   1.268   1.028  2.4571 -0.1811 -0.1418
 5258TIP3   OH237264   4.190   1.531   3.554  0.1192  0.2902  0.4503
 5258TIP3    H137265   4.170   1.458   3.613  0.1771 -0.0222  0.0832
 5258TIP3    H237266   4.281   1.553   3.573  0.5158 -0.6040 -0.3735
 5259TIP3   OH237267   2.867   0.413   6.691  0.6832 -0.0493 -0.1036
 5259TIP3    H137268   2.963   0.410   6.688  0.6319 -1.1420 -0.8778
 5259TIP3    H237269   2.841   0.321   6.692 -0.3559  0.2447  0.4314
 5260TIP3   OH237270   6.692   4.481  12.339  0.0858  0.1823 -0.0164
 5260TIP3    H137271   6.748   4.512  12.268  1.0554 -3.3341 -0.8675
 5260TIP3    H237272   6.746   4.416  12.385 -2.5674 -1.7660  0.4192
 5261TIP3   OH237273   0.517   1.462   6.752  0.0935  0.5038  0.2299
 5261TIP3    H137274   0.565   1.380   6.751 -2.8645 -1.3151  1.0843
 5261TIP3    H237275   0.540   1.504   6.669  0.9771 -1.5712 -0.6114
 5262TIP3   OH237276   5.124   0.609  10.913 -0.5099  0.2104 -0.1515
 5262TIP3    H137277   5.045   0.648  10.876  0.3683  0.7564 -1.4789
 5262TIP3    H237278   5.126   0.520  10.878 -0.0854  0.4819 -0.8441
 5263TIP3   OH237279   0.842   2.556  11.822 -0.7782 -0.0641 -0.2239
 5263TIP3    H137280   0.901   2.549  11.748  1.3450  0.5060  1.3608
 5263TIP3    H237281   0.869   2.637  11.866 -1.6397 -0.6639  1.4550
 5264TIP3   OH237282   2.919   6.418   2.198 -0.0375 -0.2375  0.1072
 5264TIP3    H137283   2.885   6.335   2.166  1.2080 -0.5782 -0.3784
 5264TIP3    H237284   2.913   6.411   2.294  0.8652 -1.2496  0.1008
 5265TIP3   OH237285   4.806   0.156   1.410 -0.4054 -0.5349  0.4152
 5265TIP3    H137286   4.898   0.141   1.435 -0.2856  0.3031  0.4773
 5265TIP3    H237287   4.810   0.219   1.339 -0.9333 -0.5594  0.3622
 5266TIP3   OH237288   4.006   5.392   0.943 -0.0551  0.1536 -0.0124
 5266TIP3    H137289   3.998   5.487   0.946 -0.2704  0.1259  0.2760
 5266TIP3    H237290   4.068   5.370   1.012  0.2612  0.1137 -0.3072
 5267TIP3   OH237291   3.766   5.665   5.362  0.3531 -0.3694 -0.5290
 5267TIP3    H137292   3.688   5.617   5.390  0.5850  0.2721  1.2688
 5267TIP3    H237293   3.740   5.757   5.363  0.4370 -0.3181 -2.2257
 5268TIP3   OH237294   0.030   0.550   5.999  0.5499 -0.4027 -0.5096
 5268TIP3    H137295   0.002   0.544   6.091  0.0981  0.9793 -0.5398
 5268TIP3    H237296   0.068   0.465   5.980  1.3709 -0.4465  1.2075
 5269TIP3   OH237297   0.705   4.624  16.067  0.1484  0.0138  0.3564
 5269TIP3    H137298   0.634   4.559  16.069  0.5931 -0.5264 -0.8564
 5269TIP3    H237299   0.764   4.597  16.137 -0.0363 -0.4653  0.3341
 5270TIP3   OH237300   3.113   4.062   0.883 -1.0396 -0.2627 -0.2071
 5270TIP3    H137301   3.057   4.042   0.958 -0.4172 -1.6801 -0.1094
 5270TIP3    H237302   3.111   4.157   0.877 -0.7072 -0.1049  1.9151
 5271TIP3   OH237303   0.895   0.336  13.076 -0.4314  0.3582 -0.4755
 5271TIP3    H137304   0.951   0.259  13.080 -0.3968  0.2254 -2.7665
 5271TIP3    H237305   0.811   0.307  13.112  0.0247 -0.3359  0.0222
 5272TIP3   OH237306   4.827   6.481  16.640 -0.6527 -0.1808 -0.3019
 5272TIP3    H137307   4.832   6.451  16.549 -0.9241  0.5530 -0.5652
 5272TIP3    H237308   4.784   6.566  16.635  0.4914  0.4534  0.3924
 5273TIP3   OH237309   5.632   4.194  14.449 -0.2567 -0.1293 -0.1655
 5273TIP3    H137310   5.570   4.151  14.507 -0.3061  2.6428  1.9240
 5273TIP3    H237311   5.614   4.156  14.362 -3.0466 -1.2628  0.8487
 5274TIP3   OH237312   0.857   6.805  16.493  0.3022  0.6495 -0.3546
 5274TIP3    H137313   0.809   6.849  16.563 -0.6459  0.5038 -0.9123
 5274TIP3    H237314   0.884   6.875  16.435 -1.6490  0.4669 -1.5144
 5275TIP3   OH237315   2.512   3.374   0.333 -0.5264  0.2296 -0.0704
 5275TIP3    H137316   2.443   3.342   0.391  1.0604  2.4155  3.1244
 5275TIP3    H237317   2.488   3.465   0.315  0.6432  0.4931 -0.3158
 5276TIP3   OH237318   6.515   0.976  17.070  0.0362 -0.0859 -0.2744
 5276TIP3    H137319   6.605   0.970  17.100  0.3759 -1.3526 -1.4898
 5276TIP3    H237320   6.471   0.901  17.111 -0.6407  0.8958  0.8424
 5277TIP3   OH237321   4.635   1.763  13.287  0.1697 -0.0471  0.7614
 5277TIP3    H137322   4.631   1.710  13.207 -0.8194 -0.4868  1.1003
 5277TIP3    H237323   4.677   1.845  13.259 -0.8244  0.0854 -0.3751
 5278TIP3   OH237324   5.174   1.826  14.103  0.2886 -0.4816 -0.1578
 5278TIP3    H137325   5.094   1.869  14.073 -0.3954 -1.7443 -0.2013
 5278TIP3    H237326   5.207   1.882  14.173  0.1630  0.8147 -1.1304
 5279TIP3   OH237327   4.110   2.084  16.914  0.5719 -0.6545 -0.4936
 5279TIP3    H137328   4.154   2.160  16.875  0.9597  0.5226  2.1123
 5279TIP3    H237329   4.020   2.112  16.926 -0.4879 -2.3191 -3.8413
 5280TIP3   OH237330   3.634   1.742   6.142  0.2443 -0.3780 -0.3859
 5280TIP3    H137331   3.574   1.672   6.167  1.0160  0.1890  3.3211
 5280TIP3    H237332   3.721   1.702   6.147  0.7556  0.9669  2.5084
 5281TIP3   OH237333   3.445   2.552   5.813  0.3923 -0.1173 -0.3269
 5281TIP3    H137334   3.387   2.628   5.809  1.0980  0.4535  0.0941
 5281TIP3    H237335   3.454   2.533   5.906  2.1390  0.8010 -0.2775
 5282TIP3   OH237336   2.998   1.066  15.418  0.5279  0.7438  0.0738
 5282TIP3    H137337   3.074   1.021  15.380 -1.1127 -1.7824 -0.3635
 5282TIP3    H237338   2.995   1.034  15.509  0.1269  1.0024  0.1499
 5283TIP3   OH237339   1.542   2.411  12.071  0.2642  0.1694 -0.2444
 5283TIP3    H137340   1.603   2.485  12.062  0.3069  0.0099 -1.3530
 5283TIP3    H237341   1.514   2.414  12.162  3.8203 -1.1992  1.0040
 5284TIP3   OH237342   6.664   5.944   1.118  0.6145 -0.2417  0.1697
 5284TIP3    H137343   6.727   5.989   1.175  1.0095  0.6137 -0.9445
 5284TIP3    H237344   6.715   5.874   1.077 -0.0267 -1.8373  1.9950
 5285TIP3   OH237345   2.701   2.187   0.535  0.4283  0.2096  0.3432
 5285TIP3    H137346   2.757   2.122   0.492  0.8392 -0.1779  1.4497
 5285TIP3    H237347   2.678   2.248   0.466  0.1645 -1.0331 -0.6879
 5286TIP3   OH237348   2.031   6.301  12.616 -0.2578 -0.2401  0.4631
 5286TIP3    H137349   2.044   6.263  12.529  0.6488 -0.5231  0.7186
 5286TIP3    H237350   2.010   6.227  12.672  2.0198 -0.4759  1.0637
 5287TIP3   OH237351   5.315   5.865  12.058 -0.0304 -0.5706 -0.0118
 5287TIP3    H137352   5.402   5.887  12.024  1.1546 -0.2592  2.9743
 5287TIP3    H237353   5.263   5.944  12.045  0.9073  0.1367  0.4470
 5288TIP3   OH237354   1.917   6.550   5.845 -0.3972 -0.1375  0.0072
 5288TIP3    H137355   1.835   6.512   5.875 -0.8793  1.3855  0.6348
 5288TIP3    H237356   1.939   6.500   5.766 -1.3998 -1.2113  0.3989
 5289TIP3   OH237357   5.924   4.253   3.474 -0.1580 -0.8199 -0.9090
 5289TIP3    H137358   5.906   4.248   3.568  0.2172  3.8682 -0.4928
 5289TIP3    H237359   6.001   4.197   3.462  0.1910 -0.9694  1.6829
 5290TIP3   OH237360   6.780   0.411  17.172  0.2949  0.0862 -0.0682
 5290TIP3    H137361   6.754   0.367  17.091 -0.8471  0.9063 -0.1668
 5290TIP3    H237362   6.697   0.432  17.215  0.8438  1.2691  0.4361
 5291TIP3   OH237363   1.937   6.539   6.397 -0.1072  0.3681  0.1966
 5291TIP3    H137364   1.948   6.633   6.379 -0.9379  0.1542 -1.5509
 5291TIP3    H237365   1.875   6.536   6.470  1.9380  1.2137  2.0540
 5292TIP3   OH237366   0.244   3.671   3.748  0.0530 -0.3090  0.5113
 5292TIP3    H137367   0.325   3.634   3.711  1.3646  1.0536  1.9573
 5292TIP3    H237368   0.218   3.608   3.815 -0.0180 -0.6851  0.1344
 5293TIP3   OH237369   6.204   5.819  13.694  0.5116  0.3560  0.1273
 5293TIP3    H137370   6.297   5.841  13.679  0.9331 -0.4081  1.5615
 5293TIP3    H237371   6.205   5.726  13.716 -0.4794  0.5912  1.2129
 5294TIP3   OH237372   4.273   5.687  12.191  0.3358 -0.0525 -0.0266
 5294TIP3    H137373   4.364   5.716  12.196  0.3110 -0.0553  0.4347
 5294TIP3    H237374   4.276   5.608  12.137  0.7202 -0.5346  0.6905
 5295TIP3   OH237375   0.698   6.119   5.758  0.0287  0.1373 -0.4240
 5295TIP3    H137376   0.753   6.063   5.704 -0.0201  0.0709 -0.4046
 5295TIP3    H237377   0.719   6.208   5.730 -0.2715  0.0856 -0.8113
 5296TIP3   OH237378   3.650   4.482   3.907 -0.1037 -0.0234 -0.5997
 5296TIP3    H137379   3.645   4.482   4.002 -2.6416  1.9707 -0.6870
 5296TIP3    H237380   3.604   4.401   3.881  0.0653 -0.2651 -0.1553
 5297TIP3   OH237381   3.382   1.796   1.356 -0.4463  0.6897 -0.1310
 5297TIP3    H137382   3.409   1.837   1.438  0.5457 -1.5889  0.7047
 5297TIP3    H237383   3.455   1.810   1.296 -0.0351 -0.0195  0.2069
 5298TIP3   OH237384   6.643   0.727  15.983  0.0666  0.4541  0.1692
 5298TIP3    H137385   6.738   0.731  15.969 -0.0437 -0.2644 -0.7475
 5298TIP3    H237386   6.605   0.749  15.899 -0.5842 -1.9112 -0.1845
 5299TIP3   OH237387   2.448   5.440  11.877 -0.1849 -0.5088  0.0601
 5299TIP3    H137388   2.470   5.529  11.902 -2.0243 -0.1737  0.6231
 5299TIP3    H237389   2.503   5.421  11.801  2.1402  0.1310  1.5502
 5300TIP3   OH237390   5.339   4.353   1.305  0.3235 -0.3507  0.1327
 5300TIP3    H137391   5.424   4.326   1.339 -0.2747 -0.1583  1.8125
 5300TIP3    H237392   5.352   4.444   1.276  0.4797 -0.0173  1.2144
 5301TIP3   OH237393   6.681   2.503   0.186 -0.2921  0.2535  0.1971
 5301TIP3    H137394   6.654   2.419   0.150  0.2417  0.1676 -0.0058
 5301TIP3    H237395   6.648   2.503   0.276 -0.7039  0.0262  0.0444
 5302TIP3   OH237396   4.863   6.782  16.387 -0.5348  0.0426  0.1448
 5302TIP3    H137397   4.804   6.746  16.320 -0.7507  0.4696  0.1060
 5302TIP3    H237398   4.818   6.763  16.470 -1.4133  1.5949  0.0524
 5303TIP3   OH237399   4.758   6.039  10.367  0.2138  0.0874 -0.5519
 5303TIP3    H137400   4.705   6.108  10.326  1.6496  0.9069 -1.0701
 5303TIP3    H237401   4.694   5.975  10.399 -1.1576  1.7864  0.1791
 5304TIP3   OH237402   6.789   0.904  17.159  0.1010 -0.5428  0.2783
 5304TIP3    H137403   6.833   0.989  17.169 -0.9769 -0.1936  2.2960
 5304TIP3    H237404   6.859   0.843  17.137  0.8545  0.9150 -1.4240
 5305TIP3   OH237405   0.592   3.965   4.267 -0.3191  0.0423  0.7177
 5305TIP3    H137406   0.620   4.055   4.280  1.6129 -0.2162 -1.3162
 5305TIP3    H237407   0.652   3.930   4.201 -0.6510 -2.9130  1.8725
 5306TIP3   OH237408   6.716   5.559   3.381  0.6217  0.7848 -0.1769
 5306TIP3    H137409   6.744   5.486   3.326  0.6466 -0.1686  1.0899
 5306TIP3    H237410   6.779   5.629   3.361  2.2481 -0.4221  0.5972
 5307TIP3   OH237411   5.218   2.211   2.284 -1.0924 -0.1238  0.1774
 5307TIP3    H137412   5.237   2.191   2.193 -1.8994 -0.2423  0.0315
 5307TIP3    H237413   5.297   2.184   2.332 -0.9487 -0.7296 -0.3980
 5308TIP3   OH237414   2.450   3.000  13.663  0.0226  0.1937 -0.2130
 5308TIP3    H137415   2.455   3.026  13.755 -1.2620  1.1509 -0.3851
 5308TIP3    H237416   2.513   3.057  13.619 -0.1325  0.4857 -0.0648
 5309TIP3   OH237417   3.876   6.771  16.281  0.1966  0.2363 -0.7362
 5309TIP3    H137418   3.798   6.717  16.296 -0.0882  0.8216 -0.1088
 5309TIP3    H237419   3.843   6.850  16.238  0.4364  0.4951 -0.4489
 5310TIP3   OH237420   0.637   3.117  12.396 -0.6249  0.4788 -0.5025
 5310TIP3    H137421   0.620   3.203  12.434 -0.4307  0.3088 -0.0203
 5310TIP3    H237422   0.647   3.133  12.302  0.1888  1.0970 -0.3164
 5311TIP3   OH237423   6.325   2.087  10.741  0.7081 -0.2684  0.4812
 5311TIP3    H137424   6.418   2.083  10.720  0.7154  0.2689  0.4092
 5311TIP3    H237425   6.282   2.103  10.657  0.6072  0.2311  0.6300
 5312TIP3   OH237426   3.681   0.117   0.216 -0.6257 -0.3424 -0.1734
 5312TIP3    H137427   3.689   0.103   0.122  1.1942 -0.1341 -0.0701
 5312TIP3    H237428   3.711   0.207   0.230 -1.4419 -0.1750  0.5282
 5313TIP3   OH237429   6.440   4.757  10.772 -0.5966 -0.3597 -0.0622
 5313TIP3    H137430   6.452   4.732  10.681 -1.3670 -1.5685  0.1687
 5313TIP3    H237431   6.387   4.688  10.810  0.1161 -0.1152  1.4264
 5314TIP3   OH237432   5.151   5.720  14.284  0.1027  0.1950  0.0363
 5314TIP3    H137433   5.145   5.730  14.189  1.4566  0.3008 -0.0521
 5314TIP3    H237434   5.120   5.804  14.318  0.4805  0.4854 -0.3356
 5315TIP3   OH237435   5.589   2.025  12.587  0.2508 -0.3539 -0.1410
 5315TIP3    H137436   5.603   1.937  12.622 -0.1183 -0.4946 -0.3441
 5315TIP3    H237437   5.579   2.013  12.493 -0.3785 -0.1643 -0.1030
 5316TIP3   OH237438   3.385   0.047   1.888  0.7060 -0.3424  0.2687
 5316TIP3    H137439   3.293   0.024   1.875  0.7886  0.2462 -1.4629
 5316TIP3    H237440   3.384   0.107   1.963 -0.6808  1.8222 -1.3976
 5317TIP3   OH237441   5.541   4.104  16.936  0.4280  0.3450  0.3057
 5317TIP3    H137442   5.462   4.157  16.926  0.9529  1.5406  2.1556
 5317TIP3    H237443   5.595   4.126  16.860 -0.0465  1.2756  0.2289
 5318TIP3   OH237444   1.799   5.679   3.523  0.2194  0.0102 -0.3875
 5318TIP3    H137445   1.730   5.669   3.589  0.0309 -2.7873 -0.9747
 5318TIP3    H237446   1.838   5.764   3.543 -2.0196  0.7079  1.2553
 5319TIP3   OH237447   5.970   4.692   3.259 -0.4103 -0.0271  0.2986
 5319TIP3    H137448   6.019   4.645   3.326  2.7181  1.6226 -0.7506
 5319TIP3    H237449   5.945   4.624   3.196  0.7966 -0.8672  0.7092
 5320TIP3   OH237450   5.450   0.876  13.905  0.4750  0.0976 -0.1806
 5320TIP3    H137451   5.536   0.853  13.871  0.0953 -0.7841 -0.5770
 5320TIP3    H237452   5.433   0.963  13.870  0.6106 -0.3060 -1.2747
 5321TIP3   OH237453   4.807   5.441  11.203 -1.0129 -0.0609  0.2948
 5321TIP3    H137454   4.750   5.469  11.131  0.3318  1.1731 -0.3192
 5321TIP3    H237455   4.849   5.521  11.233  0.2085 -0.9101  0.9043
 5322TIP3   OH237456   3.409   6.739  11.464 -0.0840 -0.4504  0.1090
 5322TIP3    H137457   3.392   6.702  11.378 -0.8085 -0.1859  0.1422
 5322TIP3    H237458   3.469   6.812  11.448  0.4142 -0.8964 -0.0816
 5323TIP3   OH237459   5.176   6.138  13.723  0.7796 -0.2392  0.2364
 5323TIP3    H137460   5.258   6.183  13.743  0.4750 -0.0722  1.1350
 5323TIP3    H237461   5.110   6.185  13.773 -0.0900  0.4716 -1.5154
 5324TIP3   OH237462   1.261   4.888   6.196 -0.5155 -0.2358 -0.0458
 5324TIP3    H137463   1.293   4.931   6.276  0.1764 -0.2401 -0.3210
 5324TIP3    H237464   1.334   4.833   6.167 -0.5305  0.2705 -1.0475
 5325TIP3   OH237465   0.724   0.413  14.516 -0.1793  0.1949 -0.3311
 5325TIP3    H137466   0.810   0.423  14.558  0.1287  0.4767 -1.0152
 5325TIP3    H237467   0.719   0.486  14.455 -0.1703 -0.7929 -1.5331
 5326TIP3   OH237468   4.859   3.548   0.754 -0.0921  0.2924 -0.1695
 5326TIP3    H137469   4.838   3.533   0.662  2.3701  1.9270 -1.0366
 5326TIP3    H237470   4.817   3.631   0.775  1.0802  0.9760 -0.4514
 5327TIP3   OH237471   1.717   0.223  10.851  0.2754  0.2616 -0.3352
 5327TIP3    H137472   1.776   0.168  10.799 -0.8885 -0.5358 -0.8260
 5327TIP3    H237473   1.686   0.164  10.920 -1.2031  0.2151 -1.0316
 5328TIP3   OH237474   1.031   4.435   4.152 -0.1801 -0.6289 -0.4993
 5328TIP3    H137475   1.021   4.450   4.246 -1.4896  0.1360 -0.7409
 5328TIP3    H237476   1.109   4.485   4.128  0.2568 -0.9675  0.2179
 5329TIP3   OH237477   4.589   1.401  16.124  0.3077  0.3911 -0.6598
 5329TIP3    H137478   4.615   1.372  16.036  1.0047 -0.8551 -0.0487
 5329TIP3    H237479   4.498   1.428  16.113  0.2543 -0.1502 -1.6888
 5330TIP3   OH237480   0.061   0.842   0.913  0.3411  0.2927 -0.0500
 5330TIP3    H137481   0.082   0.932   0.890 -1.8438  0.4222 -1.5977
 5330TIP3    H237482   0.137   0.792   0.885  0.5411  1.3404 -1.4234
 5331TIP3   OH237483   4.919   4.731  12.966  0.4667 -0.3718  0.1509
 5331TIP3    H137484   4.884   4.675  13.035 -0.6917  0.0683 -0.0656
 5331TIP3    H237485   5.012   4.709  12.962  0.5839 -0.2472  1.9949
 5332TIP3   OH237486   4.091   5.224   0.256  0.3906  0.1998  0.2756
 5332TIP3    H137487   4.044   5.147   0.224  1.8911 -0.2176 -1.0481
 5332TIP3    H237488   4.122   5.199   0.343  0.3040 -0.4470  0.1265
 5333TIP3   OH237489   1.985   3.169  10.678  0.5725  0.1434 -0.1719
 5333TIP3    H137490   1.923   3.106  10.714  0.5665  1.1052  1.5584
 5333TIP3    H237491   1.947   3.255  10.698  0.3804  0.7293 -2.8473
 5334TIP3   OH237492   2.858   3.674  12.160 -0.0784 -0.1786 -0.1611
 5334TIP3    H137493   2.884   3.616  12.088  1.3177 -0.1837  0.3276
 5334TIP3    H237494   2.923   3.657  12.229 -1.4334 -0.2273  1.1273
 5335TIP3   OH237495   3.807   6.622   6.460 -0.2094 -0.1231 -0.2343
 5335TIP3    H137496   3.725   6.664   6.435  0.4589  0.6490 -1.1872
 5335TIP3    H237497   3.784   6.564   6.532 -1.2289  1.5390  0.7893
 5336TIP3   OH237498   6.367   2.390   3.034  0.4514 -0.2293 -1.2049
 5336TIP3    H137499   6.454   2.429   3.040 -0.2565  0.9243  3.3975
 5336TIP3    H237500   6.312   2.460   2.998  0.4572  0.8447  0.8156
 5337TIP3   OH237501   5.469   1.733   0.568  0.0296 -0.0487 -0.0966
 5337TIP3    H137502   5.463   1.678   0.646 -1.8865 -1.2627 -1.0466
 5337TIP3    H237503   5.442   1.820   0.598  0.4522 -0.2353  0.8481
 5338TIP3   OH237504   5.860   2.450   3.587  0.1577  0.0115  0.1119
 5338TIP3    H137505   5.793   2.383   3.573 -0.0077  0.2645 -0.2916
 5338TIP3    H237506   5.854   2.470   3.681 -0.1979 -0.1066  0.1149
 5339TIP3   OH237507   2.325   3.780   2.258 -0.5279 -0.0255 -0.0809
 5339TIP3    H137508   2.319   3.707   2.196  0.7827 -0.3978  0.2154
 5339TIP3    H237509   2.287   3.746   2.339  3.1459 -1.5936  1.1044
 5340TIP3   OH237510   3.031   0.940  14.310  0.3444  0.1494  0.1384
 5340TIP3    H137511   3.118   0.913  14.340  0.0102 -0.6239  0.4394
 5340TIP3    H237512   3.007   0.874  14.245  0.3920  0.9181 -0.6660
 5341TIP3   OH237513   3.705   4.497  12.449 -0.2467 -0.2443  0.3511
 5341TIP3    H137514   3.766   4.557  12.492 -0.0006  0.5756 -1.0818
 5341TIP3    H237515   3.675   4.439  12.518  1.6475 -0.2256  1.2166
 5342TIP3   OH237516   1.451   3.786   0.264 -0.1885 -0.3168 -0.2567
 5342TIP3    H137517   1.365   3.768   0.302 -0.3208 -0.0063 -0.4120
 5342TIP3    H237518   1.470   3.708   0.211 -0.1882 -0.5677  0.1168
 5343TIP3   OH237519   4.685   4.269   0.537 -0.0192 -0.6717 -0.0011
 5343TIP3    H137520   4.727   4.205   0.479 -2.9665 -1.7421 -1.0250
 5343TIP3    H237521   4.694   4.352   0.492 -0.1954 -1.1137 -0.8595
 5344TIP3   OH237522   1.906   5.207   4.284 -0.3599  0.3412  0.2900
 5344TIP3    H137523   1.939   5.164   4.363 -0.9827  0.2427  0.4938
 5344TIP3    H237524   1.816   5.231   4.305 -0.0255  1.7611  0.1808
 5345TIP3   OH237525   5.178   1.422  13.658  0.5597 -0.4478 -0.3283
 5345TIP3    H137526   5.144   1.359  13.720  0.7778  1.4495  1.7990
 5345TIP3    H237527   5.270   1.433  13.683  1.3432 -1.5211 -2.5949
 5346TIP3   OH237528   4.230   5.808   3.208  0.3809  0.5503 -0.3070
 5346TIP3    H137529   4.306   5.773   3.161  0.7025  2.0894 -0.9709
 5346TIP3    H237530   4.242   5.903   3.206 -2.6529  0.9690 -2.3392
 5347TIP3   OH237531   6.230   5.067  15.071 -0.2483  0.1152  0.3445
 5347TIP3    H137532   6.161   5.049  15.135 -0.8757 -0.4481 -0.4636
 5347TIP3    H237533   6.296   4.999  15.086 -0.3262  0.0732  0.4892
 5348TIP3   OH237534   6.641   6.316  11.979 -0.1607  0.4796  0.0811
 5348TIP3    H137535   6.613   6.392  12.031 -0.3385  0.4033  0.0984
 5348TIP3    H237536   6.681   6.257  12.042  0.1032  0.6206  0.0445
 5349TIP3   OH237537   0.170   3.536  12.969 -0.1058 -0.1949 -0.0679
 5349TIP3    H137538   0.125   3.495  12.896  0.3943 -0.7769 -0.0555
 5349TIP3    H237539   0.252   3.569  12.932 -0.8982  1.6055 -0.2751
 5350TIP3   OH237540   0.383   0.764  12.813  0.0061 -0.0611 -0.3475
 5350TIP3    H137541   0.468   0.795  12.846  0.4634  0.3440 -1.8775
 5350TIP3    H237542   0.403   0.727  12.727 -1.3277 -0.2364 -0.5863
 5351TIP3   OH237543   4.501   2.267   0.539  0.1989  0.2988 -0.3084
 5351TIP3    H137544   4.463   2.237   0.621 -0.6815  0.1258 -0.7769
 5351TIP3    H237545   4.588   2.226   0.536  0.5459  0.9273  0.8958
 5352TIP3   OH237546   1.393   1.080  13.526  0.2530  0.2815  0.1335
 5352TIP3    H137547   1.421   1.066  13.436  0.7749 -0.2523  0.3715
 5352TIP3    H237548   1.324   1.146  13.520  0.5450  0.5260 -0.6180
 5353TIP3   OH237549   2.614   4.435  13.645  0.4370  0.3648 -0.3109
 5353TIP3    H137550   2.672   4.360  13.657  1.5100  1.1087 -0.7918
 5353TIP3    H237551   2.544   4.421  13.709  1.9808  0.2866  1.4005
 5354TIP3   OH237552   0.923   1.007   3.674 -0.0987 -0.5364 -0.0268
 5354TIP3    H137553   0.980   0.943   3.716  0.2629 -0.1072  0.1386
 5354TIP3    H237554   0.835   0.982   3.702  0.2383  0.6086  2.1741
 5355TIP3   OH237555   5.984   0.737  13.503 -0.3333  0.6254  0.0320
 5355TIP3    H137556   5.894   0.761  13.525  0.1344  1.7002  0.8347
 5355TIP3    H237557   6.012   0.805  13.441 -0.1543  0.1661 -0.3919
 5356TIP3   OH237558   1.135   3.967  13.881 -0.3021 -0.0100 -0.3340
 5356TIP3    H137559   1.172   4.032  13.822  0.7278 -0.6568 -0.4076
 5356TIP3    H237560   1.152   4.002  13.969 -1.2414  0.6259 -0.4005
 5357TIP3   OH237561   5.259   2.643  16.484  0.0633 -0.1505  0.0600
 5357TIP3    H137562   5.175   2.659  16.439 -0.5920 -0.6929  1.0604
 5357TIP3    H237563   5.278   2.725  16.529 -0.2493 -0.2234  0.3294
 5358TIP3   OH237564   3.006   6.591   4.790  0.4831  0.1659  0.2030
 5358TIP3    H137565   2.941   6.579   4.721  0.4909  0.3198  0.1694
 5358TIP3    H237566   3.052   6.507   4.794  1.9759  0.8690 -1.4999
 5359TIP3   OH237567   1.886   5.581   3.255 -0.2251  0.4985  0.5876
 5359TIP3    H137568   1.859   5.663   3.296 -2.7333 -0.0647  0.1550
 5359TIP3    H237569   1.861   5.513   3.317  2.6410  0.0507  1.3409
 5360TIP3   OH237570   1.433   5.785   2.033 -0.2792 -0.1246 -0.7314
 5360TIP3    H137571   1.378   5.764   2.109  1.5525  0.1358  0.7010
 5360TIP3    H237572   1.485   5.860   2.061  0.6927 -0.2660 -2.1127
 5361TIP3   OH237573   1.468   2.162  17.179  0.5402 -0.1770  0.0213
 5361TIP3    H137574   1.414   2.210  17.242 -0.1456  1.5245 -1.8064
 5361TIP3    H237575   1.406   2.111  17.128  0.5724  1.7799 -2.0798
 5362TIP3   OH237576   2.593   1.186  11.190  0.3097 -0.1216 -0.2485
 5362TIP3    H137577   2.586   1.092  11.173  3.0071 -0.0405 -2.3236
 5362TIP3    H237578   2.675   1.195  11.238  0.4752  1.2201 -0.7497
 5363TIP3   OH237579   4.764   4.222   4.494  0.1502  0.1875 -0.2260
 5363TIP3    H137580   4.728   4.257   4.413 -1.6416  0.6648  0.7378
 5363TIP3    H237581   4.716   4.268   4.563  0.3777 -1.4994  1.0824
 5364TIP3   OH237582   1.995   4.888  13.205  0.2304  0.3280 -0.1908
 5364TIP3    H137583   2.046   4.822  13.158 -0.6799 -0.0458 -0.6647
 5364TIP3    H237584   1.910   4.888  13.162 -0.6608 -0.0824  1.5063
 5365TIP3   OH237585   5.080   4.889   3.496 -0.4608 -0.8014  0.3073
 5365TIP3    H137586   5.161   4.896   3.446  0.7277 -3.8777  1.6224
 5365TIP3    H237587   5.042   4.805   3.468 -2.0426 -0.4448  1.2965
 5366TIP3   OH237588   1.821   3.102   4.345  0.2722 -0.1729  0.4720
 5366TIP3    H137589   1.881   3.089   4.272 -1.6363  1.9537 -1.5685
 5366TIP3    H237590   1.735   3.075   4.311 -0.5011 -0.0266  2.2299
 5367TIP3   OH237591   3.006   0.410   1.553  0.2177 -0.4806 -0.0371
 5367TIP3    H137592   3.058   0.418   1.633  0.0654 -0.7856  0.0965
 5367TIP3    H237593   3.003   0.315   1.537 -1.1254 -0.5356  0.5024
 5368TIP3   OH237594   3.828   1.245  14.269  0.0967  0.1849 -0.0372
 5368TIP3    H137595   3.732   1.251  14.269  0.1635  1.4684  0.8128
 5368TIP3    H237596   3.857   1.316  14.213  0.5765  0.1202  0.1268
 5369TIP3   OH237597   1.422   1.582   3.781 -0.1720 -0.0351  0.3816
 5369TIP3    H137598   1.447   1.617   3.696 -1.2987 -2.1740 -0.8692
 5369TIP3    H237599   1.495   1.605   3.839  0.4702  1.6967 -1.0682
 5370TIP3   OH237600   6.324   5.018   2.167  0.5244  0.2806 -0.2659
 5370TIP3    H137601   6.296   5.109   2.175  0.7681  0.4320 -1.0687
 5370TIP3    H237602   6.307   4.980   2.253 -3.4205  0.0059 -1.0413
 5371TIP3   OH237603   6.733   3.667   2.957 -0.1939  0.0311 -0.3610
 5371TIP3    H137604   6.702   3.578   2.976 -0.0070  0.3452  1.5296
 5371TIP3    H237605   6.821   3.654   2.924  0.3571 -0.4371  1.2187
 5372TIP3   OH237606   0.697   0.628   0.037  0.2466 -0.3105 -0.4532
 5372TIP3    H137607   0.613   0.636   0.084  1.2575 -0.2551  1.4101
 5372TIP3    H237608   0.709   0.712  -0.006  0.4943  0.5798  1.2938
 5373TIP3   OH237609   6.392   0.902   4.328 -0.0157  0.0280  0.1945
 5373TIP3    H137610   6.457   0.932   4.391  0.1529 -0.4493  0.2518
 5373TIP3    H237611   6.329   0.852   4.381 -0.4156  0.4615  0.1360
 5374TIP3   OH237612   5.270   4.648  12.269 -0.9902 -0.1250 -0.2230
 5374TIP3    H137613   5.212   4.724  12.272 -1.3653 -0.3359 -1.6309
 5374TIP3    H237614   5.229   4.584  12.327 -2.6314 -0.5689 -1.8128
 5375TIP3   OH237615   4.861   3.438  15.642  0.7804  0.0334 -0.0575
 5375TIP3    H137616   4.806   3.395  15.577  0.0574 -1.5349  1.5557
 5375TIP3    H237617   4.907   3.367  15.686  0.5809  0.9658  1.7295
 5376TIP3   OH237618   2.058   1.291  16.583 -0.1346  0.1974  0.1875
 5376TIP3    H137619   1.968   1.290  16.550  0.0579  1.8025 -0.4288
 5376TIP3    H237620   2.057   1.357  16.652  0.5341  0.1006  0.2862
 5377TIP3   OH237621   1.110   3.098  13.411  0.5621 -0.7994 -0.4018
 5377TIP3    H137622   1.123   3.003  13.407 -1.9573 -1.2193  0.0929
 5377TIP3    H237623   1.180   3.135  13.358 -0.5387 -3.1584 -3.6294
 5378TIP3   OH237624   4.352   3.779  11.114 -0.1742  0.2186 -0.2586
 5378TIP3    H137625   4.401   3.857  11.141  0.5139 -0.2572 -0.1164
 5378TIP3    H237626   4.395   3.750  11.034 -0.0957 -0.3097 -0.0308
 5379TIP3   OH237627   4.045   4.492   5.466  0.3971 -0.1060  0.7157
 5379TIP3    H137628   4.085   4.408   5.445 -0.1360 -0.3527  0.6719
 5379TIP3    H237629   4.116   4.545   5.501  1.1719  0.0616 -1.0263
 5380TIP3   OH237630   6.438   1.734  14.228 -0.0326  0.1559 -0.0301
 5380TIP3    H137631   6.375   1.767  14.164  0.6411 -0.4043 -0.9984
 5380TIP3    H237632   6.510   1.700  14.175  0.8432  0.2990  1.0468
 5381TIP3   OH237633   6.351   6.253   0.301 -0.3987  0.3504 -0.5775
 5381TIP3    H137634   6.323   6.220   0.215 -0.0384 -0.5712 -0.3455
 5381TIP3    H237635   6.274   6.299   0.335 -1.1723 -0.9338 -0.5647
 5382TIP3   OH237636   1.864   4.446   2.527 -0.0053 -0.3588  0.1501
 5382TIP3    H137637   1.909   4.362   2.537 -0.8020 -0.8680 -0.4575
 5382TIP3    H237638   1.794   4.443   2.592 -0.5320 -0.5038 -0.4255
 5383TIP3   OH237639   2.767   4.999   5.469  0.1146  0.3228  0.9495
 5383TIP3    H137640   2.710   4.950   5.409  1.7048  0.4277 -0.6977
 5383TIP3    H237641   2.793   4.935   5.535  1.6242 -0.8880 -0.7980
 5384TIP3   OH237642   1.749   3.833  14.357  0.4741 -0.2991  0.0175
 5384TIP3    H137643   1.665   3.869  14.328 -0.2433 -1.5275  0.5159
 5384TIP3    H237644   1.813   3.901  14.337 -0.7876  1.0870  0.6146
 5385TIP3   OH237645   6.568   5.548   4.632  0.2417  0.0508 -0.0834
 5385TIP3    H137646   6.593   5.624   4.579 -0.3831 -0.5737 -1.2802
 5385TIP3    H237647   6.596   5.473   4.581  0.7036 -0.5488  1.0254
 5386TIP3   OH237648   1.419   5.533  15.823  0.0461  0.3854 -0.1196
 5386TIP3    H137649   1.464   5.616  15.838 -0.2821  0.4456  0.5401
 5386TIP3    H237650   1.358   5.551  15.752  3.0118 -0.4088 -3.0178
 5387TIP3   OH237651   4.495   0.610   6.093 -0.6546 -0.1784 -0.6036
 5387TIP3    H137652   4.506   0.533   6.150  0.0608  0.6532  0.4017
 5387TIP3    H237653   4.410   0.645   6.117 -0.1751  0.4151  0.2854
 5388TIP3   OH237654   1.985   5.588  10.663 -0.2793 -0.1730  0.6190
 5388TIP3    H137655   2.019   5.555  10.747  2.4577  0.7920 -0.0705
 5388TIP3    H237656   2.018   5.526  10.598 -1.9918 -0.6408  0.1743
 5389TIP3   OH237657   6.168   2.735   0.399  0.5409 -0.0716 -0.8276
 5389TIP3    H137658   6.096   2.782   0.356  1.5413  0.7180 -1.6620
 5389TIP3    H237659   6.152   2.643   0.378 -0.1935  0.1018 -1.0563
 5390TIP3   OH237660   3.703   1.183  13.071 -0.2350 -0.1221 -0.3727
 5390TIP3    H137661   3.663   1.169  12.985  0.1937 -0.4647 -0.5209
 5390TIP3    H237662   3.754   1.263  13.061 -0.8610  0.3031 -0.1892
 5391TIP3   OH237663   4.156   2.688   0.151  0.1867  0.0219  0.7185
 5391TIP3    H137664   4.169   2.665   0.059 -2.3567 -0.2291  0.3925
 5391TIP3    H237665   4.089   2.757   0.149 -0.8731 -0.9312  2.4592
 5392TIP3   OH237666   0.440   2.531  15.118 -0.4459 -0.1052  0.1442
 5392TIP3    H137667   0.442   2.563  15.028  1.0145  0.7199  0.4462
 5392TIP3    H237668   0.351   2.498  15.130 -0.4910 -0.7475 -1.7762
 5393TIP3   OH237669   1.889   0.590  11.101  0.0824  0.8975 -0.2265
 5393TIP3    H137670   1.867   0.605  11.009  0.3417 -1.4310 -0.6897
 5393TIP3    H237671   1.807   0.604  11.148 -0.2649  1.2034 -0.9159
 5394TIP3   OH237672   5.446   1.659  15.174 -0.3494 -0.1177  0.0050
 5394TIP3    H137673   5.520   1.616  15.131 -2.0287 -2.1479 -0.9522
 5394TIP3    H237674   5.399   1.588  15.218 -1.2951  1.2579  1.2691
 5395TIP3   OH237675   6.572   3.479  13.640  0.3706 -0.5982  0.0167
 5395TIP3    H137676   6.527   3.557  13.608  0.3569 -0.5935  0.0494
 5395TIP3    H237677   6.661   3.507  13.656  0.6510 -0.8530 -1.0457
 5396TIP3   OH237678   5.273   5.321  10.399  0.1010  0.2317 -0.3741
 5396TIP3    H137679   5.185   5.308  10.362  0.5476 -2.5084 -0.5746
 5396TIP3    H237680   5.329   5.262  10.348  1.8189  0.9396  0.6647
 5397TIP3   OH237681   6.594   1.956  14.341  0.0052 -0.0336  0.4555
 5397TIP3    H137682   6.548   1.872  14.333 -0.2743  0.2277 -0.8150
 5397TIP3    H237683   6.598   1.989  14.251  0.8458  0.9269  0.8463
 5398TIP3   OH237684   0.024   3.876   6.866  0.0534  0.9168  0.0301
 5398TIP3    H137685   0.067   3.876   6.951 -0.5099  1.7868  0.3192
 5398TIP3    H237686   0.068   3.945   6.817  1.1337 -0.3216 -0.7840
 5399TIP3   OH237687   3.631   6.600  14.643  0.4485 -0.0751 -0.7163
 5399TIP3    H137688   3.630   6.551  14.725  0.2684  1.1147 -0.0051
 5399TIP3    H237689   3.716   6.579  14.604  0.7691 -0.1934  0.0372
 5400TIP3   OH237690   4.536   4.583  14.902 -0.0763  0.2481 -0.0476
 5400TIP3    H137691   4.521   4.508  14.959  1.6497 -0.0257  0.0530
 5400TIP3    H237692   4.630   4.582  14.884  0.4589  3.9171  2.0654
 5401TIP3   OH237693   2.528   2.815  14.427 -0.5640 -0.4538  0.0762
 5401TIP3    H137694   2.449   2.773  14.462  0.0083  0.1626  2.1798
 5401TIP3    H237695   2.597   2.748  14.437 -0.3752 -0.2351  0.2519
 5402TIP3   OH237696   0.530   1.437  14.181 -0.0058  0.0858  0.1850
 5402TIP3    H137697   0.581   1.401  14.254 -1.3864 -0.7225  0.7592
 5402TIP3    H237698   0.540   1.532  14.189  0.8053 -0.0395  0.7251
 5403TIP3   OH237699   4.752   4.808  16.076 -0.7544  0.5297 -0.5326
 5403TIP3    H137700   4.780   4.882  16.130 -0.8191 -0.7167  1.2537
 5403TIP3    H237701   4.658   4.821  16.063 -1.4165 -0.8934  2.4982
 5404TIP3   OH237702   3.107   4.201  10.367 -0.2990  0.9232 -0.9924
 5404TIP3    H137703   3.135   4.111  10.350  0.6439  0.4324  2.8296
 5404TIP3    H237704   3.189   4.250  10.374 -0.6182  1.1216  1.7054
 5405TIP3   OH237705   5.194   6.635   0.061 -0.0598 -0.0278  0.1195
 5405TIP3    H137706   5.194   6.539   0.058 -1.4868 -0.0617  0.9420
 5405TIP3    H237707   5.275   6.657   0.107 -1.2830 -0.9804  2.8608
 5406TIP3   OH237708   1.161   5.923   6.212 -0.0901 -0.1461 -0.1461
 5406TIP3    H137709   1.108   5.921   6.292  0.9266 -2.1482  0.4975
 5406TIP3    H237710   1.240   5.874   6.234  0.1966 -0.7423 -2.3880
 5407TIP3   OH237711   5.330   0.603   3.732  0.2628  0.3699 -0.4369
 5407TIP3    H137712   5.418   0.571   3.711  0.9983  1.1083  1.4030
 5407TIP3    H237713   5.304   0.550   3.808  0.9086  3.0729  1.7511
 5408TIP3   OH237714   0.018   3.053  11.910  0.4965 -0.0734 -0.0478
 5408TIP3    H137715   0.090   3.057  11.974  1.8772  0.3579 -1.5863
 5408TIP3    H237716   0.040   2.979  11.853 -1.4302 -1.3168  0.7539
 5409TIP3   OH237717   2.270   3.338  12.530 -0.2081 -0.3258  0.2242
 5409TIP3    H137718   2.317   3.422  12.523 -0.3937  0.0846  3.4769
 5409TIP3    H237719   2.339   3.275  12.552 -0.7238 -0.2300  2.1545
 5410TIP3   OH237720   4.314   0.332   1.897  0.0534 -0.5296  0.0909
 5410TIP3    H137721   4.354   0.329   1.810 -0.2934  0.3089 -0.1017
 5410TIP3    H237722   4.334   0.247   1.936 -0.2057 -1.0989 -0.9967
 5411TIP3   OH237723   1.314   0.800  14.497 -0.2469  0.9011  0.5658
 5411TIP3    H137724   1.368   0.833  14.425 -1.0683  0.3328 -0.3216
 5411TIP3    H237725   1.237   0.856  14.496 -0.7138  0.2575  0.3580
 5412TIP3   OH237726   6.209   4.987   3.760 -0.2301 -0.2806  0.0927
 5412TIP3    H137727   6.211   5.066   3.814 -0.3509 -0.0449 -0.2416
 5412TIP3    H237728   6.297   4.950   3.768  0.2689  0.6471 -0.8471
 5413TIP3   OH237729   0.874   6.570  15.926 -0.3910 -0.1581  0.3224
 5413TIP3    H137730   0.908   6.481  15.922 -2.2524 -0.8552 -0.4132
 5413TIP3    H237731   0.947   6.622  15.959 -0.5656 -2.6725  5.1545
 5414TIP3   OH237732   2.655   6.424   3.588 -0.4514 -0.7972 -0.2836
 5414TIP3    H137733   2.742   6.422   3.626 -1.7633 -0.8503  2.8275
 5414TIP3    H237734   2.631   6.516   3.589 -0.3073 -0.7406 -1.4750
 5415TIP3   OH237735   3.845   3.154  13.540  0.0780  0.1040 -0.4003
 5415TIP3    H137736   3.922   3.107  13.508  0.0273  2.2528 -3.9710
 5415TIP3    H237737   3.880   3.219  13.601  0.9765  0.1607 -0.9622
 5416TIP3   OH237738   5.553   2.882  14.971  0.5428  0.4247  0.0228
 5416TIP3    H137739   5.464   2.902  14.943  0.2311 -2.4397 -1.2372
 5416TIP3    H237740   5.563   2.926  15.056 -1.9985  0.9563  0.0658
 5417TIP3   OH237741   1.323   6.224   0.440 -0.4573 -0.1988  0.8937
 5417TIP3    H137742   1.402   6.181   0.407  0.1695 -1.3860  3.7607
 5417TIP3    H237743   1.353   6.311   0.467 -0.6418  0.1927 -0.1274
 5418TIP3   OH237744   6.014   6.124  14.356  0.1823 -0.7124  0.1061
 5418TIP3    H137745   6.016   6.097  14.448 -1.5443  0.1465  0.4052
 5418TIP3    H237746   5.992   6.044  14.308 -1.4141 -0.6212  0.6752
 5419TIP3   OH237747   1.935   4.841   2.682 -0.4581  0.3306  0.0165
 5419TIP3    H137748   1.894   4.873   2.601 -0.5629 -0.9363 -0.4510
 5419TIP3    H237749   1.872   4.778   2.717 -0.3637  0.8026  1.0468
 5420TIP3   OH237750   0.258   0.451  13.911 -0.2861 -0.0040 -0.1777
 5420TIP3    H137751   0.200   0.449  13.987 -1.4828  2.0384 -1.0081
 5420TIP3    H237752   0.200   0.441  13.836  0.7578 -0.7413 -0.9066
 5421TIP3   OH237753   3.358   2.133   1.521  0.3048  0.5564 -0.5808
 5421TIP3    H137754   3.416   2.187   1.468  2.6243 -1.9884 -0.7394
 5421TIP3    H237755   3.299   2.091   1.458 -1.8161  3.1644 -0.4165
 5422TIP3   OH237756   1.741   3.644  15.907  0.1911  0.4392  0.3894
 5422TIP3    H137757   1.734   3.698  15.828  1.6008 -0.5090 -0.4106
 5422TIP3    H237758   1.689   3.691  15.972 -1.7379  0.7725 -1.3272
 5423TIP3   OH237759   5.340   4.810  12.524 -0.8052  0.6253  0.1722
 5423TIP3    H137760   5.370   4.761  12.600  0.9754 -0.5097 -1.2028
 5423TIP3    H237761   5.347   4.748  12.451  0.1792  2.4969 -1.3766
 5424TIP3   OH237762   1.564   3.045   1.856 -0.0958 -0.7984  0.3101
 5424TIP3    H137763   1.574   3.041   1.761  1.0319  0.3853  0.3685
 5424TIP3    H237764   1.653   3.061   1.889 -0.4577 -1.3457  1.5677
 5425TIP3   OH237765   5.624   2.066   1.692  0.2672  0.3577 -0.7625
 5425TIP3    H137766   5.632   1.977   1.728  2.2305  0.3696 -1.0736
 5425TIP3    H237767   5.605   2.121   1.768  0.8705 -0.0976 -0.2712
 5426TIP3   OH237768   2.985   3.158  13.733 -0.0084  0.1781 -0.5480
 5426TIP3    H137769   2.965   3.065  13.744 -0.2804  0.3524  0.5131
 5426TIP3    H237770   2.907   3.194  13.691  0.0186 -0.0342 -0.7825
 5427TIP3   OH237771   3.678   0.026  12.361 -0.0285 -0.0175  0.2348
 5427TIP3    H137772   3.626   0.006  12.438 -0.0600 -3.5455 -0.6300
 5427TIP3    H237773   3.621   0.080  12.306 -1.5736 -1.1198  0.7423
 5428TIP3   OH237774   4.396   5.558   6.481 -0.6879 -0.4240  0.5654
 5428TIP3    H137775   4.491   5.559   6.474 -0.7617  1.0294 -0.3706
 5428TIP3    H237776   4.379   5.567   6.575  0.0829 -0.2892  0.6948
 5429TIP3   OH237777   2.110   5.224   2.257  0.2007  0.1260  0.3816
 5429TIP3    H137778   2.169   5.254   2.188  1.2445 -2.3337  0.1414
 5429TIP3    H237779   2.096   5.131   2.238  1.0558 -0.7975  3.7972
 5430TIP3   OH237780   0.723   1.527   1.384  0.3057 -0.6784  0.1335
 5430TIP3    H137781   0.696   1.435   1.391 -0.3114 -0.5081 -0.0406
 5430TIP3    H237782   0.739   1.554   1.474 -0.4768 -0.6633  0.2657
 5431TIP3   OH237783   3.194   6.208   1.431 -0.1678 -0.0951 -0.1845
 5431TIP3    H137784   3.157   6.173   1.513 -1.6764  0.3119 -0.6746
 5431TIP3    H237785   3.202   6.131   1.374  0.5811 -0.3264  0.2233
 5432TIP3   OH237786   1.510   4.095   5.444  0.0304  0.0422  0.3596
 5432TIP3    H137787   1.574   4.060   5.383  0.5618  0.0591  0.9018
 5432TIP3    H237788   1.552   4.087   5.530  0.1816  2.0426  0.4939
 5433TIP3   OH237789   3.857   3.653   1.804  0.0105  0.2915  0.1721
 5433TIP3    H137790   3.859   3.558   1.791 -1.8481  0.0222  1.7759
 5433TIP3    H237791   3.945   3.674   1.834  0.0647 -1.1075  1.0485
 5434TIP3   OH237792   2.468   4.914  12.008  0.1664  0.4905 -0.0068
 5434TIP3    H137793   2.479   4.883  11.918 -0.5890 -0.1056  0.0938
 5434TIP3    H237794   2.397   4.978  12.002  0.7962  1.1939  0.0067
 5435TIP3   OH237795   3.713   4.704  10.838  0.1022  0.2776 -0.3535
 5435TIP3    H137796   3.695   4.613  10.815 -1.4905  0.5649 -0.3037
 5435TIP3    H237797   3.723   4.749  10.754 -0.6620  0.3538 -0.4047
 5436TIP3   OH237798   0.301   2.092  14.493  0.2398  0.5443 -0.1181
 5436TIP3    H137799   0.381   2.133  14.528  0.6181 -0.0407 -0.2979
 5436TIP3    H237800   0.307   2.106  14.398  1.6899 -2.2204 -0.4874
 5437TIP3   OH237801   3.433   2.970   3.266  0.7789  0.2418 -0.0941
 5437TIP3    H137802   3.419   2.889   3.314  1.2673  1.2102  1.7487
 5437TIP3    H237803   3.387   2.958   3.184 -1.3720 -0.8855  1.2429
 5438TIP3   OH237804   5.896   0.843  15.828  0.8930  0.1893 -0.1507
 5438TIP3    H137805   5.940   0.778  15.773  0.0664  0.2903 -0.9499
 5438TIP3    H237806   5.962   0.910  15.844  0.7987  0.7789 -2.0846
 5439TIP3   OH237807   5.830   0.838   6.048  0.8380 -0.0170 -0.3678
 5439TIP3    H137808   5.758   0.779   6.025  0.4879  0.6834 -1.0952
 5439TIP3    H237809   5.863   0.804   6.131  0.1145 -0.7578 -0.3767
 5440TIP3   OH237810   2.497   6.738  15.038  0.1625 -0.1564 -0.0441
 5440TIP3    H137811   2.462   6.672  14.979 -1.7540  0.4914  0.3426
 5440TIP3    H237812   2.450   6.725  15.121  3.0449 -1.2797  1.4997
 5441TIP3   OH237813   1.178   6.165  14.972 -0.5908 -0.0266 -0.3743
 5441TIP3    H137814   1.201   6.258  14.975 -5.0026  1.1893  0.1658
 5441TIP3    H237815   1.169   6.145  14.879 -0.1735  0.2687 -0.4736
 5442TIP3   OH237816   1.886   5.389  13.216  0.0822 -0.4189 -0.7245
 5442TIP3    H137817   1.866   5.358  13.128  0.6234  0.2324 -1.0851
 5442TIP3    H237818   1.828   5.464  13.229  0.5499 -0.0345 -0.8313
 5443TIP3   OH237819   2.729   3.634  16.760 -0.3509 -0.9881  0.5238
 5443TIP3    H137820   2.706   3.645  16.668  1.2378 -1.2313  0.0800
 5443TIP3    H237821   2.675   3.562  16.791 -1.1620 -0.6562 -0.1114
 5444TIP3   OH237822   4.571   5.431   1.521 -0.3895  0.6576 -0.3992
 5444TIP3    H137823   4.507   5.498   1.544 -0.6350  0.2413  0.1116
 5444TIP3    H237824   4.520   5.351   1.509 -0.5316  1.1895 -4.0216
 5445TIP3   OH237825   2.836   4.244  13.631  0.3764 -0.0406  0.2765
 5445TIP3    H137826   2.776   4.175  13.660 -2.1251  1.6882 -0.6532
 5445TIP3    H237827   2.919   4.223  13.675 -0.6467 -2.9236  0.9801
 5446TIP3   OH237828   1.574   0.054  15.282 -0.0355 -0.1685 -0.2064
 5446TIP3    H137829   1.559  -0.037  15.307 -1.5264 -0.3177 -1.6174
 5446TIP3    H237830   1.607   0.050  15.193 -0.9331  0.7248 -0.5878
 5447TIP3   OH237831   2.843   5.475  15.158 -0.4188  0.6454  0.5130
 5447TIP3    H137832   2.796   5.539  15.105 -0.1065  0.1672 -0.3517
 5447TIP3    H237833   2.785   5.458  15.233 -1.0095  1.0760  0.1567
 5448TIP3   OH237834   0.714   4.929  11.622  0.7502 -0.2977 -0.0055
 5448TIP3    H137835   0.729   4.986  11.547  0.7878 -0.4636 -0.1256
 5448TIP3    H237836   0.765   4.850  11.603  0.1867 -0.6328 -0.1495
 5449TIP3   OH237837   1.167   2.150  17.287  0.1266  0.2952 -0.7175
 5449TIP3    H137838   1.113   2.131  17.364  0.1147 -0.0835 -0.8156
 5449TIP3    H237839   1.104   2.172  17.218  0.1309  0.5194 -0.6487
 5450TIP3   OH237840   3.527   3.283  15.715  0.0178  0.2840  0.2803
 5450TIP3    H137841   3.499   3.268  15.625  2.2165  0.2682 -0.4249
 5450TIP3    H237842   3.615   3.320  15.707 -0.4521  1.9826  2.3695
 5451TIP3   OH237843   6.184   1.316   3.304 -0.0386 -0.1035 -0.1808
 5451TIP3    H137844   6.277   1.320   3.279 -0.0258 -0.4052 -0.1848
 5451TIP3    H237845   6.159   1.225   3.286  0.7330 -1.1563  3.6897
 5452TIP3   OH237846   5.449   1.427   6.062 -0.0644 -0.0711 -0.3951
 5452TIP3    H137847   5.533   1.469   6.080  0.9377 -1.4430 -1.6899
 5452TIP3    H237848   5.420   1.394   6.147 -0.6377  2.7343  0.5596
 5453TIP3   OH237849   2.469   1.245   0.972  0.5138 -0.5208  0.0136
 5453TIP3    H137850   2.435   1.215   1.056  2.4685 -1.0846  0.6360
 5453TIP3    H237851   2.439   1.180   0.909 -2.4939  0.8551 -0.0725
 5454TIP3   OH237852   0.041   5.832  15.078 -0.1148  0.3417  0.1549
 5454TIP3    H137853   0.089   5.834  15.161 -0.9229 -1.8822  0.7331
 5454TIP3    H237854   0.109   5.826  15.011  0.5508 -3.6675  1.0119
 5455TIP3   OH237855   1.491   3.702   3.613 -0.3161  0.1141  0.3623
 5455TIP3    H137856   1.493   3.629   3.675 -1.6369  0.9050  1.3641
 5455TIP3    H237857   1.553   3.765   3.648 -1.1132  0.5908  0.9438
 5456TIP3   OH237858   2.166   5.646  12.030 -0.1984 -0.2396  0.2163
 5456TIP3    H137859   2.239   5.692  11.989 -0.1983 -1.6080 -1.3874
 5456TIP3    H237860   2.188   5.643  12.123  0.0234  2.5459  0.2699
 5457TIP3   OH237861   4.066   6.391  13.516  0.0102 -0.4106  0.5441
 5457TIP3    H137862   4.115   6.465  13.552 -0.5114 -0.6143  1.6796
 5457TIP3    H237863   4.022   6.352  13.591 -1.3912 -0.6153 -0.3528
 5458TIP3   OH237864   5.953   6.659  12.307  0.3238  0.2071  0.4938
 5458TIP3    H137865   5.973   6.602  12.233  0.1447  0.1155  0.5155
 5458TIP3    H237866   5.857   6.656  12.314  0.3715 -0.1950  1.0459
 5459TIP3   OH237867   2.894   5.731   1.225 -0.5237  1.1119  0.1575
 5459TIP3    H137868   2.988   5.746   1.224 -0.0747 -1.3268  1.1978
 5459TIP3    H237869   2.870   5.732   1.318 -0.9193 -1.5312  0.1195
 5460TIP3   OH237870   2.136   6.562  11.650  0.4600 -0.0427  0.0937
 5460TIP3    H137871   2.080   6.611  11.590 -0.1042  0.2423  0.8471
 5460TIP3    H237872   2.081   6.491  11.682  1.0415 -0.7340 -0.4103
 5461TIP3   OH237873   3.809   4.256  14.662  0.0489  0.3570 -0.2331
 5461TIP3    H137874   3.849   4.335  14.627  0.3331  2.1995  3.9562
 5461TIP3    H237875   3.720   4.256  14.626  0.7467  1.3619 -1.9983
 5462TIP3   OH237876   0.155   2.163  12.722  0.1184 -0.0795 -0.5335
 5462TIP3    H137877   0.199   2.079  12.736 -0.9317 -0.4937  0.4098
 5462TIP3    H237878   0.100   2.148  12.645 -1.9081 -1.0426  1.0548
 5463TIP3   OH237879   4.512   0.110  14.545  0.0014 -0.1342 -0.3990
 5463TIP3    H137880   4.537   0.057  14.469 -1.5708 -0.4978 -0.6888
 5463TIP3    H237881   4.555   0.068  14.619  0.0512 -0.8853 -0.8437
 5464TIP3   OH237882   3.867   1.622   1.309  0.5077 -0.4375  0.1802
 5464TIP3    H137883   3.954   1.620   1.350 -0.3911  0.3211  2.1560
 5464TIP3    H237884   3.814   1.564   1.363 -0.2657 -0.7582 -0.9227
 5465TIP3   OH237885   5.584   3.382   0.822 -0.6612 -0.1144  0.4911
 5465TIP3    H137886   5.636   3.419   0.893 -0.8989  1.4031 -0.1050
 5465TIP3    H237887   5.495   3.414   0.839 -1.2094 -1.7745  0.8829
 5466TIP3   OH237888   1.545   2.703   4.924  0.2168  0.0339 -0.1581
 5466TIP3    H137889   1.595   2.686   4.844  0.6467 -1.0268  0.3291
 5466TIP3    H237890   1.602   2.673   4.995 -1.9053 -3.1336  0.3046
 5467TIP3   OH237891   6.455   5.925   2.498 -0.1713  0.4092  1.1641
 5467TIP3    H137892   6.411   5.940   2.414  1.1412  0.6935  0.5293
 5467TIP3    H237893   6.405   5.978   2.560 -0.8947  0.5225  0.5020
 5468TIP3   OH237894   6.620   1.340   0.941  0.2689  0.1973  0.4615
 5468TIP3    H137895   6.705   1.336   0.985  0.6277 -0.3660 -0.2792
 5468TIP3    H237896   6.605   1.251   0.909  0.1942  0.6963 -0.9074
 5469TIP3   OH237897   2.980   6.055  15.429 -0.7204 -0.1678  0.0123
 5469TIP3    H137898   3.035   6.100  15.493 -0.5547 -0.9386  0.4297
 5469TIP3    H237899   2.924   5.998  15.481 -1.9831  0.6714 -0.4102
 5470TIP3   OH237900   1.007   5.090   3.869  0.4001 -0.2901  0.2144
 5470TIP3    H137901   0.968   5.054   3.949  1.7273  1.6704  1.7890
 5470TIP3    H237902   1.101   5.072   3.879  0.9295  2.3602  0.4311
 5471TIP3   OH237903   0.674   6.176  15.225 -0.0777  0.6359  0.0108
 5471TIP3    H137904   0.667   6.114  15.152 -1.4127  0.0092  0.6510
 5471TIP3    H237905   0.697   6.122  15.300 -1.0412  0.9496  0.5343
 5472TIP3   OH237906   0.433   2.000  12.259  0.1448  0.4568 -0.3768
 5472TIP3    H137907   0.391   2.051  12.329  0.5836  1.0055 -0.5095
 5472TIP3    H237908   0.493   2.062  12.218 -0.3380  0.2341 -1.4414
 5473TIP3   OH237909   2.752   1.736   4.370 -0.5471 -0.6605  0.0605
 5473TIP3    H137910   2.838   1.695   4.381 -0.0315  0.2123 -0.6700
 5473TIP3    H237911   2.732   1.725   4.277 -0.0981  1.3264 -0.2910
 5474TIP3   OH237912   1.182   5.225  16.889  0.1397  0.0203  0.5349
 5474TIP3    H137913   1.210   5.135  16.870 -0.6730 -0.1939  0.3232
 5474TIP3    H237914   1.154   5.260  16.805 -1.4633 -0.2176  0.9522
 5475TIP3   OH237915   5.889   4.797   4.709  0.0356 -0.2682  0.7378
 5475TIP3    H137916   5.982   4.778   4.720  0.0644 -0.4255  0.2527
 5475TIP3    H237917   5.853   4.798   4.798  0.4179 -0.6282  0.8933
 5476TIP3   OH237918   4.276   2.286  11.003  0.3769  0.0157 -0.3100
 5476TIP3    H137919   4.312   2.252  10.922  0.2937  0.4049 -0.5104
 5476TIP3    H237920   4.351   2.326  11.048  0.5354 -0.6740  0.0599
 5477TIP3   OH237921   6.214   4.718  16.000 -0.2174  0.4998  0.2966
 5477TIP3    H137922   6.263   4.794  15.969  1.6360 -0.2045  1.4073
 5477TIP3    H237923   6.209   4.729  16.095 -0.6471 -0.3447  0.3788
 5478TIP3   OH237924   0.358   3.933   3.408  0.3549 -0.2173  0.2026
 5478TIP3    H137925   0.379   4.026   3.409  0.1141 -0.1374 -1.3934
 5478TIP3    H237926   0.292   3.924   3.340 -0.1961 -1.4379  0.8885
 5479TIP3   OH237927   0.499   3.684   4.775  0.1225 -0.3757 -0.0456
 5479TIP3    H137928   0.457   3.716   4.855  0.2075 -0.2704 -0.0422
 5479TIP3    H237929   0.444   3.612   4.746  1.0019 -1.4967  1.0110
 5480TIP3   OH237930   4.789   2.856  16.974 -0.0974  0.0755 -0.3631
 5480TIP3    H137931   4.705   2.863  17.019  0.8789 -0.7911  1.6667
 5480TIP3    H237932   4.808   2.945  16.944 -1.6251  0.3104 -0.6691
 5481TIP3   OH237933   2.581   4.185  10.951 -0.2467 -0.2881  0.0028
 5481TIP3    H137934   2.511   4.142  10.901 -0.0340  0.3179 -0.8133
 5481TIP3    H237935   2.569   4.278  10.934  0.1450 -0.1165  0.6699
 5482TIP3   OH237936   2.837   5.044  15.403 -0.2481  1.2113  0.1473
 5482TIP3    H137937   2.774   5.100  15.448 -1.7715  0.6707 -1.2686
 5482TIP3    H237938   2.847   5.082  15.316  0.7478  0.8072  0.0727
 5483TIP3   OH237939   1.113   4.894  13.271 -0.7540  0.2919  0.1298
 5483TIP3    H137940   1.159   4.959  13.218  1.0192 -1.0725 -0.0731
 5483TIP3    H237941   1.169   4.882  13.348 -0.3796 -1.8772 -0.4267
 5484TIP3   OH237942   4.881   1.133   0.830  0.3268  0.2595 -0.4842
 5484TIP3    H137943   4.917   1.092   0.910  0.3419  0.8686 -0.1747
 5484TIP3    H237944   4.804   1.180   0.860  0.9393  1.3807 -0.6404
 5485TIP3   OH237945   2.009   0.439   2.303  0.4507  0.2519  0.4504
 5485TIP3    H137946   1.979   0.378   2.371  3.0733 -1.2012  0.3394
 5485TIP3    H237947   1.989   0.395   2.221 -1.1081  1.2459  0.2666
 5486TIP3   OH237948   6.448   0.896   1.596 -0.1691  0.9195  0.2660
 5486TIP3    H137949   6.475   0.853   1.514 -1.7136  1.5211 -0.5962
 5486TIP3    H237950   6.502   0.974   1.601 -1.3936  1.9224 -1.2483
 5487TIP3   OH237951   1.173   1.201   0.018  0.3186  0.8726  0.2022
 5487TIP3    H137952   1.239   1.137  -0.006 -1.0627 -0.3627 -0.3633
 5487TIP3    H237953   1.185   1.272  -0.045  2.8732  1.9271  1.8015
 5488TIP3   OH237954   2.239   5.233   0.455  0.5577 -0.1327 -0.0522
 5488TIP3    H137955   2.298   5.256   0.384 -0.2994  1.7245 -0.1917
 5488TIP3    H237956   2.188   5.312   0.471 -1.1010 -1.3376  0.8372
 5489TIP3   OH237957   6.221   6.173   2.486 -0.0848  0.3578  0.6532
 5489TIP3    H137958   6.211   6.211   2.399 -0.9482 -1.1560  0.0587
 5489TIP3    H237959   6.133   6.140   2.508 -0.6630  3.4384  3.4298
 5490TIP3   OH237960   6.347   6.272   2.743  0.4754  0.5837  0.3143
 5490TIP3    H137961   6.335   6.206   2.812 -0.4324  1.2475  0.7981
 5490TIP3    H237962   6.294   6.240   2.670 -1.0688  1.4414  1.0237
 5491TIP3   OH237963   0.882   4.132  16.104  0.5920 -0.4391  0.3260
 5491TIP3    H137964   0.959   4.103  16.054 -0.1377  1.6969 -2.1556
 5491TIP3    H237965   0.813   4.140  16.038 -1.0638  0.1483  2.1096
 5492TIP3   OH237966   2.210   0.707   2.905 -0.8578  0.3582 -0.0782
 5492TIP3    H137967   2.119   0.680   2.911 -1.3048  1.7496 -0.2581
 5492TIP3    H237968   2.230   0.743   2.991  0.0681 -1.5194  0.5184
 5493TIP3   OH237969   2.641   2.809  13.221  0.0916  0.7830  0.1053
 5493TIP3    H137970   2.711   2.854  13.268  0.4829 -0.7472  1.0375
 5493TIP3    H237971   2.587   2.770  13.290  0.2935 -0.9455 -0.6864
 5494TIP3   OH237972   2.599   5.800   5.435  0.2589 -0.5023  0.3486
 5494TIP3    H137973   2.572   5.780   5.524  0.1007 -0.7608  0.2417
 5494TIP3    H237974   2.523   5.843   5.396  0.0134 -1.1902  0.0614
 5495TIP3   OH237975   2.344   6.115   3.665  0.3766  0.4178  0.1952
 5495TIP3    H137976   2.349   6.019   3.668  1.8759  0.4691 -0.3069
 5495TIP3    H237977   2.433   6.144   3.682  0.1603  1.7128 -0.8178
 5496TIP3   OH237978   1.210   5.201  15.737  0.5578  0.1407 -0.0842
 5496TIP3    H137979   1.122   5.167  15.721 -0.0066  0.5753  1.8930
 5496TIP3    H237980   1.251   5.203  15.651 -0.8831 -1.4076 -0.8512
 5497TIP3   OH237981   5.466   2.424  17.141  0.3426 -0.0418  0.4869
 5497TIP3    H137982   5.511   2.339  17.138 -1.3826 -1.0496  2.3412
 5497TIP3    H237983   5.379   2.405  17.107 -0.1688  0.8982  1.2692
 5498TIP3   OH237984   1.983   6.630  14.062 -0.0793  0.1838  0.1584
 5498TIP3    H137985   1.922   6.618  14.135 -1.8885  0.0558 -1.3330
 5498TIP3    H237986   1.931   6.611  13.984  0.6400  4.3146 -1.4466
 5499TIP3   OH237987   1.592   4.094  11.846  0.0322  0.3447 -0.1411
 5499TIP3    H137988   1.668   4.151  11.831 -0.1353 -0.0230 -2.6111
 5499TIP3    H237989   1.583   4.045  11.764 -0.6815 -2.2355  1.4202
 5500TIP3   OH237990   2.044   3.379  15.947  0.6680  0.0332  0.9012
 5500TIP3    H137991   2.097   3.456  15.969  0.5094  0.7524 -1.1364
 5500TIP3    H237992   1.957   3.399  15.981  0.8618  0.3082  1.2471
 5501TIP3   OH237993   2.804   4.474   1.211 -0.0190 -0.0444 -0.1393
 5501TIP3    H137994   2.724   4.457   1.162  1.2709 -0.8148 -2.0438
 5501TIP3    H237995   2.834   4.559   1.180  0.0506  0.1178  0.3691
 5502TIP3   OH237996   2.511   4.724   3.279  0.0353  0.4898  0.0031
 5502TIP3    H137997   2.582   4.675   3.236  0.4219  1.0384  0.0104
 5502TIP3    H237998   2.518   4.701   3.371  1.0911  1.6187  0.2182
 5503TIP3   OH237999   3.310   3.825  10.978 -0.0061 -0.4310  0.1586
 5503TIP3    H138000   3.320   3.735  10.947 -1.3298 -0.6620  0.3805
 5503TIP3    H238001   3.396   3.865  10.964 -0.4272 -0.6350 -3.4023
 5504TIP3   OH238002   6.537   2.255   5.504  0.0699 -1.2294  0.7915
 5504TIP3    H138003   6.474   2.275   5.573  0.1004 -0.5994  0.6364
 5504TIP3    H238004   6.534   2.160   5.496 -1.2379 -1.1648  0.4254
 5505TIP3   OH238005   4.937   1.865  12.642 -0.3504 -0.2606  0.4340
 5505TIP3    H138006   5.004   1.819  12.694 -0.7528 -0.5580  0.6933
 5505TIP3    H238007   4.952   1.834  12.553  0.6860  0.6593  0.2831
 5506TIP3   OH238008   6.122   5.124  16.778 -0.1326 -0.2322 -0.8696
 5506TIP3    H138009   6.052   5.176  16.739 -2.6906 -0.9870  2.4823
 5506TIP3    H238010   6.161   5.182  16.844  0.2285 -0.9140 -0.4818
 5507TIP3   OH238011   4.038   3.677  15.417 -0.2203 -0.4983  0.0498
 5507TIP3    H138012   4.095   3.602  15.399  0.7447 -0.0068  0.9668
 5507TIP3    H238013   4.007   3.705  15.331  1.4223 -0.3983 -0.5327
 5508TIP3   OH238014   0.578   4.036   5.805  0.0520  0.2055 -0.3431
 5508TIP3    H138015   0.498   4.019   5.754  0.1319 -0.0413 -0.3866
 5508TIP3    H238016   0.576   3.969   5.874  0.4395 -0.0679 -0.5962
 5509TIP3   OH238017   3.298   3.784   2.668 -0.1566  0.3003 -0.0090
 5509TIP3    H138018   3.215   3.760   2.708 -0.9065  0.4913 -1.4158
 5509TIP3    H238019   3.327   3.706   2.622  1.1453 -0.1939  1.6210
 5510TIP3   OH238020   6.259   5.330   4.411  0.0538 -0.5274  0.5071
 5510TIP3    H138021   6.309   5.408   4.388 -1.4217  0.4310  0.4886
 5510TIP3    H238022   6.167   5.357   4.404 -0.4813 -2.4153 -0.0362
 5511TIP3   OH238023   4.111   2.779  13.892 -0.4660 -0.1187  0.2658
 5511TIP3    H138024   4.017   2.794  13.897 -0.5903 -0.6956 -0.3667
 5511TIP3    H238025   4.138   2.822  13.811 -0.4969 -1.5931 -0.5339
 5512TIP3   OH238026   1.964   0.321  10.725 -0.9817 -0.0346 -0.2680
 5512TIP3    H138027   2.006   0.312  10.639  0.1344  0.3585  0.2241
 5512TIP3    H238028   1.904   0.395  10.714 -1.6998 -0.7188 -1.0317
 5513TIP3   OH238029   1.337   4.013   0.208  0.0653  0.2247 -0.0034
 5513TIP3    H138030   1.393   3.938   0.229 -0.1049  0.0936 -0.0165
 5513TIP3    H238031   1.362   4.037   0.119 -0.0286  0.0510 -0.0770
 5514TIP3   OH238032   2.832   5.693   5.323  0.5663  0.4690  0.3204
 5514TIP3    H138033   2.760   5.735   5.370 -1.1424 -1.7041 -0.2193
 5514TIP3    H238034   2.820   5.721   5.232 -0.8423 -1.4330 -0.1187
 5515TIP3   OH238035   1.296   1.861  12.026  0.4649  0.3217 -0.2650
 5515TIP3    H138036   1.327   1.915  12.098  0.0035 -1.8338  1.6186
 5515TIP3    H238037   1.306   1.771  12.058 -2.4254 -0.5894 -1.7804
 5516TIP3   OH238038   5.724   0.124  11.532  0.1860  0.3023  0.5827
 5516TIP3    H138039   5.667   0.200  11.518  1.3973  1.1362  0.0911
 5516TIP3    H238040   5.807   0.148  11.489  0.7598 -1.0764  0.8931
 5517TIP3   OH238041   2.350   1.778  16.505  0.4827 -0.2278 -0.7668
 5517TIP3    H138042   2.346   1.711  16.437 -2.4792 -1.6358  0.7146
 5517TIP3    H238043   2.269   1.827  16.495  1.1414  1.0971  0.2332
 5518TIP3   OH238044   6.275   3.939  13.766  0.1381 -0.5354  0.3438
 5518TIP3    H138045   6.323   3.999  13.710  0.1895 -0.3454  0.5880
 5518TIP3    H238046   6.340   3.876  13.797 -0.0794 -1.2200 -0.5800
 5519TIP3   OH238047   4.578   5.848   2.312  0.0740 -0.1876 -0.6275
 5519TIP3    H138048   4.660   5.868   2.266 -0.5973  0.5122 -1.5491
 5519TIP3    H238049   4.605   5.797   2.388  1.4201  0.4430 -0.6545
 5520TIP3   OH238050   1.463   6.131  15.378 -0.0337 -0.2712 -0.4330
 5520TIP3    H138051   1.455   6.089  15.464  0.9764  0.7228  0.1567
 5520TIP3    H238052   1.474   6.058  15.317  2.0526 -0.8706  0.6184
 5521TIP3   OH238053   0.781   3.354   0.691 -0.2723  0.5186  0.3428
 5521TIP3    H138054   0.814   3.265   0.687 -2.0875 -0.1895  0.4182
 5521TIP3    H238055   0.859   3.410   0.693  0.8853 -1.1267  1.9620
 5522TIP3   OH238056   6.485   0.439   4.065  0.6655 -0.3523 -0.2619
 5522TIP3    H138057   6.474   0.406   4.154  2.3672 -1.4597 -0.4262
 5522TIP3    H238058   6.489   0.534   4.074  1.9330 -0.5055  0.9992
 5523TIP3   OH238059   0.779   0.589  14.333  0.5731 -0.6399 -0.2713
 5523TIP3    H138060   0.760   0.569  14.242 -1.1791  0.0505 -0.0771
 5523TIP3    H238061   0.745   0.678  14.346  0.3594 -0.9241  1.1823
 5524TIP3   OH238062   5.202   3.295  11.302 -0.4915 -0.7578 -0.1574
 5524TIP3    H138063   5.204   3.354  11.377  0.0637  1.6618 -2.0271
 5524TIP3    H238064   5.122   3.319  11.255  0.1651 -0.9411 -1.3710
 5525TIP3   OH238065   6.806   5.077  14.504 -0.5379  0.1953 -0.6459
 5525TIP3    H138066   6.813   5.135  14.580  0.0449 -0.5951 -0.0989
 5525TIP3    H238067   6.748   5.124  14.444 -0.9934  0.8207  0.2797
 5526TIP3   OH238068   5.076   5.155  14.227  0.0103 -0.3348  0.1067
 5526TIP3    H138069   5.133   5.178  14.154  1.6647 -0.0442  1.4617
 5526TIP3    H238070   5.017   5.230  14.235  0.3207 -0.0272 -0.4396
 5527TIP3   OH238071   6.238   0.857   1.419  0.1497  0.7307 -0.3235
 5527TIP3    H138072   6.244   0.942   1.375  2.0560  0.3215 -0.9220
 5527TIP3    H238073   6.292   0.867   1.497  0.0816  0.1849 -0.2092
 5528TIP3   OH238074   6.428   0.566  15.515 -0.2359 -0.3296  0.1690
 5528TIP3    H138075   6.514   0.565  15.473  0.1376 -1.2156  0.9421
 5528TIP3    H238076   6.367   0.540  15.446 -0.2254  2.7039 -1.0759
 5529TIP3   OH238077   2.140   2.003  15.016  0.1484 -0.2366  0.0059
 5529TIP3    H138078   2.144   1.953  14.934 -1.3278  0.0927 -0.2839
 5529TIP3    H238079   2.218   2.059  15.014  0.6418 -0.9425 -0.7109
 5530TIP3   OH238080   5.271   6.057   3.701 -0.1419  0.0532 -0.6266
 5530TIP3    H138081   5.338   6.030   3.764  1.5821  1.9483 -1.5917
 5530TIP3    H238082   5.246   6.145   3.728 -3.1651 -1.0577  0.4239
 5531TIP3   OH238083   6.728   4.379   5.342  0.0026 -0.1829  0.0390
 5531TIP3    H138084   6.666   4.387   5.416 -0.2266  0.6360 -0.2450
 5531TIP3    H238085   6.674   4.392   5.264  0.2011 -1.2829 -0.2999
 5532TIP3   OH238086   1.115   3.797   3.622  0.0288  0.1220  0.5964
 5532TIP3    H138087   1.021   3.809   3.638  0.2483  2.1264  0.4822
 5532TIP3    H238088   1.149   3.764   3.705 -0.4825  1.1110  1.2059
 5533TIP3   OH238089   5.052   5.915  16.812  0.2026  0.1521  0.3088
 5533TIP3    H138090   5.053   5.825  16.844 -0.9847  0.3999  1.0795
 5533TIP3    H238091   5.144   5.941  16.809  0.3985  0.0428  3.3524
 5534TIP3   OH238092   4.201   5.080  10.539 -0.3446 -0.4298  0.4355
 5534TIP3    H138093   4.146   5.097  10.463  1.2094  1.5299 -0.2862
 5534TIP3    H238094   4.196   5.159  10.592  0.5014 -0.8583  1.1767
 5535TIP3   OH238095   5.929   1.160   3.028  0.0581 -0.0770  0.4713
 5535TIP3    H138096   5.962   1.115   3.105  1.4699  1.3011  0.7041
 5535TIP3    H238097   6.007   1.190   2.982 -0.7422 -1.4193 -1.8404
 5536TIP3   OH238098   6.322   0.171  15.558  0.0865 -0.8679  0.1209
 5536TIP3    H138099   6.368   0.167  15.642 -0.7871  1.7680  0.7613
 5536TIP3    H238100   6.391   0.187  15.493  0.3074  1.7357  0.9233
 5537TIP3   OH238101   4.199   6.644  15.291 -0.3965 -0.4852  0.1026
 5537TIP3    H138102   4.273   6.702  15.306  0.2867 -1.2767 -0.2312
 5537TIP3    H238103   4.122   6.698  15.311  0.0237  1.6819 -3.7199
 5538TIP3   OH238104   4.231   5.618  12.923 -0.2775 -0.3806  0.2023
 5538TIP3    H138105   4.298   5.556  12.893  0.3095  0.8622 -1.0782
 5538TIP3    H238106   4.169   5.563  12.971  1.0144 -1.7419  0.3817
 5539TIP3   OH238107   6.367   2.365  11.973 -0.1281 -0.5692 -0.3084
 5539TIP3    H138108   6.301   2.434  11.966 -1.3745 -1.9647 -2.5902
 5539TIP3    H238109   6.432   2.387  11.906  0.6952 -0.3496  0.5410
 5540TIP3   OH238110   1.392   3.932  13.168  0.0456  0.6372 -0.1274
 5540TIP3    H138111   1.399   3.888  13.253  1.2004  0.0687 -0.4960
 5540TIP3    H238112   1.482   3.961  13.150 -0.4686  1.9980 -0.4944
 5541TIP3   OH238113   1.741   5.630  11.910  0.2895  0.4713 -0.3054
 5541TIP3    H138114   1.704   5.689  11.977  0.7125  0.0262  0.3261
 5541TIP3    H238115   1.680   5.637  11.836 -0.2772  0.8468  0.1847
 5542TIP3   OH238116   5.355   0.615   3.175  0.0052 -0.4171 -0.3508
 5542TIP3    H138117   5.372   0.678   3.105  0.0580 -0.2632 -0.1986
 5542TIP3    H238118   5.269   0.639   3.209  1.1794  1.2243  1.4825
 5543TIP3   OH238119   5.444   5.406   5.218 -0.7818  0.1118 -0.2449
 5543TIP3    H138120   5.391   5.332   5.187 -0.3275  0.5807 -2.1949
 5543TIP3    H238121   5.506   5.422   5.147 -0.8205  2.3227  0.1956
 5544TIP3   OH238122   1.831   2.286   6.587 -0.0605 -0.4801 -0.2249
 5544TIP3    H138123   1.853   2.372   6.551 -1.6311 -0.2522 -0.6830
 5544TIP3    H238124   1.735   2.280   6.579 -0.0635 -1.8921  0.6440
 5545TIP3   OH238125   2.243   5.153  16.085  0.1963 -0.3552 -0.4699
 5545TIP3    H138126   2.286   5.216  16.027 -0.1629  1.6515  1.3894
 5545TIP3    H238127   2.315   5.105  16.126  0.5913  0.9904  0.4343
 5546TIP3   OH238128   6.083   3.203   3.516 -0.5151  0.1433 -0.2795
 5546TIP3    H138129   6.107   3.205   3.609 -1.9275 -0.8341  0.1200
 5546TIP3    H238130   6.099   3.292   3.485  1.5153  0.0696  0.4960
 5547TIP3   OH238131   5.998   0.913   3.558  0.5235 -0.3294 -0.4883
 5547TIP3    H138132   6.012   0.989   3.615  0.1213 -1.2052  0.8137
 5547TIP3    H238133   5.991   0.839   3.619 -2.9014 -0.8886 -1.4613
 5548TIP3   OH238134   6.701   1.153   0.117 -0.2525 -0.4210  0.3555
 5548TIP3    H138135   6.771   1.103   0.075  0.3668 -0.5042  1.4497
 5548TIP3    H238136   6.747   1.226   0.160 -1.3800  2.4895 -3.2004
 5549TIP3   OH238137   4.529   4.415  13.278  0.1848 -0.3073 -0.4290
 5549TIP3    H138138   4.556   4.463  13.199  0.9028 -0.9293 -0.5678
 5549TIP3    H238139   4.571   4.461  13.350  0.2820 -0.2969 -0.4925
 5550TIP3   OH238140   1.046   1.436   5.833  0.6693  0.3353 -0.0199
 5550TIP3    H138141   1.081   1.358   5.789 -0.0242 -0.7861  1.3904
 5550TIP3    H238142   0.952   1.423   5.832  0.5755  0.9968  0.5377
 5551TIP3   OH238143   2.180   2.052   2.296  0.0531 -0.0670  0.0206
 5551TIP3    H138144   2.192   2.135   2.250  0.6873 -0.1534  0.0234
 5551TIP3    H238145   2.127   1.999   2.237 -2.7024  1.3129  1.2065
 5552TIP3   OH238146   0.801   6.531  15.393 -0.0496  0.6289  0.0485
 5552TIP3    H138147   0.774   6.549  15.303 -0.3015 -2.3894 -0.5418
 5552TIP3    H238148   0.720   6.522  15.441 -0.0071 -0.9288 -0.1333
 5553TIP3   OH238149   1.872   0.028  10.666  0.1088 -0.0001  0.1581
 5553TIP3    H138150   1.857  -0.009  10.578  0.4502  1.1557 -0.3919
 5553TIP3    H238151   1.936   0.097  10.652  0.9820 -0.5233  1.4971
 5554TIP3   OH238152   3.829   5.682  11.210 -0.1255  0.4572 -0.8495
 5554TIP3    H138153   3.766   5.613  11.230  0.9994 -0.8325 -1.7429
 5554TIP3    H238154   3.819   5.744  11.283 -0.4254 -1.1350  0.5063
 5555TIP3   OH238155   3.041   0.372  15.669 -0.1653 -0.0288 -0.0303
 5555TIP3    H138156   3.086   0.411  15.744 -0.6048  0.4429 -0.0128
 5555TIP3    H238157   3.067   0.425  15.594  0.3343 -0.5454 -0.2323
 5556TIP3   OH238158   1.072   0.037   3.403 -0.0753 -0.3380  0.3764
 5556TIP3    H138159   1.059  -0.058   3.412 -1.7470  0.0704  2.8672
 5556TIP3    H238160   0.990   0.068   3.363  0.9883 -0.0655 -1.6712
 5557TIP3   OH238161   1.235   3.842  15.858  0.1399 -0.5070 -0.5248
 5557TIP3    H138162   1.222   3.747  15.859 -0.4641 -0.4596 -1.8549
 5557TIP3    H238163   1.307   3.857  15.797  1.0527 -0.1842  0.6147
 5558TIP3   OH238164   1.108   2.537  11.124 -0.4425  0.3488  0.5525
 5558TIP3    H138165   1.019   2.559  11.153 -1.2379 -0.4796 -1.1763
 5558TIP3    H238166   1.115   2.442  11.140 -0.3378  0.1732 -0.5316
 5559TIP3   OH238167   3.348   0.209  13.504  0.3253  0.4011 -0.0505
 5559TIP3    H138168   3.379   0.273  13.568  0.3798  0.2628  0.0626
 5559TIP3    H238169   3.422   0.195  13.446  0.1502  0.8182 -0.3739
 5560TIP3   OH238170   2.565   0.803  11.361 -0.0777  0.5872 -0.3592
 5560TIP3    H138171   2.656   0.825  11.381 -0.3270  1.5484 -0.2235
 5560TIP3    H238172   2.555   0.825  11.268  0.1454 -0.6248 -0.6723
 5561TIP3   OH238173   4.157   0.093   3.773  0.0818 -0.3224  0.0106
 5561TIP3    H138174   4.246   0.102   3.738  0.9691 -0.3247  2.1809
 5561TIP3    H238175   4.119   0.021   3.722  0.7726  0.6448 -1.9465
 5562TIP3   OH238176   5.538   3.579   3.600 -0.1561  0.3943 -0.0639
 5562TIP3    H138177   5.595   3.502   3.592  1.3067  1.3661  0.8325
 5562TIP3    H238178   5.474   3.554   3.667  0.0571 -0.1830 -0.0687
 5563TIP3   OH238179   3.272   2.302  11.519 -0.1168 -0.9800 -0.4792
 5563TIP3    H138180   3.277   2.355  11.439 -2.6194 -0.3553 -0.2598
 5563TIP3    H238181   3.233   2.219  11.490 -0.0066 -1.1646 -0.0989
 5564TIP3   OH238182   1.079   5.199  16.610 -0.1744  0.1257 -0.1647
 5564TIP3    H138183   1.033   5.117  16.592 -0.6148  0.1419  0.8897
 5564TIP3    H238184   1.151   5.200  16.547 -0.2161 -1.0202 -0.2362
 5565TIP3   OH238185   5.375   2.147   3.911 -0.5950 -0.5023  0.5036
 5565TIP3    H138186   5.445   2.145   3.977 -0.7796  1.0050  0.7750
 5565TIP3    H238187   5.352   2.240   3.904 -1.6438 -0.8322 -0.5676
 5566TIP3   OH238188   0.139   1.619  12.565 -0.0524 -1.0419  0.3611
 5566TIP3    H138189   0.182   1.626  12.480  0.9298  0.2857  0.9499
 5566TIP3    H238190   0.048   1.645  12.548  0.5663  0.9934  0.0396
 5567TIP3   OH238191   4.834   0.780  15.313  0.0186  0.0304 -0.0786
 5567TIP3    H138192   4.856   0.795  15.405  1.0315  1.8749 -0.5976
 5567TIP3    H238193   4.900   0.830  15.265 -1.2510  0.0816 -1.7774
 5568TIP3   OH238194   3.151   6.530   4.370 -0.5763 -0.2975 -0.2498
 5568TIP3    H138195   3.181   6.590   4.438  0.3735  0.1555 -1.0421
 5568TIP3    H238196   3.231   6.503   4.325 -1.1935 -0.4881 -1.2524
 5569TIP3   OH238197   4.647   1.371   6.081 -0.0671 -0.7804  0.6399
 5569TIP3    H138198   4.709   1.415   6.139  1.0997 -1.0060 -0.4236
 5569TIP3    H238199   4.569   1.357   6.136 -0.4978  2.6193  1.0129
 5570TIP3   OH238200   4.313   5.326  14.682 -0.2789 -0.1004 -0.1258
 5570TIP3    H138201   4.293   5.418  14.667 -0.6309  0.0162  0.9597
 5570TIP3    H238202   4.228   5.286  14.702  0.0342 -0.3853  0.6930
 5571TIP3   OH238203   6.209   0.900  15.544  0.2124  0.3354  0.2399
 5571TIP3    H138204   6.195   0.959  15.470  0.7688  0.9439  0.6162
 5571TIP3    H238205   6.247   0.955  15.612 -0.2019 -0.2414  0.9482
 5572TIP3   OH238206   3.500   2.303  14.485 -0.0814 -0.0394 -0.0438
 5572TIP3    H138207   3.558   2.330  14.556 -0.2440 -0.5008  0.2718
 5572TIP3    H238208   3.509   2.371  14.419  0.5095  0.0993  0.1775
 5573TIP3   OH238209   2.091   5.939  16.119  0.8299 -0.5293 -0.5098
 5573TIP3    H138210   2.037   5.870  16.081  2.8092 -0.6472 -3.2481
 5573TIP3    H238211   2.165   5.894  16.159  0.5321 -0.1611  0.4932
 5574TIP3   OH238212   3.405   1.411  14.891 -0.1029  0.6370  0.0624
 5574TIP3    H138213   3.436   1.366  14.812 -1.2028  1.7121 -0.9914
 5574TIP3    H238214   3.341   1.474  14.859 -1.1619  0.5203  1.9087
 5575TIP3   OH238215   1.548   3.468  12.299 -0.2374  0.4673  0.0551
 5575TIP3    H138216   1.475   3.527  12.280  1.2489  1.9582 -1.2255
 5575TIP3    H238217   1.552   3.409  12.224 -0.2258  0.2748  0.2068
 5576TIP3   OH238218   3.520   5.088   3.317 -0.1465 -0.0109  0.3901
 5576TIP3    H138219   3.559   5.043   3.242 -0.3130  0.4368  0.0300
 5576TIP3    H238220   3.429   5.059   3.318 -0.6381  1.4189 -0.7248
 5577TIP3   OH238221   2.441   5.443   2.197  0.0963  0.3445  0.0431
 5577TIP3    H138222   2.393   5.373   2.241  0.5222  0.1108  0.1357
 5577TIP3    H238223   2.471   5.404   2.115  1.8525 -0.1232  0.8957
 5578TIP3   OH238224   0.711   1.784  16.423 -0.2326 -0.0979 -0.0520
 5578TIP3    H138225   0.693   1.806  16.514  0.1402 -0.3201  0.0776
 5578TIP3    H238226   0.776   1.714  16.428  2.9076  2.6692 -0.5312
 5579TIP3   OH238227   2.916   4.404   2.677  0.6557 -0.0243  0.4989
 5579TIP3    H138228   2.923   4.487   2.629  0.6523  0.5769  1.5373
 5579TIP3    H238229   2.839   4.360   2.638 -0.1356  1.0419  0.8331
 5580TIP3   OH238230   4.203   4.439   0.542 -0.4471 -0.0199  0.9427
 5580TIP3    H138231   4.161   4.520   0.514 -1.0694 -0.9598 -0.9435
 5580TIP3    H238232   4.284   4.467   0.585 -0.6164  1.5792  0.2402
 5581TIP3   OH238233   4.852   1.876   6.598  0.3460  0.3077 -0.1107
 5581TIP3    H138234   4.763   1.908   6.580  0.3832  0.3460 -0.2191
 5581TIP3    H238235   4.895   1.949   6.642  0.0198 -0.0408  0.8140
 5582TIP3   OH238236   1.234   1.330  13.566 -0.6149 -0.2843 -0.2343
 5582TIP3    H138237   1.187   1.320  13.649 -1.5703 -1.9432 -0.9460
 5582TIP3    H238238   1.166   1.339  13.500  0.1407  1.0597 -0.8473
 5583TIP3   OH238239   6.314   2.845   2.645 -0.9288  0.4626  0.1054
 5583TIP3    H138240   6.272   2.804   2.570  0.2133 -0.2128 -0.1767
 5583TIP3    H238241   6.293   2.788   2.719 -1.3641  0.6820  0.1517
 5584TIP3   OH238242   1.067   3.593  17.079  0.0583  0.0567  0.1167
 5584TIP3    H138243   1.080   3.557  17.167  0.2634  1.0251  0.4885
 5584TIP3    H238244   0.979   3.629  17.082 -0.2187 -0.5747 -0.3156
 5585TIP3   OH238245   0.281   5.452   5.045  0.5679 -0.1783 -0.0727
 5585TIP3    H138246   0.347   5.409   5.100 -0.0219 -1.0363 -0.0199
 5585TIP3    H238247   0.227   5.379   5.012 -0.9701  0.5856  0.6900
 5586TIP3   OH238248   0.208   4.274  14.182  0.3740  0.1001  0.1920
 5586TIP3    H138249   0.221   4.367  14.166  1.8818  0.0700  1.1657
 5586TIP3    H238250   0.241   4.259  14.270  2.2868 -1.7844 -0.7883
 5587TIP3   OH238251   5.160   5.326   1.223 -0.1079 -0.0913 -0.0456
 5587TIP3    H138252   5.150   5.310   1.129 -0.3586  0.6448 -0.1486
 5587TIP3    H238253   5.119   5.250   1.265  0.9374 -0.9495 -0.5319
 5588TIP3   OH238254   2.603   3.778  15.514 -0.2278 -0.0266  0.3648
 5588TIP3    H138255   2.685   3.770  15.466  0.4023  0.8810  1.2876
 5588TIP3    H238256   2.625   3.827  15.593 -1.9756  1.6277 -0.1452
 5589TIP3   OH238257   6.604   1.565   4.566 -0.1808  0.0445 -0.2642
 5589TIP3    H138258   6.604   1.641   4.624 -0.5949 -0.4780  0.4218
 5589TIP3    H238259   6.686   1.572   4.517 -1.6425  2.6314 -2.4485
 5590TIP3   OH238260   1.377   1.609  16.772  0.0856  0.0307 -0.0212
 5590TIP3    H138261   1.386   1.514  16.770  1.1901  0.1276 -0.1169
 5590TIP3    H238262   1.339   1.627  16.858 -0.9282 -0.5529 -0.3391
 5591TIP3   OH238263   4.592   6.549   3.696 -0.0231  0.0334  0.1274
 5591TIP3    H138264   4.663   6.577   3.638  0.0372 -1.7829 -0.6895
 5591TIP3    H238265   4.518   6.533   3.638 -0.0515 -1.4919  0.5677
 5592TIP3   OH238266   0.961   2.744   0.521  0.3838 -0.3493  0.9012
 5592TIP3    H138267   1.018   2.789   0.458  1.7770 -3.2870 -0.0476
 5592TIP3    H238268   1.002   2.760   0.606  1.0884 -0.0987  0.5245
 5593TIP3   OH238269   3.298   0.923  11.587  0.4224 -0.4272 -0.2276
 5593TIP3    H138270   3.354   0.998  11.571  0.6867 -0.8949 -1.5152
 5593TIP3    H238271   3.218   0.941  11.538  0.8723 -1.4315 -1.3530
 5594TIP3   OH238272   6.790   0.877   0.479 -0.2746  0.2596  0.3152
 5594TIP3    H138273   6.882   0.851   0.484  0.0778  1.6684  1.7363
 5594TIP3    H238274   6.741   0.797   0.497  0.6849 -0.3935  0.0496
 5595TIP3   OH238275   5.844   2.113  15.936  0.6267  0.0849 -0.0980
 5595TIP3    H138276   5.792   2.165  15.998  0.7143 -0.3021  0.3065
 5595TIP3    H238277   5.891   2.178  15.883  1.7135  0.4168  1.2321
 5596TIP3   OH238278   4.104   4.560  12.367  0.2192  0.4771  0.4324
 5596TIP3    H138279   4.198   4.568  12.382  0.4107 -0.8775  0.0808
 5596TIP3    H238280   4.076   4.647  12.340  0.9569  1.4375  2.6539
 5597TIP3   OH238281   4.292   0.495  16.609 -0.2446 -0.1242 -0.1481
 5597TIP3    H138282   4.378   0.456  16.601 -0.5677 -0.8677 -0.0042
 5597TIP3    H238283   4.288   0.560  16.538  0.2322 -0.4522 -0.4695
 5598TIP3   OH238284   5.391   5.749  13.236  0.1409  0.1798 -0.2701
 5598TIP3    H138285   5.372   5.726  13.145 -1.7548  1.7957 -0.3005
 5598TIP3    H238286   5.305   5.765  13.276  1.0930  2.0609  1.1059
 5599TIP3   OH238287   5.002   0.892   2.345  0.2058 -0.0640  0.3124
 5599TIP3    H138288   4.932   0.927   2.289  2.1779  2.1812 -0.8536
 5599TIP3    H238289   4.956   0.851   2.418 -2.3736 -0.6316 -1.5460
 5600TIP3   OH238290   0.028   5.427   0.682 -0.3301  0.0881  0.1540
 5600TIP3    H138291   0.079   5.355   0.645 -1.8567  0.2269 -2.3962
 5600TIP3    H238292   0.021   5.407   0.775  1.1452 -1.8827 -0.1264
 5601TIP3   OH238293   6.245   3.133   4.108  0.4913  0.3306 -0.1559
 5601TIP3    H138294   6.248   3.048   4.152 -0.9825  1.4457  2.2125
 5601TIP3    H238295   6.328   3.175   4.132  0.3486  0.3474  0.3040
 5602TIP3   OH238296   3.864   0.909   3.325  0.2670 -0.7984 -0.2380
 5602TIP3    H138297   3.824   0.832   3.364 -0.4019 -0.1204  0.4257
 5602TIP3    H238298   3.847   0.901   3.232 -0.1156 -1.2608 -0.1280
 5603TIP3   OH238299   3.909   3.674  16.311  0.3498  0.4478 -0.1026
 5603TIP3    H138300   3.937   3.762  16.287 -0.5100  1.0277  0.9759
 5603TIP3    H238301   3.949   3.659  16.397 -0.2504  0.1348  0.1216
 5604TIP3   OH238302   2.035   1.053   1.383  0.6733  0.1228  0.0905
 5604TIP3    H138303   2.025   1.121   1.317 -4.1877 -1.7456 -1.2691
 5604TIP3    H238304   2.112   1.003   1.354  0.4983  1.2464 -2.3894
 5605TIP3   OH238305   3.988   2.628   1.157 -0.0755  0.7312 -0.2002
 5605TIP3    H138306   4.057   2.642   1.223 -1.2276  0.7979  1.0010
 5605TIP3    H238307   3.976   2.713   1.116  0.2178  0.8354 -0.0714
 5606TIP3   OH238308   6.521   4.857  14.314 -0.1505 -0.0269  0.4919
 5606TIP3    H138309   6.535   4.900  14.230 -1.7920 -2.7827 -1.2813
 5606TIP3    H238310   6.428   4.833  14.313  0.6243 -3.2331  1.5116
 5607TIP3   OH238311   4.754   1.253   3.680 -0.2530  0.0740 -0.2204
 5607TIP3    H138312   4.782   1.331   3.632 -0.6811 -1.1475 -2.5515
 5607TIP3    H238313   4.670   1.229   3.639  0.4641 -2.2745 -0.3746
 5608TIP3   OH238314   3.952   1.704   5.846  0.4583  0.0226  0.4741
 5608TIP3    H138315   3.994   1.641   5.788  1.7673  0.3704  1.0188
 5608TIP3    H238316   3.955   1.662   5.932 -0.7922 -0.1695  0.4273
 5609TIP3   OH238317   2.287   3.726   2.994 -0.1160 -0.7269  0.2114
 5609TIP3    H138318   2.345   3.655   2.968  0.5065 -0.3360  0.5035
 5609TIP3    H238319   2.303   3.736   3.088  0.5209  0.4400 -0.0090
 5610TIP3   OH238320   2.053   5.949   2.911 -0.3905  0.9280  0.8844
 5610TIP3    H138321   2.072   5.865   2.953  0.5695 -0.2726 -1.8632
 5610TIP3    H238322   1.997   5.926   2.836 -0.9229  2.8533  0.6734
 5611TIP3   OH238323   5.174   6.294   6.146 -0.1619  0.2338  0.9314
 5611TIP3    H138324   5.162   6.385   6.174  0.7693  0.7150 -0.1869
 5611TIP3    H238325   5.261   6.270   6.178 -0.6952 -0.5100  1.8417
 5612TIP3   OH238326   4.876   3.243  10.898 -0.1961  0.0207 -0.0502
 5612TIP3    H138327   4.783   3.242  10.872 -0.3117  2.5318  0.1207
 5612TIP3    H238328   4.921   3.199  10.826 -1.4432 -0.7302 -0.3990
 5613TIP3   OH238329   4.470   1.456  12.308 -0.6952  0.5207  0.1263
 5613TIP3    H138330   4.402   1.481  12.370 -0.8981  1.1676 -0.3546
 5613TIP3    H238331   4.519   1.386  12.352 -2.4138 -0.7832  0.0103
 5614TIP3   OH238332   4.258   6.513  11.983  0.1702 -0.2395 -0.3745
 5614TIP3    H138333   4.196   6.530  11.912 -0.8392 -0.8033  0.3608
 5614TIP3    H238334   4.211   6.537  12.063  1.1800  0.0736  0.1346
 5615TIP3   OH238335   3.239   6.154  15.906 -0.7662  0.2799 -0.0483
 5615TIP3    H138336   3.194   6.204  15.974 -0.9428  1.4068 -0.9663
 5615TIP3    H238337   3.323   6.129  15.945 -0.7273  1.2067  0.4779
 5616TIP3   OH238338   6.370   4.673  16.827  0.0511 -0.0921 -0.4778
 5616TIP3    H138339   6.299   4.714  16.777  0.7400  2.1549  0.3350
 5616TIP3    H238340   6.345   4.686  16.919 -0.2557 -2.4875 -0.1966
 5617TIP3   OH238341   2.402   3.364  11.920  0.2328 -0.0765 -0.2858
 5617TIP3    H138342   2.440   3.297  11.864  0.5404  0.5336 -0.8191
 5617TIP3    H238343   2.311   3.372  11.889  1.0725  2.0054 -2.3922
 5618TIP3   OH238344   4.853   2.893   5.782  1.0093 -0.1950  0.1819
 5618TIP3    H138345   4.886   2.956   5.718 -0.2279 -0.2363 -0.5113
 5618TIP3    H238346   4.876   2.931   5.867  0.2087  1.2642 -0.2196
 5619TIP3   OH238347   0.897   2.419  15.044 -0.1919 -0.3615 -0.2958
 5619TIP3    H138348   0.847   2.448  15.120  0.2642 -1.6159  0.5103
 5619TIP3    H238349   0.886   2.489  14.979 -0.1615  0.9576  1.1024
 5620TIP3   OH238350   4.539   3.587  15.348  0.1013  0.5402 -0.1008
 5620TIP3    H138351   4.598   3.648  15.390  0.3786  2.8645 -3.6593
 5620TIP3    H238352   4.461   3.638  15.328 -1.3659 -1.3563  0.5591
 5621TIP3   OH238353   3.472   6.283  14.068 -0.1756  0.5859 -0.0294
 5621TIP3    H138354   3.378   6.273  14.053 -0.1107  1.6259 -1.1663
 5621TIP3    H238355   3.512   6.252  13.987  0.5074 -0.5607  0.7361
 5622TIP3   OH238356   5.510   0.479  15.621 -0.3070 -0.3679 -0.5622
 5622TIP3    H138357   5.527   0.553  15.563 -0.3243  1.0004  1.1530
 5622TIP3    H238358   5.435   0.507  15.674 -0.4039 -1.6746 -0.0037
 5623TIP3   OH238359   4.549   3.867  16.640  0.0528  0.5144 -0.2107
 5623TIP3    H138360   4.474   3.844  16.584  1.1896  0.3710 -1.7094
 5623TIP3    H238361   4.607   3.791  16.634  0.2911  0.5957  1.0115
 5624TIP3   OH238362   5.886   5.196   0.553  0.7388  0.0951  0.0804
 5624TIP3    H138363   5.872   5.268   0.614 -1.0690  0.0173 -0.2022
 5624TIP3    H238364   5.906   5.121   0.609  0.2098  0.2757  0.5132
 5625TIP3   OH238365   6.343   0.922  13.710  0.3713  0.5949 -0.1335
 5625TIP3    H138366   6.292   0.843  13.691 -0.8525  0.6595  2.6087
 5625TIP3    H238367   6.278   0.986  13.741  1.7294  1.6177  0.7105
 5626TIP3   OH238368   1.583   5.016   5.776  0.5026  0.1185  0.2018
 5626TIP3    H138369   1.526   4.972   5.839  0.0865 -2.7309 -2.0725
 5626TIP3    H238370   1.610   4.947   5.716  1.6010  2.5752 -2.2306
 5627TIP3   OH238371   5.926   2.802   6.754 -0.0241 -0.3836 -0.5130
 5627TIP3    H138372   5.935   2.789   6.848 -0.9633  0.0521 -0.3599
 5627TIP3    H238373   5.952   2.719   6.716  2.4202  0.1021  0.0182
 5628TIP3   OH238374   0.232   4.829   5.131  0.3407 -0.0741 -0.1904
 5628TIP3    H138375   0.232   4.853   5.039 -1.1854  1.5971  0.2113
 5628TIP3    H238376   0.279   4.899   5.175  1.0235 -0.8322  0.3122
 5629TIP3   OH238377   4.337   0.232  12.239 -0.2601  0.2010  0.3711
 5629TIP3    H138378   4.260   0.255  12.186 -0.6427 -1.3130  0.2416
 5629TIP3    H238379   4.380   0.162  12.190 -2.0187 -3.0155  3.2129
 5630TIP3   OH238380   5.162   1.534   4.039  0.8131  0.5083  0.4847
 5630TIP3    H138381   5.183   1.443   4.059  1.7721  0.7640  0.6570
 5630TIP3    H238382   5.240   1.583   4.064  0.5551  1.3000 -0.2431
 5631TIP3   OH238383   2.438   2.731   4.837 -0.0730 -0.7377  0.2823
 5631TIP3    H138384   2.398   2.714   4.751 -1.0595  1.1916  0.3268
 5631TIP3    H238385   2.364   2.750   4.894  0.8348  1.8466  0.6321
 5632TIP3   OH238386   0.397   1.973  11.851 -0.4210  0.4273 -0.3621
 5632TIP3    H138387   0.412   1.884  11.883  0.8524  0.2859 -1.3231
 5632TIP3    H238388   0.356   1.961  11.765 -1.8310  0.7889  0.2467
 5633TIP3   OH238389   2.684   6.602   1.347  0.0371  0.4359  0.0437
 5633TIP3    H138390   2.675   6.579   1.439  1.2863 -1.8681 -0.3685
 5633TIP3    H238391   2.743   6.536   1.311 -1.4862  0.4701 -2.7188
 5634TIP3   OH238392   3.100   0.584  16.443 -0.0372  0.4398 -0.5542
 5634TIP3    H138393   3.141   0.620  16.364  0.6629  1.9168  0.4628
 5634TIP3    H238394   3.041   0.516  16.410 -0.3251  1.5430 -2.4126
 5635TIP3   OH238395   4.846   0.413   4.592  0.0999  0.7056  0.0608
 5635TIP3    H138396   4.845   0.446   4.681  0.5616 -1.3507  0.8723
 5635TIP3    H238397   4.765   0.446   4.552 -0.1878  1.4897  1.2827
 5636TIP3   OH238398   0.052   1.347  12.607 -0.5464  0.8774  0.1281
 5636TIP3    H138399   0.087   1.435  12.620 -1.1813  1.2306 -0.4904
 5636TIP3    H238400  -0.041   1.360  12.592 -0.5208  0.1644 -0.6969
 5637TIP3   OH238401   4.328   2.680  11.132  0.2925 -0.4990 -0.0246
 5637TIP3    H138402   4.392   2.685  11.202 -0.0425 -0.8173  0.3049
 5637TIP3    H238403   4.341   2.593  11.093  0.9587 -0.0540 -0.8225
 5638TIP3   OH238404   2.156   4.499   4.958 -0.2214  0.3625  0.5350
 5638TIP3    H138405   2.187   4.560   4.891 -0.1484 -1.8096 -1.4801
 5638TIP3    H238406   2.210   4.519   5.035  1.5745  1.1018 -0.8715
 5639TIP3   OH238407   2.240   3.670   0.665 -0.8325 -0.2373  0.3235
 5639TIP3    H138408   2.153   3.710   0.668 -0.4439  0.9185 -2.1509
 5639TIP3    H238409   2.291   3.719   0.729 -2.4285 -2.1529  3.1758
 5640TIP3   OH238410   5.533   0.565   3.377 -0.3533  0.6172  0.0208
 5640TIP3    H138411   5.453   0.596   3.334 -0.0855  0.1110 -0.8451
 5640TIP3    H238412   5.581   0.645   3.399 -0.0353  0.8468 -1.4979
 5641TIP3   OH238413   1.109   6.489   1.379 -0.1741 -0.3195  0.3392
 5641TIP3    H138414   1.038   6.426   1.390  0.2437 -0.3575  3.2350
 5641TIP3    H238415   1.066   6.568   1.347 -1.1647 -1.0760 -0.2371
 5642TIP3   OH238416   3.342   5.988   0.550 -0.8850 -0.3702 -0.0992
 5642TIP3    H138417   3.331   5.998   0.455  1.0256 -0.3911 -0.3434
 5642TIP3    H238418   3.399   6.061   0.575  0.9997 -1.9872  0.5302
 5643TIP3   OH238419   1.992   1.410  15.725  0.1117  0.3547 -0.7532
 5643TIP3    H138420   1.910   1.369  15.754  0.0212  1.3962  0.5216
 5643TIP3    H238421   1.968   1.454  15.643 -0.8712  1.4924  0.1281
 5644TIP3   OH238422   1.235   5.037  12.837  0.0508  0.0759  0.4315
 5644TIP3    H138423   1.186   4.987  12.902  1.8809 -1.6391  0.5378
 5644TIP3    H238424   1.325   5.038  12.870  0.4719  1.6085 -0.6730
 5645TIP3   OH238425   3.099   3.607   0.520 -1.0338 -0.0764 -0.1888
 5645TIP3    H138426   3.183   3.649   0.500 -0.0320 -2.3418 -0.9535
 5645TIP3    H238427   3.075   3.561   0.440  0.0725 -4.3752  1.7436
 5646TIP3   OH238428   1.440   2.670  12.807  0.5819  0.1840  0.0352
 5646TIP3    H138429   1.446   2.661  12.712 -3.2491 -0.5223 -0.2071
 5646TIP3    H238430   1.464   2.584  12.841 -0.1301 -0.1923 -0.4067
 5647TIP3   OH238431   3.267   5.095   2.314  0.0163 -0.1791  0.0620
 5647TIP3    H138432   3.278   5.171   2.371  0.2340  0.3289 -0.6551
 5647TIP3    H238433   3.298   5.021   2.366 -0.5593  0.1608  0.9095
 5648TIP3   OH238434   5.312   5.535  13.489  0.3556 -0.0367  0.6659
 5648TIP3    H138435   5.249   5.596  13.451 -1.4468 -1.2786  1.6441
 5648TIP3    H238436   5.376   5.521  13.419 -1.8779 -0.8253 -1.2674
 5649TIP3   OH238437   4.931   4.866   6.242 -0.0660  0.2945  0.1011
 5649TIP3    H138438   4.977   4.945   6.272 -1.2483  0.7976  0.6043
 5649TIP3    H238439   4.929   4.874   6.146 -1.1871  1.4587  0.2065
 5650TIP3   OH238440   1.703   2.674   4.710 -0.3709  0.4471  0.0075
 5650TIP3    H138441   1.786   2.722   4.715 -0.1355  0.0097  0.3729
 5650TIP3    H238442   1.725   2.594   4.662 -0.8977  0.9866 -1.1346
 5651TIP3   OH238443   4.550   5.549   4.330  0.2393 -0.0290  0.5374
 5651TIP3    H138444   4.531   5.518   4.419  1.8236 -1.3762  0.4231
 5651TIP3    H238445   4.632   5.506   4.307 -0.6032 -0.3647 -1.9175
 5652TIP3   OH238446   2.684   3.353  17.253  0.0956  0.0508 -0.1316
 5652TIP3    H138447   2.630   3.275  17.263 -0.0569  0.3781  1.8140
 5652TIP3    H238448   2.743   3.333  17.180 -0.8954 -1.3065 -0.5674
 5653TIP3   OH238449   0.936   0.749   1.990 -0.0582 -0.0292  0.2634
 5653TIP3    H138450   1.016   0.699   1.971 -1.2678 -2.2955  0.8949
 5653TIP3    H238451   0.902   0.708   2.070 -2.1903  0.4974 -0.3568
 5654TIP3   OH238452   1.043   4.057   0.572 -0.4386 -0.3799  0.1742
 5654TIP3    H138453   1.129   4.075   0.611 -1.1174  1.1110  0.9893
 5654TIP3    H238454   0.982   4.061   0.645 -1.2378 -1.2902 -0.4342
 5655TIP3   OH238455   1.746   3.719  13.172 -0.4725  0.6714 -0.0156
 5655TIP3    H138456   1.671   3.738  13.115 -0.1306  1.7541 -0.1025
 5655TIP3    H238457   1.818   3.769  13.134  0.5755 -1.2082 -0.5706
 5656TIP3   OH238458   0.203   2.438  12.648 -0.0797 -0.2196 -0.4903
 5656TIP3    H138459   0.193   2.347  12.676  0.1888 -0.0564  0.1581
 5656TIP3    H238460   0.224   2.486  12.729 -2.3628  0.7758 -0.4432
 5657TIP3   OH238461   2.101   1.149  13.434 -0.2158 -0.4145 -0.5363
 5657TIP3    H138462   2.038   1.185  13.496 -0.2798 -0.0076 -0.8343
 5657TIP3    H238463   2.048   1.121  13.359 -0.1193 -0.7316 -0.4864
 5658TIP3   OH238464   1.095   2.522  10.711 -0.1253  0.7456  0.6348
 5658TIP3    H138465   1.033   2.544  10.641  0.8260 -1.2016 -0.8573
 5658TIP3    H238466   1.040   2.488  10.781 -1.1007  2.8122  0.9233
 5659TIP3   OH238467   6.564   2.165   4.906  0.2465 -0.2522 -0.2515
 5659TIP3    H138468   6.633   2.141   4.967  0.2198  1.1190  0.3357
 5659TIP3    H238469   6.496   2.099   4.920  1.7913 -2.1540 -1.4975
 5660TIP3   OH238470   4.545   2.795   4.215  0.4806 -0.4444 -0.2143
 5660TIP3    H138471   4.568   2.874   4.264 -0.8239 -0.4034  0.3678
 5660TIP3    H238472   4.576   2.812   4.126 -0.0361  0.8642 -0.1677
 5661TIP3   OH238473   4.710   5.150   0.545 -0.1246  0.1075 -0.2413
 5661TIP3    H138474   4.773   5.203   0.595 -0.7129 -0.6095  1.2874
 5661TIP3    H238475   4.763   5.079   0.509  0.4771  1.1292 -1.4548
 5662TIP3   OH238476   0.495   4.666   1.519 -0.6887 -0.5741  0.2403
 5662TIP3    H138477   0.540   4.745   1.549 -0.6602 -0.1201 -0.9807
 5662TIP3    H238478   0.404   4.693   1.507 -0.8231 -0.9093  0.4972
 5663TIP3   OH238479   5.757   1.366  14.157  0.0321  0.3499 -0.2236
 5663TIP3    H138480   5.851   1.369  14.172 -0.1534 -0.7783  1.2534
 5663TIP3    H238481   5.733   1.274  14.171 -1.2852  0.6256 -0.5796
 5664TIP3   OH238482   4.587   1.281   3.256 -0.6496  0.2559 -0.0009
 5664TIP3    H138483   4.555   1.279   3.166 -1.8842 -1.1327  0.4436
 5664TIP3    H238484   4.666   1.335   3.252 -1.0799  0.8007 -1.7754
 5665TIP3   OH238485   4.226   6.749  14.914  0.1288  0.4913  0.1812
 5665TIP3    H138486   4.292   6.813  14.939 -0.2108  0.6096  0.7750
 5665TIP3    H238487   4.161   6.800  14.864  0.3661  0.4176 -0.2070
 5666TIP3   OH238488   0.270   0.737  13.092  0.2296  0.3536 -0.1966
 5666TIP3    H138489   0.298   0.736  13.001  2.6955 -4.8043  0.4313
 5666TIP3    H238490   0.339   0.785  13.138  1.0681 -0.5470 -0.5075
 5667TIP3   OH238491   3.877   1.610   3.070 -0.1392 -0.4790  0.1150
 5667TIP3    H138492   3.913   1.677   3.128 -0.0447 -0.5124  0.0952
 5667TIP3    H238493   3.942   1.600   3.001  1.6269 -3.1931  2.0646
 5668TIP3   OH238494   5.502   1.034  15.407  0.2855 -0.1947  0.0597
 5668TIP3    H138495   5.561   1.019  15.333  1.2087 -0.8629  0.9193
 5668TIP3    H238496   5.508   1.127  15.425  0.7318 -0.1851 -0.1498
 5669TIP3   OH238497   5.721   5.128   6.701  0.2741  0.1429 -0.4966
 5669TIP3    H138498   5.774   5.194   6.658 -0.6221  2.0731  1.2895
 5669TIP3    H238499   5.780   5.053   6.710  1.1359  0.4767 -3.0070
 5670TIP3   OH238500   5.422   6.394  12.297 -0.2485 -0.1044 -0.0901
 5670TIP3    H138501   5.434   6.373  12.389 -1.7307  0.3983  0.2210
 5670TIP3    H238502   5.350   6.457  12.295 -0.3248 -0.2138 -1.5998
 5671TIP3   OH238503   3.958   4.863   5.389  0.0352  0.0673 -0.0217
 5671TIP3    H138504   4.040   4.819   5.368 -0.3099 -0.9969  0.8570
 5671TIP3    H238505   3.971   4.897   5.478 -0.5926 -0.3719  0.2369
 5672TIP3   OH238506   1.254   5.953  15.134  0.2438  0.0242  0.4097
 5672TIP3    H138507   1.203   6.027  15.102  0.2827 -0.0169  0.2538
 5672TIP3    H238508   1.339   5.962  15.091  0.1277 -0.3178  0.1110
 5673TIP3   OH238509   4.970   2.367   6.305  0.0015 -0.1838 -0.2752
 5673TIP3    H138510   5.028   2.436   6.273 -0.6330  0.1419 -0.7384
 5673TIP3    H238511   5.017   2.286   6.287  0.2654  0.0727 -0.7507
 5674TIP3   OH238512   5.075   4.041   5.077 -0.4764  0.2387 -0.0297
 5674TIP3    H138513   5.003   3.982   5.053 -1.0315  1.2613 -0.8871
 5674TIP3    H238514   5.085   4.099   5.002  2.3927 -0.9541 -0.6398
 5675TIP3   OH238515   0.070   5.336  11.200  0.6989  0.0705  0.0458
 5675TIP3    H138516   0.159   5.307  11.218  1.4822  0.5314 -2.7925
 5675TIP3    H238517   0.071   5.358  11.107 -2.2100  0.7302  0.1350
 5676TIP3   OH238518   6.110   1.370   0.635 -0.8990 -0.0916 -0.1244
 5676TIP3    H138519   6.082   1.306   0.570 -2.9537  1.2864 -0.6243
 5676TIP3    H238520   6.178   1.325   0.685 -0.7386 -1.8764 -1.8991
 5677TIP3   OH238521   3.283   6.171  11.847 -0.3825 -0.2251  0.1927
 5677TIP3    H138522   3.257   6.262  11.829 -1.6135 -0.2987  1.4881
 5677TIP3    H238523   3.262   6.159  11.940 -2.0611 -2.4239 -0.4372
 5678TIP3   OH238524   1.099   4.579  16.016  0.1016  0.3704 -0.3569
 5678TIP3    H138525   1.029   4.620  16.068  1.1927  0.9575  0.6916
 5678TIP3    H238526   1.130   4.649  15.959 -1.4472 -0.4174 -2.2151
 5679TIP3   OH238527   1.119   4.015   0.007  0.3970 -0.0823  0.1370
 5679TIP3    H138528   1.121   4.100   0.051  0.0720  0.4469 -0.8612
 5679TIP3    H238529   1.091   3.953   0.075 -0.7176  0.8218  0.5218
 5680TIP3   OH238530   4.269   4.606  15.975 -0.1407  0.2662  0.1084
 5680TIP3    H138531   4.232   4.558  16.049  0.1004 -0.1540 -0.0393
 5680TIP3    H238532   4.361   4.581  15.974 -0.3054 -0.3106 -0.7912
 5681TIP3   OH238533   2.477   3.612  14.438  0.0495  0.0109  0.0375
 5681TIP3    H138534   2.432   3.534  14.471 -0.2388  0.3018  0.3338
 5681TIP3    H238535   2.439   3.684  14.487  0.9526  0.2487  0.4033
 5682TIP3   OH238536   5.270   6.711  17.114 -0.1772 -0.5037  0.3510
 5682TIP3    H138537   5.205   6.776  17.090 -1.7369 -1.4358  1.9341
 5682TIP3    H238538   5.249   6.687  17.204  1.5282 -1.8181  0.4383
 5683TIP3   OH238539   4.204   1.925  13.569 -1.4794 -0.6726  0.1876
 5683TIP3    H138540   4.163   2.011  13.560 -0.1858 -0.0226  0.4547
 5683TIP3    H238541   4.257   1.914  13.491 -0.0976 -0.3833  1.0760
 5684TIP3   OH238542   3.258   2.528  10.967  0.4519 -0.6564  0.0056
 5684TIP3    H138543   3.223   2.552  11.053  0.4916 -1.0610  0.1367
 5684TIP3    H238544   3.326   2.593  10.950 -2.2883  1.8925 -1.5394
 5685TIP3   OH238545   1.936   1.691   3.565 -0.0425  0.1003  0.2570
 5685TIP3    H138546   1.988   1.751   3.619 -0.8977  1.7305 -0.6971
 5685TIP3    H238547   2.000   1.634   3.524  0.8310  0.6789  0.7903
 5686TIP3   OH238548   4.812   1.538   1.284  0.6988 -0.9091 -0.6919
 5686TIP3    H138549   4.717   1.536   1.285  0.6516  0.9457 -0.3227
 5686TIP3    H238550   4.836   1.615   1.336  2.3637 -0.8922 -1.4305
 5687TIP3   OH238551   4.370   5.874   5.364 -0.6388 -0.3219  0.7652
 5687TIP3    H138552   4.397   5.814   5.434  1.5333  0.7498  0.8971
 5687TIP3    H238553   4.433   5.858   5.294 -1.2760  0.3962  0.0255
 5688TIP3   OH238554   5.635   6.185   4.123 -0.2754 -0.5732  0.1045
 5688TIP3    H138555   5.716   6.184   4.173  0.1290 -0.4643 -0.5423
 5688TIP3    H238556   5.603   6.275   4.130 -0.8035 -0.8434  1.1062
 5689TIP3   OH238557   0.661   0.138  11.835 -0.2433  0.4001 -0.6274
 5689TIP3    H138558   0.732   0.136  11.771 -0.4032  1.6660 -0.8507
 5689TIP3    H238559   0.586   0.101  11.788  0.0729 -0.2567 -0.6239
 5690TIP3   OH238560   3.668   3.173  17.138 -0.3803  0.5011  0.0620
 5690TIP3    H138561   3.587   3.207  17.100 -0.7794 -0.8644 -0.3368
 5690TIP3    H238562   3.738   3.213  17.086 -0.8458  0.5124 -0.5518
 5691TIP3   OH238563   6.729   2.372  15.058 -0.4096 -0.2479 -0.2154
 5691TIP3    H138564   6.749   2.305  14.992  0.7927  0.8282 -0.9771
 5691TIP3    H238565   6.720   2.323  15.139  1.8574 -1.2280 -0.5018
 5692TIP3   OH238566   6.032   3.930  11.681  0.0438  0.1086 -0.2690
 5692TIP3    H138567   6.038   3.903  11.589 -2.4173 -0.1236 -0.3922
 5692TIP3    H238568   5.999   3.853  11.727 -1.1633  0.9971  0.3789
 5693TIP3   OH238569   3.370   3.794  16.500 -0.1370 -0.2189  0.9106
 5693TIP3    H138570   3.323   3.772  16.580 -1.3813  0.3499  0.3391
 5693TIP3    H238571   3.349   3.886  16.484 -0.0062 -0.3644 -0.1527
 5694TIP3   OH238572   2.250   2.513  15.852 -0.3719 -0.6906 -0.5286
 5694TIP3    H138573   2.279   2.434  15.897  1.3909  0.3864  0.2662
 5694TIP3    H238574   2.250   2.581  15.919 -2.9090 -0.2227 -0.9608
 5695TIP3   OH238575   4.547   3.210  14.915  0.2031 -0.3857 -0.0597
 5695TIP3    H138576   4.490   3.241  14.844 -1.7177 -2.4289  0.5312
 5695TIP3    H238577   4.616   3.277  14.921 -0.8864  1.0179 -2.2741
 5696TIP3   OH238578   0.026   6.800  11.726  0.5941 -0.2111  1.0164
 5696TIP3    H138579  -0.013   6.723  11.767  1.8316 -1.3163  0.1829
 5696TIP3    H238580   0.068   6.766  11.647  1.5797  1.2410  0.8875
 5697TIP3   OH238581   3.988   1.891  15.921  0.0703 -0.2084  0.1453
 5697TIP3    H138582   3.975   1.963  15.983 -1.6411  0.0863 -0.5482
 5697TIP3    H238583   3.914   1.832  15.936  0.5824 -1.0097 -0.4265
 5698TIP3   OH238584   4.459   3.280  12.420  0.7982  0.0620 -0.6488
 5698TIP3    H138585   4.462   3.341  12.347  1.2525  0.4233 -0.3263
 5698TIP3    H238586   4.518   3.317  12.485 -2.1292  1.5412  1.2828
 5699TIP3   OH238587   0.811   1.635   1.898  0.4178 -0.3840 -0.8021
 5699TIP3    H138588   0.898   1.631   1.939  0.8183  1.2704 -1.4943
 5699TIP3    H238589   0.753   1.595   1.963  1.1251  1.7788  1.2273
 5700TIP3   OH238590   4.116   4.737  12.746  1.0158  0.0906 -0.6377
 5700TIP3    H138591   4.139   4.653  12.705  1.3721 -1.1945  2.0814
 5700TIP3    H238592   4.083   4.713  12.833 -1.3795  2.6038 -0.7958
 5701TIP3   OH238593   6.159   0.992  14.975 -0.5258 -0.0547 -0.2187
 5701TIP3    H138594   6.218   0.931  14.930 -1.1309 -1.8304  1.3326
 5701TIP3    H238595   6.076   0.983  14.929 -0.1395  0.9452 -1.1236
 5702TIP3   OH238596   0.290   1.174  16.746 -0.0486  0.1092 -0.6244
 5702TIP3    H138597   0.199   1.172  16.774 -0.2562  0.1346 -1.2853
 5702TIP3    H238598   0.316   1.265  16.755  0.3514 -0.1440  0.9376
 5703TIP3   OH238599   5.529   2.074  16.907 -0.0448  0.0224  0.1844
 5703TIP3    H138600   5.509   2.061  16.815  0.6469  0.2229  0.0035
 5703TIP3    H238601   5.528   2.169  16.920 -1.1081 -0.0409  0.6051
 5704TIP3   OH238602   1.093   5.551   5.889  0.6990  0.5632  0.3316
 5704TIP3    H138603   1.182   5.518   5.873  1.3178  1.7612  1.1803
 5704TIP3    H238604   1.062   5.500   5.964  0.1117 -0.8685 -0.8874
 5705TIP3   OH238605   3.003   5.171  11.211  0.3321  0.2485  0.3745
 5705TIP3    H138606   3.022   5.078  11.226 -0.5068  0.2293  1.4389
 5705TIP3    H238607   2.923   5.187  11.262  0.4030  1.5224  0.0984
 5706TIP3   OH238608   2.985   4.452  16.465 -0.0170 -0.0349 -0.3958
 5706TIP3    H138609   2.941   4.424  16.385  0.0234 -1.2137 -0.0141
 5706TIP3    H238610   3.021   4.538  16.444  1.2475 -0.9571 -2.1502
 5707TIP3   OH238611   1.370   1.113   4.934  0.0165 -0.0235 -0.3081
 5707TIP3    H138612   1.421   1.096   5.013  0.9491 -2.7872 -1.4572
 5707TIP3    H238613   1.414   1.188   4.893  2.1033 -1.2511 -0.3675
 5708TIP3   OH238614   3.205   4.213   1.896  0.0730  0.1894 -0.4726
 5708TIP3    H138615   3.116   4.189   1.871  0.3638  0.4531 -1.7819
 5708TIP3    H238616   3.194   4.292   1.950 -0.6304 -0.9975  1.1648
 5709TIP3   OH238617   1.415   0.933   5.170  0.5226 -0.5304  0.1639
 5709TIP3    H138618   1.418   0.898   5.259  0.4593 -0.9860 -0.0092
 5709TIP3    H238619   1.486   0.887   5.124 -0.5297 -1.5688 -0.4637
 5710TIP3   OH238620   1.204   6.596   0.142 -0.4066 -0.4413  0.8072
 5710TIP3    H138621   1.184   6.523   0.083  1.3613  0.5587 -1.0993
 5710TIP3    H238622   1.236   6.553   0.222 -1.4559 -1.7895  0.5255
 5711TIP3   OH238623   2.371   0.679   4.529  0.3737 -0.0090  0.4197
 5711TIP3    H138624   2.290   0.726   4.506  0.8833  1.7501  2.0555
 5711TIP3    H238625   2.441   0.736   4.495  0.9704 -0.3686  1.0450
 5712TIP3   OH238626   5.120   0.034   5.409 -0.1210  0.6239  0.2158
 5712TIP3    H138627   5.112   0.067   5.498  1.0069  2.5564 -0.3502
 5712TIP3    H238628   5.037  -0.011   5.391  0.8082 -2.4759  3.2553
 5713TIP3   OH238629   1.498   4.299   5.274 -0.5329  0.0438 -0.1709
 5713TIP3    H138630   1.571   4.331   5.327 -0.9671 -0.1292  0.5411
 5713TIP3    H238631   1.457   4.231   5.327 -2.2254  1.2801  0.1721
 5714TIP3   OH238632   0.263   6.256   4.995  0.3981 -0.6189 -0.0316
 5714TIP3    H138633   0.273   6.324   5.062 -0.2511 -1.0181  0.4801
 5714TIP3    H238634   0.177   6.273   4.956  1.6086  0.8152 -2.1439
 5715TIP3   OH238635   5.172   6.542   5.440 -0.2028  0.6137 -0.9127
 5715TIP3    H138636   5.231   6.477   5.403 -1.3450 -0.4758 -0.8789
 5715TIP3    H238637   5.121   6.574   5.365  1.5191  2.7444 -1.2122
 5716TIP3   OH238638   2.406   2.805  16.578  0.5688 -0.0362 -0.0799
 5716TIP3    H138639   2.383   2.853  16.657  2.2043  1.2945 -0.3731
 5716TIP3    H238640   2.392   2.867  16.506  0.1976 -0.8466 -0.7133
 5717TIP3   OH238641   0.286   3.156  14.761 -0.3264 -0.3509 -0.6417
 5717TIP3    H138642   0.350   3.115  14.702 -0.0977 -0.9856  0.0359
 5717TIP3    H238643   0.265   3.087  14.824 -1.9727 -0.2790 -1.0941
 5718TIP3   OH238644   6.664   1.048  11.914  0.5215  0.7093 -0.5543
 5718TIP3    H138645   6.580   1.092  11.904  0.2572  0.0080 -1.5401
 5718TIP3    H238646   6.698   1.079  11.998 -1.6832 -0.5871  0.8657
 5719TIP3   OH238647   6.173   6.168   1.982 -0.1213 -0.3827  0.4595
 5719TIP3    H138648   6.179   6.086   1.934 -0.4342 -1.2365  1.8597
 5719TIP3    H238649   6.106   6.153   2.048 -1.6452  1.6921 -0.5846
 5720TIP3   OH238650   5.138   3.106  15.639 -0.0051  0.3031  0.0718
 5720TIP3    H138651   5.150   3.032  15.697 -1.5323  0.5281  0.7165
 5720TIP3    H238652   5.187   3.177  15.679  1.4855 -0.3540 -0.5667
 5721TIP3   OH238653   1.510   2.483   5.677  0.0050  0.3494  0.0887
 5721TIP3    H138654   1.493   2.443   5.763  2.1197  0.4509  0.5725
 5721TIP3    H238655   1.540   2.571   5.697 -3.6700  1.9274 -0.9440
 5722TIP3   OH238656   1.840   5.986   1.486  0.2620  0.1223  0.1793
 5722TIP3    H138657   1.875   5.994   1.398  1.8902 -1.5164  0.6625
 5722TIP3    H238658   1.797   5.901   1.488  1.1511 -0.3215  1.2544
 5723TIP3   OH238659   1.963   5.857  12.459 -0.4473  0.1422 -0.0925
 5723TIP3    H138660   1.924   5.806  12.530 -1.4540 -1.5396 -1.8063
 5723TIP3    H238661   1.890   5.875  12.399  0.6144  0.4856 -1.3086
 5724TIP3   OH238662   6.206   0.486   4.961 -0.0027  0.3145  0.1025
 5724TIP3    H138663   6.274   0.534   5.008  0.4236 -1.2839  1.1273
 5724TIP3    H238664   6.163   0.432   5.027 -1.1202 -0.0113 -0.8590
 5725TIP3   OH238665   0.753   5.952  15.974 -0.1316 -0.0613  0.0664
 5725TIP3    H138666   0.796   5.870  15.999 -1.5647 -0.8431  0.0393
 5725TIP3    H238667   0.693   5.927  15.903 -0.0184  1.1541 -0.4732
 5726TIP3   OH238668   0.246   0.991  13.633 -0.4373  0.2926 -0.2933
 5726TIP3    H138669   0.180   1.005  13.701 -0.4249  1.8354 -0.5815
 5726TIP3    H238670   0.330   1.004  13.678 -0.4283  1.2752 -0.5736
 5727TIP3   OH238671   5.218   1.626   1.595  0.8038 -0.7408 -0.0159
 5727TIP3    H138672   5.313   1.632   1.585  0.9018  0.2142  1.3830
 5727TIP3    H238673   5.186   1.715   1.579 -0.2595 -1.7632 -4.1618
 5728TIP3   OH238674   0.465   3.130  15.355  0.1383 -0.1683  0.2749
 5728TIP3    H138675   0.527   3.195  15.387 -0.7152  2.0356 -2.4185
 5728TIP3    H238676   0.379   3.168  15.371 -0.4016 -1.0675 -0.4288
 5729TIP3   OH238677   3.818   2.453   3.999 -0.7207 -0.0993 -0.4662
 5729TIP3    H138678   3.732   2.424   4.029 -0.0674 -2.1011 -0.4577
 5729TIP3    H238679   3.866   2.475   4.079 -0.4418 -1.2710 -0.2992
 5730TIP3   OH238680   3.084   5.778  13.756  0.0910  0.0715  0.5003
 5730TIP3    H138681   3.098   5.869  13.733 -1.0467 -0.0245 -0.5886
 5730TIP3    H238682   3.171   5.740  13.759  0.3846  0.5125 -1.8707
 5731TIP3   OH238683   4.252   0.199  16.206 -0.4037  0.0721  0.6159
 5731TIP3    H138684   4.247   0.158  16.119 -0.5389 -1.6491  1.3994
 5731TIP3    H238685   4.169   0.246  16.215 -0.5305 -0.0130 -0.0743
 5732TIP3   OH238686   5.516   2.612  14.935  0.4875  0.0624  0.4730
 5732TIP3    H138687   5.570   2.570  14.868  1.8976 -0.6757  2.0380
 5732TIP3    H238688   5.558   2.696  14.950 -0.4684  0.6923 -0.3490
 5733TIP3   OH238689   0.967   0.950  14.785  0.1351  0.2709 -0.0450
 5733TIP3    H138690   1.032   0.941  14.715 -0.7193  1.2706 -0.9781
 5733TIP3    H238691   0.943   0.861  14.807 -0.0894 -0.0330 -1.4998
 5734TIP3   OH238692   0.078   5.184   3.164 -0.4809 -0.1791 -0.2149
 5734TIP3    H138693   0.136   5.221   3.230  0.3284 -0.7970 -0.5749
 5734TIP3    H238694   0.136   5.135   3.105 -1.0367  1.3723 -2.0977
 5735TIP3   OH238695   5.692   0.792  13.810  0.2100 -0.2010 -0.1276
 5735TIP3    H138696   5.695   0.867  13.750 -0.1599  0.1578  0.3007
 5735TIP3    H238697   5.768   0.805  13.867 -0.5374  0.5023  0.7205
 5736TIP3   OH238698   2.649   2.653   2.581 -0.2540 -0.4481 -0.1658
 5736TIP3    H138699   2.673   2.624   2.492 -1.1432  2.2961 -1.3366
 5736TIP3    H238700   2.725   2.702   2.611 -0.4727 -0.2644  0.0859
 5737TIP3   OH238701   4.750   6.757  16.635  0.3447  0.1589  0.3337
 5737TIP3    H138702   4.794   6.837  16.663  0.9290 -0.1164  0.2104
 5737TIP3    H238703   4.657   6.778  16.640  0.4895  0.7666  0.5353
 5738TIP3   OH238704   0.450   6.306   4.136 -0.2113  0.0888 -0.4618
 5738TIP3    H138705   0.361   6.307   4.100 -2.5215  1.2599  4.7406
 5738TIP3    H238706   0.483   6.394   4.119 -0.5854  0.1091 -1.1318
 5739TIP3   OH238707   3.548   4.202  14.607  0.6084  0.0959 -0.2185
 5739TIP3    H138708   3.468   4.179  14.560  0.3040 -3.2722  1.7898
 5739TIP3    H238709   3.518   4.255  14.681  0.5438  1.1815 -1.0220
 5740TIP3   OH238710   4.874   6.354  11.586 -0.1668  0.2966  0.0929
 5740TIP3    H138711   4.856   6.355  11.680 -0.8428 -1.7775  0.0061
 5740TIP3    H238712   4.951   6.410  11.576  0.3873 -0.0915  1.9919
 5741TIP3   OH238713   1.024   6.525   5.603  0.2954  0.3001  0.5039
 5741TIP3    H138714   1.015   6.569   5.688  0.9270  1.6503 -0.1108
 5741TIP3    H238715   1.081   6.450   5.621 -0.5058 -0.0789  1.5005
 5742TIP3   OH238716   2.513   4.117  10.522 -0.5466  0.3262  0.4667
 5742TIP3    H138717   2.554   4.174  10.587  0.0534  0.5770 -0.1307
 5742TIP3    H238718   2.426   4.097  10.559 -0.1619  0.3649  1.3964
 5743TIP3   OH238719   5.797   2.159   1.917  0.1397  0.3562  0.0339
 5743TIP3    H138720   5.821   2.131   1.829  0.4376 -0.6531  0.4279
 5743TIP3    H238721   5.841   2.096   1.975  0.5668  1.4489  0.9272
 5744TIP3   OH238722   5.290   0.163  11.707  0.1383 -0.1808  0.0067
 5744TIP3    H138723   5.211   0.124  11.743  0.1036  0.8597  1.0730
 5744TIP3    H238724   5.361   0.134  11.764  0.3555 -0.1015 -0.2164
 5745TIP3   OH238725   6.039   3.980   5.494 -0.2622  0.9943  0.3748
 5745TIP3    H138726   6.037   4.058   5.438 -0.8670 -0.2163 -1.3237
 5745TIP3    H238727   6.055   3.907   5.433  2.5100  0.0175  2.1797
 5746TIP3   OH238728   3.434   5.782  12.617 -0.0827 -0.3864 -0.3308
 5746TIP3    H138729   3.438   5.861  12.671 -0.2740 -0.0446 -0.8103
 5746TIP3    H238730   3.437   5.710  12.679  2.6853 -0.0499 -0.0440
 5747TIP3   OH238731   3.146   6.292  16.123  0.3256  0.1638  0.0930
 5747TIP3    H138732   3.207   6.365  16.125  1.8438 -1.0968  0.8767
 5747TIP3    H238733   3.082   6.313  16.191  0.8283  0.6926  0.4134
 5748TIP3   OH238734   1.819   1.058   0.264 -0.9377  0.2854 -0.0718
 5748TIP3    H138735   1.737   1.034   0.307 -0.9129 -0.2796 -0.3372
 5748TIP3    H238736   1.837   1.147   0.295 -1.9174  0.6103 -0.4110
 5749TIP3   OH238737   3.221   4.974   0.379 -0.3151  0.4219 -0.3770
 5749TIP3    H138738   3.219   5.002   0.471  0.1058  0.0009 -0.2387
 5749TIP3    H238739   3.191   5.051   0.330 -2.5895 -0.0118  0.2661
 5750TIP3   OH238740   2.058   3.790  11.714  0.7900 -0.0121  0.2399
 5750TIP3    H138741   2.066   3.742  11.796 -0.5262 -0.1583  0.2838
 5750TIP3    H238742   1.973   3.833  11.719  1.0498  0.6363 -0.7039
 5751TIP3   OH238743   0.524   0.944   4.700  0.1946  0.0452  0.1878
 5751TIP3    H138744   0.580   0.911   4.630  2.3287  0.4569  1.6511
 5751TIP3    H238745   0.520   1.039   4.686 -1.0116 -0.1027 -0.5211
 5752TIP3   OH238746   0.512   2.699   6.424 -0.0030  0.5070  0.0266
 5752TIP3    H138747   0.518   2.681   6.518 -0.5937 -0.2484 -0.0791
 5752TIP3    H238748   0.557   2.626   6.382  2.0894  1.8945 -0.2093
 5753TIP3   OH238749   2.633   1.671  16.448  0.0084  0.9231 -0.3400
 5753TIP3    H138750   2.584   1.668  16.530  2.1672  1.1153  1.0107
 5753TIP3    H238751   2.654   1.763  16.436  3.1275  0.4534  1.0535
 5754TIP3   OH238752   1.561   3.979   2.468  0.4437 -0.0706  0.2227
 5754TIP3    H138753   1.509   3.912   2.513  2.1139 -1.3123  0.3291
 5754TIP3    H238754   1.526   3.980   2.379 -1.1764  0.6186  0.8355
 5755TIP3   OH238755   3.820   5.908   5.190  0.0399 -0.1485 -0.1833
 5755TIP3    H138756   3.732   5.902   5.154 -1.1517 -0.0193  2.5357
 5755TIP3    H238757   3.811   5.968   5.264  2.0511 -1.4344  1.1482
 5756TIP3   OH238758   1.237   5.927   4.441  0.1737 -0.2295 -0.1068
 5756TIP3    H138759   1.322   5.884   4.453  0.2285  0.1192  0.7883
 5756TIP3    H238760   1.257   6.020   4.436 -0.2757 -0.0341  1.4861
 5757TIP3   OH238761   4.644   0.501  12.093  0.4551 -0.9025 -0.1523
 5757TIP3    H138762   4.589   0.426  12.071 -0.9120 -0.0225  0.1813
 5757TIP3    H238763   4.687   0.476  12.175  0.1434 -1.3879 -0.1386
 5758TIP3   OH238764   6.082   5.809   3.008  0.7704  0.4498 -0.6189
 5758TIP3    H138765   6.104   5.778   2.920 -0.6605 -0.0167 -0.8165
 5758TIP3    H238766   6.073   5.729   3.059  2.3245  0.7385  0.1534
 5759TIP3   OH238767   3.596   3.878   0.368 -0.6910  0.4058 -0.1601
 5759TIP3    H138768   3.516   3.836   0.400  1.0255 -1.5740  1.6737
 5759TIP3    H238769   3.642   3.907   0.448  0.8778  0.6798 -1.1298
 5760TIP3   OH238770   4.519   0.589  11.754 -0.2950  0.0360 -0.4203
 5760TIP3    H138771   4.548   0.645  11.682 -0.5945 -1.2254 -1.5398
 5760TIP3    H238772   4.582   0.605  11.825 -0.9877  2.5722 -0.3426
 5761TIP3   OH238773   1.796   1.148   4.798  0.3117  0.0217 -0.2907
 5761TIP3    H138774   1.761   1.172   4.712  1.6213  0.5134 -0.6822
 5761TIP3    H238775   1.739   1.193   4.860  0.8668  1.6431 -0.9488
 5762TIP3   OH238776   3.447   6.154   2.613  0.6722 -0.0262 -0.2018
 5762TIP3    H138777   3.399   6.234   2.632  0.6666 -0.0770  0.0030
 5762TIP3    H238778   3.501   6.176   2.537  2.4339  0.9055  1.2760
 5763TIP3   OH238779   0.831   4.068   2.654 -0.0869  0.0784  0.3364
 5763TIP3    H138780   0.747   4.023   2.655  0.4931 -1.0782 -1.0727
 5763TIP3    H238781   0.820   4.141   2.714 -2.2145  0.1587 -0.1297
 5764TIP3   OH238782   6.432   4.639  10.487 -0.0206 -0.2356  0.3096
 5764TIP3    H138783   6.479   4.559  10.466 -2.0112 -1.8498  1.7546
 5764TIP3    H238784   6.453   4.699  10.416  1.5151 -2.0296 -0.7922
 5765TIP3   OH238785   0.251   2.847   3.137 -0.1751  0.1375  0.0716
 5765TIP3    H138786   0.251   2.938   3.168  0.3601  0.8905 -2.0178
 5765TIP3    H238787   0.160   2.830   3.113 -0.0666  0.5391 -0.6490
 5766TIP3   OH238788   4.273   2.092  11.707  0.3446 -0.1873  0.2885
 5766TIP3    H138789   4.229   2.007  11.715  0.3192  0.0009  2.5939
 5766TIP3    H238790   4.359   2.078  11.748  1.0502  0.4171 -0.9648
 5767TIP3   OH238791   5.373   3.071   4.767  0.1969  0.3741 -0.7766
 5767TIP3    H138792   5.453   3.105   4.729 -0.1839  1.5986 -0.5070
 5767TIP3    H238793   5.340   3.143   4.821 -1.0062 -0.1678 -0.7784
 5768TIP3   OH238794   2.659   6.271   3.017 -0.2270 -0.0407  0.3055
 5768TIP3    H138795   2.712   6.197   3.047 -1.6179 -1.0802  0.2514
 5768TIP3    H238796   2.619   6.240   2.936  0.3292  1.3163 -0.5075
 5769TIP3   OH238797   1.412   4.006   4.975 -0.8586  0.1810  0.0835
 5769TIP3    H138798   1.353   3.969   4.910  0.7727 -0.3464 -1.1502
 5769TIP3    H238799   1.445   3.930   5.023 -0.2579  0.3372 -0.0669
 5770TIP3   OH238800   0.858   4.679  11.595 -0.4055  0.5361  0.1067
 5770TIP3    H138801   0.873   4.662  11.688 -2.1678  0.0272  0.3286
 5770TIP3    H238802   0.816   4.599  11.562  0.7201  0.4927 -1.2594
 5771TIP3   OH238803   3.347   6.549  15.530  0.3483 -0.8652 -0.4535
 5771TIP3    H138804   3.431   6.557  15.485  0.3885 -0.0540 -0.2535
 5771TIP3    H238805   3.368   6.567  15.622 -0.2027  0.4051 -0.5596
 5772TIP3   OH238806   3.035   4.963   1.352  0.3455  0.1317  0.2290
 5772TIP3    H138807   3.077   4.977   1.437  0.5213 -1.7341  0.4579
 5772TIP3    H238808   3.051   5.045   1.304  0.4101  1.1136  1.9051
 5773TIP3   OH238809   4.056   5.786  17.257 -0.0966 -0.4649 -0.1341
 5773TIP3    H138810   4.032   5.831  17.176  0.4883 -0.9751 -0.5963
 5773TIP3    H238811   3.973   5.771  17.301 -0.4159 -0.1232 -0.6061
 5774TIP3   OH238812   3.318   2.466   3.790  0.2452  0.1025  0.3549
 5774TIP3    H138813   3.240   2.507   3.753 -0.0297 -0.2358  0.5493
 5774TIP3    H238814   3.372   2.443   3.714 -0.1137 -0.1939  0.1865
 5775TIP3   OH238815   0.328   2.023   0.721 -0.5510  0.4092  0.3099
 5775TIP3    H138816   0.390   2.030   0.793  0.4974  2.6058 -0.7678
 5775TIP3    H238817   0.383   2.018   0.643 -1.6943 -0.9579 -0.4228
 5776TIP3   OH238818   4.359   5.933  11.098 -0.1225  0.3967 -0.0818
 5776TIP3    H138819   4.267   5.957  11.106 -0.2092  0.4488 -1.2083
 5776TIP3    H238820   4.397   6.002  11.043 -0.0484 -1.1935 -2.0675
 5777TIP3   OH238821   0.344   4.443  11.915 -0.6630  0.4495 -0.1557
 5777TIP3    H138822   0.354   4.384  11.990  2.0248  0.1507 -0.6944
 5777TIP3    H238823   0.260   4.418  11.876 -0.0804 -2.3062  0.2496
 5778TIP3   OH238824   3.802   2.065   5.275 -0.0807  0.1752 -0.0739
 5778TIP3    H138825   3.849   2.141   5.239  0.1209  0.1449  0.1232
 5778TIP3    H238826   3.712   2.096   5.286 -0.3355 -0.0706 -1.3872
 5779TIP3   OH238827   0.694   6.574   5.813  0.3599  0.0018  0.3238
 5779TIP3    H138828   0.786   6.591   5.796  0.6387 -0.5733  1.2203
 5779TIP3    H238829   0.666   6.647   5.868  0.0978  0.5444 -0.5246
 5780TIP3   OH238830   0.550   6.700   4.801  0.7415 -0.3766 -0.0921
 5780TIP3    H138831   0.583   6.700   4.890  1.4793  1.7659 -0.3560
 5780TIP3    H238832   0.498   6.780   4.794  1.5430  0.0012 -1.8886
 5781TIP3   OH238833   3.671   2.760   2.073  0.1787 -0.0643  0.2363
 5781TIP3    H138834   3.704   2.735   1.987 -0.7705  0.2778 -0.2285
 5781TIP3    H238835   3.602   2.696   2.092 -0.1265  0.3128  0.4140
 5782TIP3   OH238836   0.122   2.312   6.486 -0.0380  0.0501 -0.0605
 5782TIP3    H138837   0.077   2.227   6.483  0.9100 -0.4595 -0.0638
 5782TIP3    H238838   0.212   2.292   6.464 -0.0105  1.2218 -1.0659
 5783TIP3   OH238839   4.236   2.355  11.455 -0.1636  0.1779  0.1079
 5783TIP3    H138840   4.145   2.375  11.480 -0.3215 -0.2726 -0.1031
 5783TIP3    H238841   4.232   2.266  11.420 -0.2006  1.3225 -2.9040
 5784TIP3   OH238842   2.313   1.381  11.737 -0.2019  0.4489  0.1421
 5784TIP3    H138843   2.259   1.359  11.813  1.7215  0.5118  1.5870
 5784TIP3    H238844   2.386   1.432  11.774  2.5015 -2.2334 -1.2431
 5785TIP3   OH238845   1.179   2.030   6.337 -0.1378  0.3369  0.1717
 5785TIP3    H138846   1.138   1.977   6.406  2.8145 -1.8689  0.3072
 5785TIP3    H238847   1.239   2.087   6.383  0.1067  0.5185 -0.3655
 5786TIP3   OH238848   1.322   1.547  15.716  0.0519  0.0534 -0.3172
 5786TIP3    H138849   1.228   1.531  15.721  0.1614 -0.8419 -0.9858
 5786TIP3    H238850   1.345   1.529  15.625  0.8632  0.3285 -0.1746
 5787TIP3   OH238851   5.935   4.676  11.541 -0.4133 -1.0184  0.3050
 5787TIP3    H138852   5.909   4.593  11.503  1.3076 -0.6782 -1.6826
 5787TIP3    H238853   5.853   4.726  11.548 -0.9791 -1.6349 -1.6164
 5788TIP3   OH238854   6.496   2.315  13.251 -0.0666 -0.3296  0.2735
 5788TIP3    H138855   6.528   2.379  13.188  0.1794 -0.3590  0.3691
 5788TIP3    H238856   6.407   2.345  13.272 -0.7969 -1.2745 -1.3796
 5789TIP3   OH238857   1.440   3.055  16.343  0.0075 -0.2527  0.3637
 5789TIP3    H138858   1.482   3.132  16.381  1.0503 -1.0457  0.8208
 5789TIP3    H238859   1.503   3.022  16.279 -0.9389 -0.0396 -0.7177
 5790TIP3   OH238860   3.302   2.043   0.017  0.1647 -0.2175 -0.3145
 5790TIP3    H138861   3.353   2.120   0.041 -0.3525 -0.0580  0.2701
 5790TIP3    H238862   3.366   1.972   0.013  0.3913 -0.0635  0.6567
 5791TIP3   OH238863   0.687   1.767  16.710 -0.4454 -0.1327  0.0552
 5791TIP3    H138864   0.768   1.819  16.712 -1.0068  0.7274  1.8315
 5791TIP3    H238865   0.694   1.708  16.785 -1.4845 -0.0204  0.2500
 5792TIP3   OH238866   0.561   2.644   1.994 -0.9477  0.0745  0.4803
 5792TIP3    H138867   0.568   2.565   1.940  0.9536  0.6716 -0.1983
 5792TIP3    H238868   0.484   2.629   2.049 -0.4525 -2.3743  0.5571
 5793TIP3   OH238869   6.019   0.902   3.959  0.1126 -0.2879  0.4218
 5793TIP3    H138870   5.990   0.838   4.024  2.4407 -1.8370  0.0064
 5793TIP3    H238871   6.081   0.853   3.904  0.2539  1.7374 -1.2667
 5794TIP3   OH238872   3.924   4.061  13.206 -0.1473  0.3855  0.7364
 5794TIP3    H138873   3.949   3.978  13.247  0.3299  0.2084  0.0955
 5794TIP3    H238874   3.828   4.062  13.210 -0.1019  0.4635  2.0244
 5795TIP3   OH238875   4.297   1.762   2.525  0.0698  0.5723 -0.2711
 5795TIP3    H138876   4.225   1.756   2.587 -1.2635  0.5402 -1.7824
 5795TIP3    H238877   4.281   1.691   2.462  1.8374  0.0924 -0.2079
 5796TIP3   OH238878   0.040   6.057  16.108 -0.0556 -0.3444 -0.1101
 5796TIP3    H138879   0.049   6.125  16.176  1.0663 -0.8918  0.2892
 5796TIP3    H238880   0.029   5.976  16.157  3.7623 -1.1766 -0.5413
 5797TIP3   OH238881   1.680   6.699   1.394 -0.1274  0.0867  0.1030
 5797TIP3    H138882   1.686   6.699   1.299  0.1643 -1.4570  0.1191
 5797TIP3    H238883   1.654   6.610   1.417  2.5248 -0.3225  1.6350
 5798TIP3   OH238884   0.429   5.982   4.192 -0.7118 -0.7133 -0.3093
 5798TIP3    H138885   0.466   5.921   4.255 -1.3990 -0.3927  0.4031
 5798TIP3    H238886   0.395   6.054   4.244  1.0185  0.8050 -1.1985
 5799TIP3   OH238887   6.775   3.060   1.748  0.6921  0.0955 -0.1544
 5799TIP3    H138888   6.719   3.073   1.825  0.8726 -0.9145  0.1462
 5799TIP3    H238889   6.855   3.109   1.768  1.5116 -1.7002  1.1380
 5800TIP3   OH238890   2.236   5.486   4.022  0.0398  0.3918 -0.3560
 5800TIP3    H138891   2.214   5.557   4.083  0.7052 -1.4836  2.1695
 5800TIP3    H238892   2.330   5.495   4.008  0.3368 -0.6267  0.8698
 5801TIP3   OH238893   2.048   3.799  13.682 -0.5198 -0.6684 -0.7829
 5801TIP3    H138894   2.051   3.705  13.664 -0.6225 -0.4925 -1.7308
 5801TIP3    H238895   1.957   3.816  13.704 -0.1585 -1.1028  1.1566
 5802TIP3   OH238896   6.206   3.073  13.596 -0.0866  0.0455  0.1819
 5802TIP3    H138897   6.261   3.122  13.656  0.3549  1.9211 -1.6901
 5802TIP3    H238898   6.117   3.087  13.628  0.1763  0.6926  0.6333
 5803TIP3   OH238899   0.537   3.440   3.336 -0.3611  0.6779  0.0056
 5803TIP3    H138900   0.603   3.451   3.404 -2.6089  1.0920  2.2158
 5803TIP3    H238901   0.586   3.435   3.255  2.2852  2.4900  1.4275
 5804TIP3   OH238902   2.505   4.700  13.319  0.0546  0.5916 -0.2436
 5804TIP3    H138903   2.457   4.618  13.309  0.2897  0.5865 -1.3323
 5804TIP3    H238904   2.459   4.762  13.264  1.0148  0.6997 -0.9325
 5805TIP3   OH238905   3.311   5.621  17.036 -0.4550 -0.7668 -0.1189
 5805TIP3    H138906   3.224   5.591  17.009 -0.2820 -2.2524  0.9023
 5805TIP3    H238907   3.327   5.699  16.983 -2.6709 -0.1067  0.1284
 5806TIP3   OH238908   0.688   5.103   0.487 -0.2106  0.1603 -0.4847
 5806TIP3    H138909   0.752   5.032   0.485  0.6166  0.8863 -0.5129
 5806TIP3    H238910   0.673   5.124   0.395 -0.8652 -0.3498 -0.4875
 5807TIP3   OH238911   6.584   3.281   5.814  0.1298  0.4878  0.1300
 5807TIP3    H138912   6.533   3.245   5.887  2.0190  0.1645  1.3224
 5807TIP3    H238913   6.523   3.281   5.741 -0.5282 -3.3934  0.5592
 5808TIP3   OH238914   3.920   0.553   3.361  0.4133 -0.5318 -0.0203
 5808TIP3    H138915   3.849   0.588   3.414  0.1512 -1.6417  0.3820
 5808TIP3    H238916   3.889   0.560   3.271 -0.4681 -1.5640  0.1937
 5809TIP3   OH238917   0.161   5.330  15.572  0.2498 -0.0522  1.4884
 5809TIP3    H138918   0.195   5.334  15.483 -2.6724 -0.0900  0.2880
 5809TIP3    H238919   0.203   5.402  15.618  0.2997  1.2325 -0.5010
 5810TIP3   OH238920   1.524   3.607  15.325 -0.7873 -0.1788 -0.1759
 5810TIP3    H138921   1.530   3.546  15.251 -1.5764 -0.2585 -0.1804
 5810TIP3    H238922   1.448   3.661  15.304 -1.9204 -1.1698  1.2934
 5811TIP3   OH238923   2.001   3.416  13.224  0.3246  0.3744 -0.0989
 5811TIP3    H138924   1.922   3.376  13.260 -0.6074  2.1027 -0.1920
 5811TIP3    H238925   2.006   3.383  13.134  0.1315 -0.3028  0.1315
 5812TIP3   OH238926   1.989   5.658   0.214 -0.6250  0.1866 -0.0133
 5812TIP3    H138927   2.062   5.702   0.257 -0.4959 -1.0895  1.1043
 5812TIP3    H238928   2.009   5.664   0.120  0.0458  1.3268  0.1941
 5813TIP3   OH238929   0.127   1.521  17.247 -0.3530 -0.7767 -0.5706
 5813TIP3    H138930   0.210   1.473  17.246 -0.0932 -0.3334 -0.9913
 5813TIP3    H238931   0.114   1.546  17.338  1.3378  1.4414 -0.8817
 5814TIP3   OH238932   6.262   2.824  14.372 -0.2912 -0.7259 -0.6019
 5814TIP3    H138933   6.187   2.808  14.314 -1.0798 -0.5082  0.3499
 5814TIP3    H238934   6.337   2.827  14.313 -1.0562 -0.7393 -1.5900
 5815TIP3   OH238935   3.097   3.234   0.820  0.1639  0.0159  0.2579
 5815TIP3    H138936   3.075   3.201   0.733 -0.3702  2.9082 -0.7588
 5815TIP3    H238937   3.183   3.195   0.839 -0.2599 -1.6090 -1.0091
 5816TIP3   OH238938   6.242   0.649  12.574 -0.0132 -0.7291 -0.0046
 5816TIP3    H138939   6.178   0.640  12.504 -0.1864 -0.4800  0.1223
 5816TIP3    H238940   6.327   0.637  12.530 -0.2023 -2.8002  0.1060
 5817TIP3   OH238941   3.978   3.396   1.966  0.3309 -0.1809 -0.2147
 5817TIP3    H138942   3.943   3.463   2.025  0.2054 -0.3816 -0.0590
 5817TIP3    H238943   4.015   3.330   2.025  0.1274 -0.4245 -0.3611
 5818TIP3   OH238944   3.862   0.741   5.541  0.2662 -0.0707 -0.1306
 5818TIP3    H138945   3.806   0.818   5.550  3.2903  2.2634 -0.3397
 5818TIP3    H238946   3.897   0.748   5.452 -0.9767 -2.8234 -0.8730
 5819TIP3   OH238947   5.661   0.814  17.243  0.5150  0.0567 -0.1438
 5819TIP3    H138948   5.715   0.739  17.266 -0.9071 -0.6422  0.9901
 5819TIP3    H238949   5.722   0.875  17.201  2.2028 -0.6487  1.2102
 5820TIP3   OH238950   2.565   6.005   4.803  0.5371  0.3490 -0.0831
 5820TIP3    H138951   2.531   6.025   4.890  1.6633 -1.1197  0.7243
 5820TIP3    H238952   2.519   5.925   4.777  1.5812 -0.2894 -0.0121
 5821TIP3   OH238953   2.740   0.721   3.926  0.2148 -0.0023  0.0250
 5821TIP3    H138954   2.757   0.811   3.952 -1.7715  0.3839  0.0372
 5821TIP3    H238955   2.776   0.714   3.837 -1.3861  1.3872 -0.7550
 5822TIP3   OH238956   3.775   3.065   4.731  0.2762 -0.1859 -0.4045
 5822TIP3    H138957   3.694   3.015   4.729  1.6972 -2.6329  0.4892
 5822TIP3    H238958   3.808   3.061   4.641  0.7201 -1.4763 -0.1946
 5823TIP3   OH238959   6.200   1.567  16.859 -0.0579 -0.7757  0.0082
 5823TIP3    H138960   6.128   1.536  16.804 -0.2013 -0.4985  0.0381
 5823TIP3    H238961   6.246   1.631  16.804  0.2480 -1.0516 -0.0591
 5824TIP3   OH238962   1.873   1.617   3.143 -0.1629 -0.2915 -0.3771
 5824TIP3    H138963   1.947   1.675   3.127 -0.8740  0.7272  0.0039
 5824TIP3    H238964   1.797   1.675   3.146 -0.8936 -1.2528 -0.1011
 5825TIP3   OH238965   5.900   4.741   4.138  0.2089  0.0896  0.0997
 5825TIP3    H138966   5.957   4.706   4.206  0.1693 -0.0912  0.0398
 5825TIP3    H238967   5.818   4.692   4.148 -0.0282  0.5331  0.3590
 5826TIP3   OH238968   1.129   0.595   1.565 -0.5552 -0.0058 -0.3789
 5826TIP3    H138969   1.096   0.683   1.580 -0.8485  0.1319 -1.7220
 5826TIP3    H238970   1.123   0.583   1.470 -1.4650 -1.8357 -0.1216
 5827TIP3   OH238971   4.078   0.941  14.908 -0.7058  0.0471 -0.4561
 5827TIP3    H138972   4.135   0.945  14.985 -0.6353  0.3586 -0.5232
 5827TIP3    H238973   3.992   0.966  14.941 -0.9561 -1.1144 -0.2111
 5828TIP3   OH238974   0.650   1.380   4.435  0.0123 -0.5252  0.6937
 5828TIP3    H138975   0.611   1.466   4.451  0.0863  0.1208 -2.2689
 5828TIP3    H238976   0.593   1.319   4.483 -2.8490  0.7197 -0.9637
 5829TIP3   OH238977   3.852   5.146  13.350 -0.3934 -0.0050 -0.2048
 5829TIP3    H138978   3.840   5.199  13.271  0.0404 -2.3790 -1.9468
 5829TIP3    H238979   3.779   5.084  13.348 -0.4289 -0.0100  1.3105
 5830TIP3   OH238980   6.369   3.456   5.346 -0.5731 -0.0864  0.8827
 5830TIP3    H138981   6.424   3.499   5.281 -0.3364 -0.3295  0.9189
 5830TIP3    H238982   6.297   3.418   5.296 -0.3620 -0.3192  0.7587
 5831TIP3   OH238983   3.871   4.039  16.799 -0.2711 -0.1243  0.0910
 5831TIP3    H138984   3.817   4.093  16.741  0.0550  1.2220  1.0134
 5831TIP3    H238985   3.936   3.999  16.741 -1.9993 -1.4545 -0.9579
 5832TIP3   OH238986   0.046   3.302  17.002 -0.2891 -0.5550 -0.1245
 5832TIP3    H138987   0.018   3.228  17.056 -0.0415 -1.1114 -0.7573
 5832TIP3    H238988   0.130   3.328  17.039 -0.9088  0.1512  0.8254
 5833TIP3   OH238989   0.029   2.638   2.288  0.2334 -0.4136 -0.5243
 5833TIP3    H138990  -0.030   2.661   2.217 -1.2552  0.1201  0.8562
 5833TIP3    H238991   0.056   2.548   2.270 -2.4001 -1.2826 -0.2418
 5834TIP3   OH238992   2.026   4.257  15.732  0.4222 -0.1388 -0.1995
 5834TIP3    H138993   2.117   4.286  15.721 -0.3246  2.3712 -0.0010
 5834TIP3    H238994   2.002   4.222  15.646  1.0259  0.8249 -0.7719
 5835TIP3   OH238995   4.940   0.515  12.036 -0.6429  0.3495  0.1790
 5835TIP3    H138996   4.945   0.439  11.977  0.2270  1.1522 -0.8032
 5835TIP3    H238997   4.847   0.536  12.040 -0.5397  1.4842 -2.4866
 5836TIP3   OH238998   5.941   4.266  11.701 -0.3206 -0.5788 -0.0513
 5836TIP3    H138999   5.946   4.346  11.754 -1.0319  0.4840 -1.5669
 5836TIP3    H239000   5.853   4.231  11.718 -0.3672 -0.5104 -0.1525
 5837TIP3   OH239001   3.651   0.722  16.483  0.3983 -0.3629  0.1506
 5837TIP3    H139002   3.675   0.778  16.408 -0.9709 -1.8356 -1.4337
 5837TIP3    H239003   3.735   0.685  16.512  1.2021  1.7099  0.6222
 5838TIP3   OH239004   6.295   1.412  15.511  0.0205 -0.0950 -0.0655
 5838TIP3    H139005   6.338   1.497  15.513 -2.5954  1.2508  0.9171
 5838TIP3    H239006   6.256   1.406  15.424  0.8970 -0.6622 -0.4256
 5839TIP3   OH239007   6.638   3.119  13.062  1.0002  0.1440 -0.0967
 5839TIP3    H139008   6.608   3.203  13.027  0.1434  0.5631  1.5889
 5839TIP3    H239009   6.730   3.114  13.036  0.8492  1.2276 -0.8978
 5840TIP3   OH239010   3.028   2.923  13.968  0.1424 -1.0286  0.3732
 5840TIP3    H139011   2.974   2.987  14.015  1.7303 -0.3439  1.3175
 5840TIP3    H239012   3.044   2.854  14.031  0.7359 -1.0017  0.2635
 5841TIP3   OH239013   4.681   5.619  14.160  0.0156  0.2325  0.3805
 5841TIP3    H139014   4.751   5.582  14.213  1.2502  1.7665 -0.1482
 5841TIP3    H239015   4.726   5.675  14.096 -1.6026  0.3092 -0.7161
 5842TIP3   OH239016   5.698   4.135   1.500  0.2765 -0.0445 -0.4440
 5842TIP3    H139017   5.776   4.079   1.505 -0.1501 -0.6214 -0.1830
 5842TIP3    H239018   5.627   4.078   1.529 -0.3302  0.3239 -1.2159
 5843TIP3   OH239019   4.148   6.367  15.215 -0.2381 -0.4854  0.1554
 5843TIP3    H139020   4.185   6.453  15.235  0.6605 -0.9666  0.5695
 5843TIP3    H239021   4.154   6.318  15.297 -1.9065 -0.5378  0.2688
 5844TIP3   OH239022   1.497   4.248   2.498  0.2505 -1.1033  0.4218
 5844TIP3    H139023   1.407   4.280   2.497  0.2033 -1.2641 -0.8963
 5844TIP3    H239024   1.488   4.153   2.499  0.4152 -1.1174  0.8274
 5845TIP3   OH239025   6.551   6.621  11.078 -0.2451  0.1008  0.2394
 5845TIP3    H139026   6.528   6.531  11.102  0.2432  0.5034  2.3615
 5845TIP3    H239027   6.523   6.630  10.987 -0.1183 -2.2515 -0.0567
 5846TIP3   OH239028   2.495   3.527   3.854 -0.2514  0.4513  0.1625
 5846TIP3    H139029   2.545   3.576   3.920 -1.0794  0.8769  0.4778
 5846TIP3    H239030   2.541   3.543   3.772  1.0420 -0.4245  0.6927
 5847TIP3   OH239031   1.191   2.346  12.018  0.0839  0.0287  0.1682
 5847TIP3    H139032   1.226   2.429  11.985 -0.3809 -0.0354 -0.5044
 5847TIP3    H239033   1.235   2.280  11.965 -2.7664  0.0528 -2.3119
 5848TIP3   OH239034   1.742   0.195   0.557 -0.2535  0.0115 -0.4944
 5848TIP3    H139035   1.711   0.224   0.472 -2.6653 -0.4465  0.1997
 5848TIP3    H239036   1.720   0.102   0.561  0.0766 -0.0394  0.5381
 5849TIP3   OH239037   5.727   4.711   0.850  0.1093  0.1823  0.0197
 5849TIP3    H139038   5.653   4.738   0.796 -0.2789 -0.1158  0.4015
 5849TIP3    H239039   5.732   4.616   0.837  1.2650  0.3833 -1.0663
 5850TIP3   OH239040   6.727   4.075   5.327 -0.2203 -0.2686 -0.5879
 5850TIP3    H139041   6.780   4.019   5.385 -0.6599 -0.2975 -0.2077
 5850TIP3    H239042   6.790   4.112   5.265  0.0712 -1.2037 -0.8588
 5851TIP3   OH239043   5.804   2.140   4.445  0.0853 -0.4649 -0.3042
 5851TIP3    H139044   5.891   2.178   4.451 -0.4074  0.7688 -0.8164
 5851TIP3    H239045   5.778   2.125   4.536 -0.0102  1.1337 -0.0604
 5852TIP3   OH239046   3.498   4.705   0.053  0.0507  0.3869 -0.6222
 5852TIP3    H139047   3.567   4.639   0.055 -0.4880 -0.1494  0.6986
 5852TIP3    H239048   3.424   4.664   0.097  0.3918  2.6222  2.1411
 5853TIP3   OH239049   4.905   3.393   5.821  0.6804  0.2369  0.1397
 5853TIP3    H139050   4.922   3.443   5.900  0.3617 -0.1391  0.4437
 5853TIP3    H239051   4.990   3.390   5.776  0.7479  0.8676  0.2226
 5854TIP3   OH239052   2.112   2.274   6.028 -0.0984 -0.5004 -0.1179
 5854TIP3    H139053   2.193   2.320   6.051  0.1734 -1.1099  0.1502
 5854TIP3    H239054   2.067   2.262   6.112 -0.0726 -0.9045 -0.1625
 5855TIP3   OH239055   6.249   1.251  14.444  0.4524  1.0982 -0.1540
 5855TIP3    H139056   6.278   1.178  14.499 -1.7216  1.1663  1.1243
 5855TIP3    H239057   6.306   1.247  14.367  2.1626 -0.2646  1.1426
 5856TIP3   OH239058   0.793   5.961  14.329  0.0976  0.0923 -0.0896
 5856TIP3    H139059   0.772   5.998  14.243 -0.0754  0.9616  0.3324
 5856TIP3    H239060   0.709   5.925  14.360 -0.0798  0.7602  0.2034
 5857TIP3   OH239061   3.776   3.573  15.012  0.2978  0.0824 -0.1389
 5857TIP3    H139062   3.815   3.563  14.925  0.2797 -4.4971  0.2882
 5857TIP3    H239063   3.681   3.568  14.997  0.2479  0.3505  0.0710
 5858TIP3   OH239064   3.547   5.447   5.527 -0.0721  0.0591  0.4646
 5858TIP3    H139065   3.578   5.357   5.517 -0.8670 -0.2785  0.9380
 5858TIP3    H239066   3.451   5.440   5.520 -0.3454  0.4731  3.3127
 5859TIP3   OH239067   1.807   1.179  14.416  0.2520  0.4096 -0.0385
 5859TIP3    H139068   1.901   1.182  14.397  0.6371  0.8939  1.8226
 5859TIP3    H239069   1.802   1.154  14.509 -1.4563  0.3031 -0.1412
 5860TIP3   OH239070   4.248   5.967  14.242 -0.1657 -0.0239  0.3482
 5860TIP3    H139071   4.285   5.910  14.174 -0.0112 -0.2981  0.6638
 5860TIP3    H239072   4.209   6.039  14.193  0.9363  0.3559  0.0050
 5861TIP3   OH239073   5.234   3.144  14.549 -0.0327 -0.2289  0.1424
 5861TIP3    H139074   5.239   3.071  14.487  1.1684 -1.0936  1.2396
 5861TIP3    H239075   5.158   3.124  14.603  0.5229 -0.9025  0.6990
 5862TIP3   OH239076   3.640   5.485  11.254 -0.3293 -0.0301  0.1883
 5862TIP3    H139077   3.568   5.542  11.283  0.7943  0.9398  1.0893
 5862TIP3    H239078   3.596   5.405  11.225 -1.7526  0.3879  1.1292
 5863TIP3   OH239079   0.279   1.164   0.200 -0.2244 -0.6381  0.1681
 5863TIP3    H139080   0.355   1.158   0.258 -0.1541  0.0524  0.1446
 5863TIP3    H239081   0.205   1.141   0.255 -0.3753  1.7770  0.9959
 5864TIP3   OH239082   2.873   3.784  11.723 -0.1623  0.2644 -0.2117
 5864TIP3    H139083   2.823   3.825  11.652  2.4780 -1.4528 -3.1852
 5864TIP3    H239084   2.832   3.699  11.735 -1.5425  1.1312  1.4219
 5865TIP3   OH239085   3.116   2.369  13.577 -0.0827  0.1243 -0.2822
 5865TIP3    H139086   3.163   2.340  13.655 -2.7328 -0.3165  1.2071
 5865TIP3    H239087   3.135   2.463  13.571 -1.5924  0.6304  2.1955
 5866TIP3   OH239088   6.793   2.908   1.509 -0.1513 -0.1864 -0.0235
 5866TIP3    H139089   6.749   2.957   1.578 -0.3581  0.2102 -0.4368
 5866TIP3    H239090   6.787   2.816   1.537  0.2531  0.0146  0.7570
 5867TIP3   OH239091   4.729   0.037  13.431 -0.0199  0.2257 -0.6084
 5867TIP3    H139092   4.674   0.075  13.362 -1.6465 -1.2820 -0.1890
 5867TIP3    H239093   4.726   0.103  13.501  0.8147  1.3045 -1.5712
 5868TIP3   OH239094   2.227   5.201   1.439  0.0349  0.1929  0.4504
 5868TIP3    H139095   2.289   5.128   1.438  1.8626  1.6797  0.1971
 5868TIP3    H239096   2.261   5.259   1.507 -1.3282  0.8486  0.5757
 5869TIP3   OH239097   1.462   3.280   0.181  0.3243 -0.0962 -0.0492
 5869TIP3    H139098   1.452   3.228   0.260  1.5883  0.6201  0.6086
 5869TIP3    H239099   1.384   3.261   0.129 -1.2458  0.5287  2.0062
 5870TIP3   OH239100   5.110   3.909   1.362 -0.3869 -0.0425  0.0034
 5870TIP3    H139101   5.028   3.859   1.366 -0.8212  0.6381 -0.2911
 5870TIP3    H239102   5.091   3.989   1.412  0.8902 -0.9818  2.0537
 5871TIP3   OH239103   4.699   1.015   0.143 -0.2013 -0.4940  0.4856
 5871TIP3    H139104   4.665   0.934   0.106 -0.1436  0.0741 -0.8519
 5871TIP3    H239105   4.638   1.082   0.114  2.0728  0.5724 -2.0685
 5872TIP3   OH239106   0.153   5.180  12.571 -0.4254  0.0207 -0.1095
 5872TIP3    H139107   0.126   5.140  12.654  1.1012 -0.1768  0.3019
 5872TIP3    H239108   0.199   5.260  12.596 -1.4205  0.8409 -0.8450
 5873TIP3   OH239109   4.213   4.706   3.345  0.6160 -1.4088  0.0616
 5873TIP3    H139110   4.237   4.639   3.280  0.0876 -1.3015 -0.2498
 5873TIP3    H239111   4.256   4.785   3.314 -1.0464 -0.9400 -1.1386
 5874TIP3   OH239112   5.487   4.680   4.626  0.1409  0.0095 -0.8818
 5874TIP3    H139113   5.497   4.602   4.681  0.5947  0.6354 -0.0675
 5874TIP3    H239114   5.461   4.749   4.686 -0.6919  0.3931 -1.6778
 5875TIP3   OH239115   3.278   1.350  16.320  0.7468  0.0129  0.3581
 5875TIP3    H139116   3.210   1.295  16.281  1.0523  0.0064 -0.1699
 5875TIP3    H239117   3.245   1.439  16.310  1.5099  0.1332 -1.3190
 5876TIP3   OH239118   0.311   1.490   3.911 -0.0137  0.3039 -0.1683
 5876TIP3    H139119   0.268   1.548   3.848 -0.0837 -0.0360 -0.4408
 5876TIP3    H239120   0.263   1.407   3.903 -0.9726  0.7043  1.4118
 5877TIP3   OH239121   0.611   3.192  13.348  0.0607 -0.0211 -0.1194
 5877TIP3    H139122   0.702   3.188  13.317  1.0018  0.2344  2.4561
 5877TIP3    H239123   0.609   3.130  13.421 -1.6572  0.4964  0.2742
 5878TIP3   OH239124   4.567   0.412   2.040 -0.1482 -0.6630 -0.1784
 5878TIP3    H139125   4.659   0.385   2.038  0.0412 -0.1703  0.9985
 5878TIP3    H239126   4.521   0.345   1.990  0.4953 -2.4531  1.5409
 5879TIP3   OH239127   5.763   6.754  11.182  0.5475 -0.1927 -0.3566
 5879TIP3    H139128   5.857   6.773  11.184  0.4508  0.4866 -1.8320
 5879TIP3    H239129   5.728   6.813  11.115 -1.0946  0.2650  0.8564
 5880TIP3   OH239130   3.369   4.340  15.509 -0.1964 -0.9880 -0.2068
 5880TIP3    H139131   3.287   4.318  15.464 -0.7384 -0.0135  0.2738
 5880TIP3    H239132   3.425   4.264  15.496 -1.3713 -1.8878 -0.1124
 5881TIP3   OH239133   3.697   0.370  13.599  0.2533  0.4860  0.4027
 5881TIP3    H139134   3.655   0.307  13.658 -0.7380  0.7689 -0.0073
 5881TIP3    H239135   3.764   0.412  13.653  1.0780 -1.0670  0.6319
 5882TIP3   OH239136   2.237   0.179   5.727 -0.1592 -0.5309  0.5539
 5882TIP3    H139137   2.266   0.206   5.639  0.4017 -0.9197  0.6152
 5882TIP3    H239138   2.299   0.222   5.786 -0.1952 -0.7208  0.7284
 5883TIP3   OH239139   1.641   6.349   1.123  0.2047 -0.0059 -0.0207
 5883TIP3    H139140   1.562   6.386   1.084  0.3641  0.5568  0.1892
 5883TIP3    H239141   1.684   6.303   1.051 -0.1734 -0.0856 -0.1991
 5884TIP3   OH239142   3.616   5.325   3.039 -0.1726  0.2012 -0.8713
 5884TIP3    H139143   3.693   5.362   3.082  0.7814 -1.2260 -1.3138
 5884TIP3    H239144   3.543   5.376   3.073  0.7933  0.5174  0.7954
 5885TIP3   OH239145   5.143   4.302  16.052 -0.8886  0.3412 -0.8117
 5885TIP3    H139146   5.235   4.309  16.078 -1.1255  2.0643 -0.3135
 5885TIP3    H239147   5.142   4.234  15.985  0.1773 -2.3079  1.7240
 5886TIP3   OH239148   1.843   0.785   3.451 -0.1858 -0.4612 -0.0855
 5886TIP3    H139149   1.843   0.690   3.451  1.5293 -0.5002  1.8216
 5886TIP3    H239150   1.935   0.810   3.452 -0.6075  1.2294 -0.5852
 5887TIP3   OH239151   0.583   3.806  11.264  0.3744  0.4944 -0.0119
 5887TIP3    H139152   0.555   3.720  11.296  0.4660 -0.2153 -1.7285
 5887TIP3    H239153   0.607   3.855  11.342 -1.1365 -0.5212  1.1165
 5888TIP3   OH239154   2.634   3.249   3.922  0.2905  0.0230 -0.4103
 5888TIP3    H139155   2.611   3.339   3.944  0.5549  0.0031 -0.0434
 5888TIP3    H239156   2.619   3.242   3.828 -0.4288  0.2424 -0.3159
 5889TIP3   OH239157   4.093   2.115   2.699 -0.1841 -0.5442  0.1219
 5889TIP3    H139158   4.157   2.175   2.663  0.0831 -0.6975  0.3432
 5889TIP3    H239159   4.013   2.132   2.650  0.0128 -0.3168 -0.1149
 5890TIP3   OH239160   5.255   3.559   6.175  0.5879 -0.2401 -0.6596
 5890TIP3    H139161   5.321   3.566   6.106  0.4558 -2.6946 -1.1023
 5890TIP3    H239162   5.305   3.556   6.257  0.8307  1.1162 -0.7507
 5891TIP3   OH239163   4.863   4.370  16.000 -0.0837 -0.1205  0.1182
 5891TIP3    H139164   4.917   4.348  16.076  0.4645  0.8156  0.0015
 5891TIP3    H239165   4.789   4.309  16.006  0.3929 -0.6430  0.9117
 5892TIP3   OH239166   4.401   3.185   5.661  0.5342  0.7216 -0.2072
 5892TIP3    H139167   4.387   3.207   5.569  0.6375 -0.4479 -0.5146
 5892TIP3    H239168   4.469   3.117   5.659 -0.5120 -0.3769  0.6194
 5893TIP3   OH239169   2.479   6.022  15.323 -0.2540 -0.1425  0.5581
 5893TIP3    H139170   2.523   6.066  15.395 -0.8374 -0.3958  1.0705
 5893TIP3    H239171   2.484   6.084  15.250 -0.5189  0.5070  1.0939
 5894TIP3   OH239172   6.196   1.220  14.831  0.2287 -0.1436  0.0114
 5894TIP3    H139173   6.204   1.174  14.914  0.0403 -0.2704 -0.0398
 5894TIP3    H239174   6.144   1.161  14.776  0.0046  0.1165 -0.0599
 5895TIP3   OH239175   1.942   3.869  15.178 -0.2729 -0.1963 -0.3082
 5895TIP3    H139176   1.980   3.951  15.210  2.4188 -2.2816  2.0833
 5895TIP3    H239177   1.856   3.865  15.220  0.2422  0.6485  0.8801
 5896TIP3   OH239178   6.596   0.270   4.283 -0.5204  0.2075 -0.2360
 5896TIP3    H139179   6.561   0.259   4.371  1.2571  0.6745  0.5538
 5896TIP3    H239180   6.633   0.358   4.283 -2.3116  0.9956 -2.1076
 5897TIP3   OH239181   6.111   6.620  11.873 -0.0879 -0.1018  0.2659
 5897TIP3    H139182   6.177   6.689  11.867 -0.8809  0.6984  0.4524
 5897TIP3    H239183   6.081   6.609  11.782  0.5740 -0.7281  0.1300
 5898TIP3   OH239184   5.432   1.426   0.993 -0.7747  0.5573 -0.6038
 5898TIP3    H139185   5.525   1.404   0.983 -0.5959 -0.0970  2.1317
 5898TIP3    H239186   5.404   1.378   1.071 -2.4487  3.5706  0.7743
 5899TIP3   OH239187   2.617   1.037  15.999 -0.4683  0.0087 -0.1443
 5899TIP3    H139188   2.611   1.111  16.059  0.6351  1.0095 -1.2169
 5899TIP3    H239189   2.577   0.964  16.045 -0.6820  1.0461  1.3273
 5900TIP3   OH239190   5.334   0.273   5.732  0.3643 -0.0195  0.3162
 5900TIP3    H139191   5.301   0.183   5.729  1.8598 -0.5924  0.4486
 5900TIP3    H239192   5.369   0.282   5.820 -2.7259  1.8045  1.4377
 5901TIP3   OH239193   3.281   1.219  12.156 -0.0896  0.1932 -0.4496
 5901TIP3    H139194   3.300   1.172  12.075  1.9108  2.0722 -1.1021
 5901TIP3    H239195   3.192   1.193  12.178  0.6851 -3.3502 -1.1596
 5902TIP3   OH239196   6.262   1.189  12.150  0.6885 -0.8293 -0.1720
 5902TIP3    H139197   6.331   1.202  12.215 -0.3354 -2.5734  1.3273
 5902TIP3    H239198   6.242   1.276  12.117  0.7568  0.1788  2.3930
 5903TIP3   OH239199   4.896   5.383  14.909 -0.1415 -0.0983 -0.0666
 5903TIP3    H139200   4.947   5.309  14.876 -2.2237 -1.5590 -0.1118
 5903TIP3    H239201   4.947   5.460  14.884  1.1213 -1.4304 -1.7410
 5904TIP3   OH239202   6.643   1.665  14.799 -0.0942 -0.2634  0.5177
 5904TIP3    H139203   6.582   1.724  14.754  1.6166  0.6933 -0.6332
 5904TIP3    H239204   6.707   1.642  14.731  1.4499 -0.3367  1.9753
 5905TIP3   OH239205   3.713   1.094  16.125 -0.0245 -0.7160  0.3148
 5905TIP3    H139206   3.650   1.128  16.061  0.7287 -0.2524 -0.1852
 5905TIP3    H239207   3.692   1.140  16.206 -0.2153 -0.4233  0.1024
 5906TIP3   OH239208   5.605   3.293  17.287  0.3923  0.1982  0.2340
 5906TIP3    H139209   5.544   3.334  17.225 -1.9528 -3.1711  0.1312
 5906TIP3    H239210   5.691   3.311  17.250 -0.8184  0.4688 -2.6668
 5907TIP3   OH239211   2.056   0.503  15.127 -0.1232  0.5023 -0.1296
 5907TIP3    H139212   1.964   0.522  15.112 -0.1158  1.4160  0.8992
 5907TIP3    H239213   2.091   0.483  15.041 -1.6652 -1.5834 -0.2966
 5908TIP3   OH239214   1.919   3.140   2.149 -0.2363  0.1832  0.2307
 5908TIP3    H139215   1.937   3.108   2.237 -1.0286  0.7044  0.5866
 5908TIP3    H239216   1.828   3.170   2.152  0.2059  1.6232 -0.3342
 5909TIP3   OH239217   5.774   4.956  12.051 -0.2773 -0.2203 -0.1665
 5909TIP3    H139218   5.818   4.901  12.116 -0.6004  0.3619  0.5519
 5909TIP3    H239219   5.777   5.044  12.089 -0.7594  0.0638 -0.7881
 5910TIP3   OH239220   2.452   4.965   3.080  0.1635  0.3457 -0.6814
 5910TIP3    H139221   2.402   5.046   3.079  0.2462  0.4134  0.1490
 5910TIP3    H239222   2.420   4.918   3.157 -0.3218 -0.6833 -1.5010
 5911TIP3   OH239223   2.641   2.715  15.487 -0.2232 -0.1691  0.2728
 5911TIP3    H139224   2.589   2.689  15.411 -0.3156  0.2841  0.1808
 5911TIP3    H239225   2.627   2.810  15.494  0.6886 -0.0251  0.1735
 5912TIP3   OH239226   3.490   2.703  17.224  0.0004 -0.2198 -0.2382
 5912TIP3    H139227   3.483   2.796  17.247  1.5683 -0.0946 -0.2103
 5912TIP3    H239228   3.435   2.658  17.289  0.6255  0.5439  0.8450
 5913TIP3   OH239229   2.146   5.644   1.311  0.2104 -0.1189  0.0935
 5913TIP3    H139230   2.156   5.601   1.226  1.8151  0.5555 -0.0769
 5913TIP3    H239231   2.103   5.578   1.366 -1.6291 -0.2562 -1.4623
 5914TIP3   OH239232   6.679   0.847  12.345  0.2037 -0.4038 -0.3884
 5914TIP3    H139233   6.733   0.798  12.283 -0.8984 -1.9850 -0.0995
 5914TIP3    H239234   6.659   0.785  12.415 -1.3468  0.3957 -0.0955
 5915TIP3   OH239235   3.991   5.971  13.558 -0.7000 -0.4008 -0.5441
 5915TIP3    H139236   3.982   6.043  13.620 -0.7714 -1.0276  0.1861
 5915TIP3    H239237   3.967   6.008  13.474  2.8160  1.4335 -0.8190
 5916TIP3   OH239238   1.057   5.217   0.298  0.0312  0.0082 -0.5236
 5916TIP3    H139239   1.031   5.287   0.239 -2.8561 -0.0045  0.6660
 5916TIP3    H239240   1.076   5.143   0.241 -2.3251  0.1110 -1.5023
 5917TIP3   OH239241   3.970   3.617   5.650  0.0021 -0.2748  0.3699
 5917TIP3    H139242   4.043   3.640   5.592 -0.6906  1.0713 -0.0083
 5917TIP3    H239243   3.977   3.523   5.662  0.4998 -0.4976 -1.4655
 5918TIP3   OH239244   0.166   3.343   4.225  0.4089  0.1307  0.2293
 5918TIP3    H139245   0.124   3.429   4.227  2.1282  0.9763  0.4267
 5918TIP3    H239246   0.166   3.314   4.316 -1.2369 -0.6399  0.0183
 5919TIP3   OH239247   4.656   6.092  13.257  0.3428  0.8170 -0.1301
 5919TIP3    H139248   4.605   6.051  13.188 -0.0489  0.8978  0.1084
 5919TIP3    H239249   4.718   6.025  13.286  0.0857  0.5791 -0.1317
 5920TIP3   OH239250   5.521   4.192   3.768  0.1652  0.2065  0.3048
 5920TIP3    H139251   5.499   4.235   3.685 -0.7627  2.2832  1.5996
 5920TIP3    H239252   5.441   4.144   3.792  1.0200 -1.8884 -0.8610
 5921TIP3   OH239253   6.524   5.335  16.034 -0.0010 -0.3861  0.0719
 5921TIP3    H139254   6.570   5.419  16.041 -2.2996  1.2165 -3.1634
 5921TIP3    H239255   6.465   5.334  16.109  0.6205  0.4840  0.5844
 5922TIP3   OH239256   5.801   6.155   5.667 -0.0280 -0.4206  0.3164
 5922TIP3    H139257   5.744   6.226   5.636  1.3603  0.8503  0.5767
 5922TIP3    H239258   5.841   6.121   5.587 -0.4683 -0.7150  0.2191
 5923TIP3   OH239259   4.248   2.788  13.349 -0.0851  0.3459 -0.1790
 5923TIP3    H139260   4.341   2.781  13.372 -0.0245  0.9276 -0.2332
 5923TIP3    H239261   4.248   2.796  13.253 -0.1791  0.4976 -0.1667
 5924TIP3   OH239262   6.418   2.135   1.723 -0.1459  0.3269 -0.6567
 5924TIP3    H139263   6.384   2.222   1.746 -1.8915 -0.2020 -1.1541
 5924TIP3    H239264   6.506   2.134   1.761 -1.4850  0.9228  2.7139
 5925TIP3   OH239265   6.324   1.482   4.602 -0.0660  0.4457  0.1209
 5925TIP3    H139266   6.331   1.461   4.509 -2.2275 -3.3269  0.7170
 5925TIP3    H239267   6.411   1.516   4.626  1.1364 -0.4301 -2.8146
 5926TIP3   OH239268   2.278   2.991   2.690 -0.2803  0.0319 -0.6954
 5926TIP3    H139269   2.306   3.003   2.781 -0.4716  0.3276 -0.6739
 5926TIP3    H239270   2.230   3.071   2.669 -1.7910 -0.7975 -0.4705
 5927TIP3   OH239271   5.402   6.277  13.428 -0.2730  0.0545  0.3217
 5927TIP3    H139272   5.474   6.332  13.458 -0.7560  0.8166  0.0991
 5927TIP3    H239273   5.391   6.211  13.497  0.9500 -0.3667  0.1252
 5928TIP3   OH239274   3.472   4.383  14.790  0.3526 -0.2430 -0.1123
 5928TIP3    H139275   3.381   4.374  14.817  0.2039  1.9898  0.2753
 5928TIP3    H239276   3.518   4.408  14.870  1.0414  0.0706 -0.6042
 5929TIP3   OH239277   5.625   2.898   4.496  0.0782 -0.7023  0.3221
 5929TIP3    H139278   5.593   2.831   4.556 -1.6148  0.3484  0.6434
 5929TIP3    H239279   5.603   2.981   4.539  1.3174  0.0548 -0.4795
 5930TIP3   OH239280   0.167   0.581  12.853  0.1415  0.4266 -0.1211
 5930TIP3    H139281   0.261   0.595  12.840  0.2960 -1.2172 -0.8602
 5930TIP3    H239282   0.125   0.637  12.788  0.6175  0.6056 -0.2779
 5931TIP3   OH239283   0.233   2.070   1.617 -0.0677  0.3650  0.1564
 5931TIP3    H139284   0.318   2.038   1.586  1.0546  1.1619  2.3374
 5931TIP3    H239285   0.219   2.025   1.700 -1.3183  0.9885  0.2939
 5932TIP3   OH239286   2.824   2.268  14.295  0.3314  0.2181  0.7787
 5932TIP3    H139287   2.920   2.263  14.286  0.2998  0.1328  0.4816
 5932TIP3    H239288   2.807   2.246  14.386  0.4481 -1.7372  0.3465
 5933TIP3   OH239289   1.703   5.849   1.753  0.2756 -0.1168  0.2706
 5933TIP3    H139290   1.613   5.816   1.750 -0.5040  1.9100  0.5568
 5933TIP3    H239291   1.753   5.779   1.795 -0.9237 -1.7682 -0.9756
 5934TIP3   OH239292   4.182   1.645   6.448 -0.4594 -0.2425  0.2991
 5934TIP3    H139293   4.175   1.730   6.403  1.7156  0.6852  1.6574
 5934TIP3    H239294   4.207   1.584   6.379 -0.8768  0.4403 -0.4705
 5935TIP3   OH239295   3.135   3.019   3.438  0.0464  0.5416  0.0331
 5935TIP3    H139296   3.164   2.949   3.379  0.8018  0.4950  0.4454
 5935TIP3    H239297   3.164   2.990   3.525 -4.9002 -1.5224  1.1502
 5936TIP3   OH239298   6.094   3.185  13.129 -0.1438 -0.2293 -0.3289
 5936TIP3    H139299   6.090   3.110  13.188  0.2648 -0.5093 -0.6563
 5936TIP3    H239300   6.185   3.213  13.133 -0.1481 -0.1662 -0.7309
 5937TIP3   OH239301   2.468   3.431  13.350  0.0859  0.0957 -0.1078
 5937TIP3    H139302   2.376   3.455  13.336 -0.4073 -0.9957  1.1594
 5937TIP3    H239303   2.467   3.377  13.429  1.8535  0.2632  0.0516
 5938TIP3   OH239304   6.651   6.466  16.945  0.3236  0.0489  0.1859
 5938TIP3    H139305   6.662   6.452  17.039  0.8505  3.0395  0.6066
 5938TIP3    H239306   6.733   6.435  16.907  0.3542 -0.5968  0.7573
 5939TIP3   OH239307   2.750   6.816   2.361  0.4126  0.0005  0.1178
 5939TIP3    H139308   2.735   6.766   2.281  1.4705 -4.8569  2.7053
 5939TIP3    H239309   2.840   6.848   2.353  0.3387 -0.0362 -0.8775
 5940TIP3   OH239310   1.517   4.711   2.342 -0.6388 -0.1524 -0.9414
 5940TIP3    H139311   1.590   4.664   2.301 -0.9529 -0.3379 -1.2903
 5940TIP3    H239312   1.530   4.802   2.317  0.5510  0.1135  0.5862
 5941TIP3   OH239313   3.284   6.272   2.969  0.7533  0.0602  0.0906
 5941TIP3    H139314   3.259   6.327   3.043  0.0455 -0.1799  0.0350
 5941TIP3    H239315   3.309   6.189   3.008 -1.3389 -0.6722 -0.0437
 5942TIP3   OH239316   5.341   3.411   6.400 -0.0308 -0.3232  0.3650
 5942TIP3    H139317   5.337   3.316   6.387  1.3953 -0.4612  0.8396
 5942TIP3    H239318   5.427   3.436   6.364 -0.8637  0.9534 -0.7699
 5943TIP3   OH239319   4.540   3.395   0.027  0.0209  0.6252  0.2484
 5943TIP3    H139320   4.542   3.405  -0.068 -1.0393 -1.6121 -0.0305
 5943TIP3    H239321   4.447   3.402   0.050 -0.0038 -1.4004  0.8074
 5944TIP3   OH239322   0.201   2.660  14.989 -0.2743 -0.1328  0.3465
 5944TIP3    H139323   0.188   2.644  14.895  1.2540  0.5250 -0.0019
 5944TIP3    H239324   0.132   2.722  15.013 -0.1403  0.3848 -0.5595
 5945TIP3   OH239325   0.009   5.866  13.469 -0.0443 -0.0832 -0.7685
 5945TIP3    H139326  -0.030   5.817  13.397 -0.8847  1.7026 -1.5737
 5945TIP3    H239327  -0.033   5.952  13.464 -1.2038 -0.3576  2.7611
 5946TIP3   OH239328   4.602   5.549   5.004  0.9220 -0.0706  0.0311
 5946TIP3    H139329   4.682   5.500   5.026  0.3225 -0.6013  1.0819
 5946TIP3    H239330   4.535   5.482   4.996  0.6532  0.3423 -1.2285
 5947TIP3   OH239331   4.953   3.478  16.447 -0.6736 -0.6285 -0.1944
 5947TIP3    H139332   4.906   3.520  16.519 -0.2879 -0.5346  0.0010
 5947TIP3    H239333   4.898   3.494  16.370 -1.2543 -1.0144  0.1345
 5948TIP3   OH239334   1.637   4.090   4.823  0.4268  0.7435 -0.3177
 5948TIP3    H139335   1.555   4.053   4.854 -0.3444  1.7403 -1.1229
 5948TIP3    H239336   1.612   4.173   4.782  1.9590  1.6082  0.4179
 5949TIP3   OH239337   2.303   1.862  17.283 -0.0987 -0.2354 -0.1989
 5949TIP3    H139338   2.342   1.812  17.354  1.2456  1.1052  0.0389
 5949TIP3    H239339   2.348   1.831  17.204 -0.7750 -0.9013 -0.3269
 5950TIP3   OH239340   5.935   4.194   0.354 -0.3527  0.1157  0.0613
 5950TIP3    H139341   5.855   4.167   0.309 -1.0790  0.2108  1.2579
 5950TIP3    H239342   5.927   4.289   0.362 -0.6618  0.0088  1.1573
 5951TIP3   OH239343   4.208   1.690  14.336  0.6941 -0.4878  0.1023
 5951TIP3    H139344   4.206   1.786  14.340 -1.2018 -0.4491 -1.1148
 5951TIP3    H239345   4.267   1.665  14.406  1.9744  1.6125 -0.1630
 5952TIP3   OH239346   4.235   4.048   3.173 -0.3812  0.3632  0.3071
 5952TIP3    H139347   4.308   4.003   3.215  0.0948  1.1539  0.3485
 5952TIP3    H239348   4.157   4.016   3.217 -0.2248 -1.8851 -0.9786
 5953TIP3   OH239349   5.237   2.636  15.336  0.1425 -0.3391 -0.3319
 5953TIP3    H139350   5.181   2.640  15.414 -0.0710  0.8814 -0.5390
 5953TIP3    H239351   5.323   2.611  15.369 -0.2096 -0.9181  0.1566
 5954TIP3   OH239352   1.989   1.162   3.691 -0.2095 -0.0140  0.7449
 5954TIP3    H139353   2.027   1.172   3.778 -1.1757 -0.3267  1.2073
 5954TIP3    H239354   1.898   1.135   3.707  0.1220 -1.8765 -0.3737
 5955TIP3   OH239355   0.427   5.134   3.688  0.1381  0.0746  0.2235
 5955TIP3    H139356   0.436   5.227   3.708 -1.5275  0.3850 -0.3751
 5955TIP3    H239357   0.424   5.130   3.592 -0.9338 -0.4553  0.2638
 5956TIP3   OH239358   3.602   0.203  13.391  0.2084  0.9346 -0.3814
 5956TIP3    H139359   3.634   0.275  13.446  0.7076 -0.1370  0.7716
 5956TIP3    H239360   3.679   0.146  13.379 -0.4493  0.0143 -0.3186
 5957TIP3   OH239361   1.433   3.210   0.771  0.0277  0.6091 -0.2578
 5957TIP3    H139362   1.402   3.121   0.752  3.2346 -0.5600 -0.2116
 5957TIP3    H239363   1.365   3.247   0.827 -1.6329 -1.5865 -0.7313
 5958TIP3   OH239364   2.392   5.922  14.165  0.5374  0.1959  0.2497
 5958TIP3    H139365   2.356   6.007  14.138 -1.4891 -0.7599 -0.2108
 5958TIP3    H239366   2.422   5.882  14.084 -0.1766 -0.2566  0.2001
 5959TIP3   OH239367   5.425   3.396   5.378 -0.1375  0.5324  0.6370
 5959TIP3    H139368   5.376   3.465   5.423  0.1068 -0.4092  2.3746
 5959TIP3    H239369   5.362   3.357   5.317 -0.8266  0.9911  1.0525
 5960TIP3   OH239370   0.115   6.012   3.646 -0.5390 -0.0843  0.3944
 5960TIP3    H139371   0.055   5.991   3.575  1.2503 -2.5520 -0.4615
 5960TIP3    H239372   0.167   6.086   3.614 -2.6624  1.7018  0.9265
 5961TIP3   OH239373   0.266   2.990   4.515  0.0525 -0.2068  0.4669
 5961TIP3    H139374   0.290   2.907   4.556  1.4785  0.5533  1.1935
 5961TIP3    H239375   0.170   2.993   4.520  0.0688 -1.2549  1.5159
 5962TIP3   OH239376   2.114   5.896  17.207  0.1505  0.2429 -0.3564
 5962TIP3    H139377   2.122   5.805  17.238 -1.0686 -0.7337 -2.7757
 5962TIP3    H239378   2.194   5.911  17.156 -0.4511 -0.0649 -1.3946
 5963TIP3   OH239379   4.924   1.671   2.704  0.0022 -0.2930 -0.0296
 5963TIP3    H139380   4.840   1.678   2.751 -0.3593 -0.9600 -0.5517
 5963TIP3    H239381   4.959   1.586   2.732 -0.3978 -0.8763 -1.2316
 5964TIP3   OH239382   5.281   1.016   1.166  0.5023 -0.7190 -0.2970
 5964TIP3    H139383   5.349   1.079   1.192  0.1038 -0.3549 -0.1227
 5964TIP3    H239384   5.206   1.038   1.222  0.1448 -0.9236 -0.6938
 5965TIP3   OH239385   6.599   1.360  16.489 -0.3965  0.1376  0.6794
 5965TIP3    H139386   6.548   1.280  16.490  1.0039 -0.7667  0.9894
 5965TIP3    H239387   6.539   1.427  16.521 -1.9156 -0.5597 -0.6527
 5966TIP3   OH239388   1.206   2.439  16.276 -0.0751  0.8055  0.1257
 5966TIP3    H139389   1.127   2.392  16.246  0.4604  0.7330 -1.2158
 5966TIP3    H239390   1.231   2.395  16.356  0.4156 -1.2443 -1.1118
 5967TIP3   OH239391   6.617   1.541   2.034 -0.7147  0.0455 -0.0204
 5967TIP3    H139392   6.527   1.520   2.061 -0.7710 -0.1187 -0.3408
 5967TIP3    H239393   6.672   1.483   2.086 -0.9977 -3.2035 -3.1703
 5968TIP3   OH239394   0.093   4.309  12.864  0.2907 -0.2382 -0.2261
 5968TIP3    H139395   0.130   4.268  12.943 -1.7933 -2.1260 -0.1754
 5968TIP3    H239396   0.054   4.391  12.896 -1.2454 -1.3660  0.9090
 5969TIP3   OH239397   1.011   0.534   4.521  0.4884  0.7485 -0.5106
 5969TIP3    H139398   1.099   0.498   4.533  0.5439  1.3262  0.9964
 5969TIP3    H239399   1.024   0.629   4.521 -0.2964  0.8883  1.4714
 5970TIP3   OH239400   4.919   2.865   0.594  0.1166  0.1375 -0.1018
 5970TIP3    H139401   4.977   2.850   0.668  0.9079  0.2803 -0.6804
 5970TIP3    H239402   4.831   2.866   0.631  0.4364 -0.8042  0.6730
 5971TIP3   OH239403   2.915   1.760   2.748  0.6669 -0.0681 -0.1740
 5971TIP3    H139404   2.859   1.784   2.675 -0.2377 -0.8576  0.2468
 5971TIP3    H239405   3.001   1.793   2.725 -0.6174  4.1286  0.6437
 5972TIP3   OH239406   3.452   1.125   1.126 -0.1448  0.8453 -0.1280
 5972TIP3    H139407   3.368   1.144   1.168 -0.4536  0.8681 -0.7509
 5972TIP3    H239408   3.439   1.148   1.034  0.0693 -0.6043 -0.5308
 5973TIP3   OH239409   6.329   3.706   6.348  0.1833  0.3837  0.0166
 5973TIP3    H139410   6.326   3.618   6.384  0.4772 -0.3365 -1.6912
 5973TIP3    H239411   6.373   3.697   6.264  1.0676  2.3069  0.2303
 5974TIP3   OH239412   5.877   3.015   1.611  0.9103  0.5969  0.6136
 5974TIP3    H139413   5.892   2.973   1.526  1.6298  0.9904  0.5415
 5974TIP3    H239414   5.943   3.084   1.615  0.2349  1.2190  1.0647
 5975TIP3   OH239415   6.006   5.392  11.658 -0.5233  0.0920  0.1782
 5975TIP3    H139416   5.947   5.345  11.717  0.1239 -1.0959 -0.0911
 5975TIP3    H239417   5.959   5.394  11.575 -0.2159 -0.8437 -0.0327
 5976TIP3   OH239418   6.704   3.691   1.884  0.2262  0.0810 -0.1694
 5976TIP3    H139419   6.675   3.677   1.794 -0.4316  0.1718  0.0309
 5976TIP3    H239420   6.737   3.781   1.885  0.4309  0.0086 -0.3700
 5977TIP3   OH239421   0.506   0.805   0.227 -0.6343  0.2092  0.1383
 5977TIP3    H139422   0.472   0.822   0.315  1.6668 -1.3712  1.4168
 5977TIP3    H239423   0.484   0.714   0.210  0.5231 -0.0372 -0.1288
 5978TIP3   OH239424   4.616   5.877  14.514 -0.0795 -0.0140  0.0785
 5978TIP3    H139425   4.597   5.903  14.424 -0.7368  0.3122  0.3105
 5978TIP3    H239426   4.633   5.783  14.509  1.0154  0.2115 -0.5631
 5979TIP3   OH239427   2.826   2.951  15.776  0.3519 -0.3762  0.3693
 5979TIP3    H139428   2.886   3.018  15.808  0.2155  0.6845 -1.5195
 5979TIP3    H239429   2.756   2.948  15.841  1.6415 -0.5206  1.7842
 5980TIP3   OH239430   5.080   0.587   5.002  0.4973 -0.0428  0.1453
 5980TIP3    H139431   4.989   0.578   5.028 -0.0969  0.5758 -1.6641
 5980TIP3    H239432   5.106   0.499   4.974  1.0661 -0.6537  2.5063
 5981TIP3   OH239433   5.948   3.386  12.429 -0.5357 -0.0544 -0.3540
 5981TIP3    H139434   5.859   3.389  12.464 -0.6633  1.4087 -0.7743
 5981TIP3    H239435   6.002   3.424  12.498 -0.6954  2.1805 -1.4308
 5982TIP3   OH239436   2.187   4.601   2.399  0.2271  0.3090 -0.1300
 5982TIP3    H139437   2.208   4.537   2.332  0.9487 -0.4020  0.7616
 5982TIP3    H239438   2.094   4.619   2.387  0.3548  0.1849 -1.3123
 5983TIP3   OH239439   1.124   5.747  16.462 -0.3461 -0.4135 -0.0558
 5983TIP3    H139440   1.214   5.722  16.483  0.5155  2.5347  0.0893
 5983TIP3    H239441   1.097   5.800  16.537 -2.1700 -1.1671 -0.1649
 5984TIP3   OH239442   1.341   6.403   1.274 -0.1354  0.8234 -0.4773
 5984TIP3    H139443   1.325   6.308   1.278 -1.6602  0.9408 -2.9650
 5984TIP3    H239444   1.275   6.440   1.332  1.0489  0.3559  1.2355
 5985TIP3   OH239445   4.017   3.244  11.727  0.6441  0.3443  0.7139
 5985TIP3    H139446   3.947   3.188  11.760  1.2060 -0.5899  0.3299
 5985TIP3    H239447   3.972   3.310  11.674 -0.2102  1.4935  2.7918
 5986TIP3   OH239448   0.856   0.483  11.374  0.2419  0.3655 -0.1737
 5986TIP3    H139449   0.895   0.490  11.461 -0.4479  0.0164  0.1659
 5986TIP3    H239450   0.798   0.560  11.367 -2.3067 -1.3961  1.0094
 5987TIP3   OH239451   6.496   2.867  14.231 -0.3156 -0.3450  0.3678
 5987TIP3    H139452   6.471   2.959  14.241  2.0497  0.3136  0.7616
 5987TIP3    H239453   6.591   2.870  14.217 -0.1559 -2.7480  0.6590
 5988TIP3   OH239454   3.964   4.471  14.528  0.3247 -0.2954  0.6542
 5988TIP3    H139455   4.012   4.402  14.484 -2.2235 -2.0762  0.6016
 5988TIP3    H239456   4.007   4.480  14.613  1.2071 -1.3215  0.3168
 5989TIP3   OH239457   3.749   0.504   3.033 -0.1519 -0.5062 -0.6025
 5989TIP3    H139458   3.780   0.591   3.058  1.7150 -0.9242 -1.3060
 5989TIP3    H239459   3.698   0.519   2.953 -1.7405  0.2042  0.5440
 5990TIP3   OH239460   6.142   2.837  14.626 -0.6453 -0.2824  0.0772
 5990TIP3    H139461   6.154   2.813  14.534 -1.2339 -1.2896  0.2483
 5990TIP3    H239462   6.056   2.879  14.629 -0.8464 -0.6925  0.2330
 5991TIP3   OH239463   0.475   5.564  11.761  0.1346 -0.3121 -0.6499
 5991TIP3    H139464   0.539   5.496  11.740  1.0564  0.3240  0.0293
 5991TIP3    H239465   0.400   5.546  11.705 -0.1587 -2.6696  0.4477
 5992TIP3   OH239466   0.831   4.059   1.979  0.3680 -0.4897  0.1451
 5992TIP3    H139467   0.841   3.965   1.989 -2.5793 -0.9589 -0.7542
 5992TIP3    H239468   0.885   4.082   1.904 -0.3722 -1.7815 -0.7938
 5993TIP3   OH239469   2.251   3.127   2.333 -0.1376  0.7065  0.0468
 5993TIP3    H139470   2.205   3.103   2.253 -1.6374  1.1997  0.7327
 5993TIP3    H239471   2.307   3.051   2.352  0.0418  0.4871 -1.3212
 5994TIP3   OH239472   2.080   5.234  15.014  0.4263 -0.2344 -0.5274
 5994TIP3    H139473   2.173   5.228  15.038  0.1471 -0.7309  0.4504
 5994TIP3    H239474   2.050   5.315  15.056  0.6804  0.5186 -1.7700
 5995TIP3   OH239475   5.275   3.856  11.324  0.2103 -0.1754 -0.5096
 5995TIP3    H139476   5.341   3.917  11.290 -0.5588  0.1736 -1.3901
 5995TIP3    H239477   5.312   3.769  11.308 -0.1957 -0.0225 -2.3904
 5996TIP3   OH239478   6.749   6.655  15.691 -0.2507  0.4074 -0.0540
 5996TIP3    H139479   6.679   6.637  15.753  1.3723  1.1427  2.0355
 5996TIP3    H239480   6.781   6.742  15.714 -1.0821  1.6777 -3.3741
 5997TIP3   OH239481   6.744   1.026   4.746 -0.1603  0.0166  0.4264
 5997TIP3    H139482   6.803   1.101   4.755 -0.9586  0.6779  0.2052
 5997TIP3    H239483   6.659   1.064   4.723 -0.6511 -0.9330  0.6159
 5998TIP3   OH239484   5.245   4.877   2.104 -0.0016  0.3753  0.2686
 5998TIP3    H139485   5.306   4.807   2.128 -0.6065  0.0904  1.0169
 5998TIP3    H239486   5.201   4.900   2.187  1.8052  3.2225  0.5264
 5999TIP3   OH239487   3.672   4.484   0.966  0.6666  0.1918 -0.5379
 5999TIP3    H139488   3.715   4.533   0.896  0.1378  1.2155 -0.1567
 5999TIP3    H239489   3.596   4.444   0.925  0.5995  0.4339 -0.6479
 6000TIP3   OH239490   1.047   1.407   0.208 -0.0280 -0.4221 -0.5953
 6000TIP3    H139491   1.024   1.468   0.138  1.0617  0.7220  0.0139
 6000TIP3    H239492   1.125   1.362   0.175 -1.0998 -1.8374 -1.2369
 6001TIP3   OH239493   6.177   4.634  10.854 -0.4720 -0.0103 -0.2502
 6001TIP3    H139494   6.180   4.730  10.855 -0.9582  0.0072 -0.4405
 6001TIP3    H239495   6.114   4.611  10.922 -0.6256 -0.1807 -0.4465
 6002TIP3   OH239496   3.133   4.519  12.597  0.5156 -0.1320  0.2883
 6002TIP3    H139497   3.098   4.520  12.686  1.5556 -0.2854  0.7089
 6002TIP3    H239498   3.151   4.427  12.579  0.7678 -0.0486  0.1092
 6003TIP3   OH239499   3.924   5.395   5.499  0.4014 -0.8319  0.2863
 6003TIP3    H139500   3.866   5.322   5.476 -2.3025  1.5755 -0.7369
 6003TIP3    H239501   3.886   5.431   5.579 -0.8911  2.1839 -1.6385
 6004TIP3   OH239502   3.657   3.811   3.369 -0.3348 -0.1159  0.1983
 6004TIP3    H139503   3.726   3.850   3.423  0.8301 -1.4795 -0.2589
 6004TIP3    H239504   3.584   3.797   3.429 -1.0806  3.4222  0.2108
 6005TIP3   OH239505   6.371   2.152  16.118 -0.3888  0.4843 -0.2270
 6005TIP3    H139506   6.352   2.105  16.199 -1.6662 -1.7914 -1.7656
 6005TIP3    H239507   6.339   2.094  16.049  0.4054  2.4858 -2.3571
 6006TIP3   OH239508   5.606   2.613  13.988 -0.0196  0.2893 -0.3485
 6006TIP3    H139509   5.621   2.707  13.983 -0.9074  0.4974  0.5759
 6006TIP3    H239510   5.563   2.591  13.906  0.1139  0.7120 -0.5310
 6007TIP3   OH239511   4.617   6.596   4.616 -0.3312  0.6969  0.0211
 6007TIP3    H139512   4.559   6.624   4.687  0.5559  1.7031  0.3565
 6007TIP3    H239513   4.690   6.658   4.619  1.3849 -1.2694  0.3996
 6008TIP3   OH239514   5.533   3.534  14.768 -0.7170 -0.1276 -0.2587
 6008TIP3    H139515   5.513   3.510  14.859 -0.8639 -0.5088 -0.3945
 6008TIP3    H239516   5.449   3.530  14.723 -1.0239  2.0722  0.0356
 6009TIP3   OH239517   5.599   0.008  15.000  0.3365 -0.1340 -0.3245
 6009TIP3    H139518   5.585  -0.019  14.909  1.5863 -1.5694 -0.1123
 6009TIP3    H239519   5.641  -0.068  15.041 -0.2379  0.4917  1.4646
 6010TIP3   OH239520   5.438   2.810  12.450 -0.0490  0.4606  0.2684
 6010TIP3    H139521   5.400   2.790  12.365  0.4520 -1.0726  0.3784
 6010TIP3    H239522   5.376   2.872  12.490 -0.3164  1.1369 -1.1656
 6011TIP3   OH239523   4.255   1.386  10.878 -0.1300  0.3267 -0.3136
 6011TIP3    H139524   4.172   1.346  10.850 -0.5554  0.2127  1.0673
 6011TIP3    H239525   4.309   1.312  10.905 -0.0017  0.4953 -0.1115
 6012TIP3   OH239526   6.663   2.580   0.466 -0.2881 -0.3874  0.3187
 6012TIP3    H139527   6.636   2.524   0.538  0.6684 -2.2934 -0.7463
 6012TIP3    H239528   6.758   2.583   0.473 -0.2657  0.2362 -0.2582
 6013TIP3   OH239529   6.765   0.536   3.197  0.5962  0.3098 -0.5773
 6013TIP3    H139530   6.842   0.534   3.254  0.6570  2.4347 -0.5520
 6013TIP3    H239531   6.753   0.628   3.175 -0.9703 -0.1764 -1.9278
 6014TIP3   OH239532   5.039   4.743  16.990 -0.0555  0.0699 -0.1310
 6014TIP3    H139533   4.956   4.695  16.996  0.1645 -0.4723 -1.2952
 6014TIP3    H239534   5.101   4.680  16.953  0.9587  0.3798  0.9752
 6015TIP3   OH239535   4.000   1.514  15.462  0.3392  0.6328  0.0022
 6015TIP3    H139536   3.954   1.493  15.544  1.2598 -4.1713 -0.5476
 6015TIP3    H239537   4.064   1.580  15.487  0.5501 -0.6493  3.2134
 6016TIP3   OH239538   1.064   3.680  13.879 -0.0376  0.2548  0.1953
 6016TIP3    H139539   1.136   3.630  13.916 -0.0968 -0.3582 -0.4985
 6016TIP3    H239540   1.094   3.770  13.879  1.7383 -0.3025 -2.4429
 6017TIP3   OH239541   6.691   1.952  12.497  0.1139 -0.7235 -0.2819
 6017TIP3    H139542   6.632   1.991  12.562 -0.7393  1.1175 -2.0954
 6017TIP3    H239543   6.759   2.017  12.484  1.1867 -1.7869 -0.0331
 6018TIP3   OH239544   5.764   4.921   4.916  0.3247 -0.1632 -0.3379
 6018TIP3    H139545   5.854   4.951   4.930  0.1820  0.4442 -0.6737
 6018TIP3    H239546   5.734   4.972   4.841 -0.6852  0.4910  0.4950
 6019TIP3   OH239547   1.467   1.616  11.390  0.0109  0.3056  0.8118
 6019TIP3    H139548   1.382   1.574  11.402  1.1335 -2.6031 -0.9754
 6019TIP3    H239549   1.458   1.666  11.309  1.2323 -3.5007 -1.7922
 6020TIP3   OH239550   0.108   3.477  11.591  0.0457 -0.3033 -0.0996
 6020TIP3    H139551   0.033   3.418  11.580 -0.4199  0.3733 -0.6106
 6020TIP3    H239552   0.185   3.420  11.580 -0.3892 -0.9641  0.2351
 6021TIP3   OH239553   0.012   4.352  16.634  0.3086 -0.7156  0.0191
 6021TIP3    H139554   0.018   4.279  16.696  1.4450 -0.6869 -0.0434
 6021TIP3    H239555   0.075   4.330  16.565  1.4283  0.7955  0.5173
 6022TIP3   OH239556   4.961   1.686  10.508 -0.2644 -0.0905  0.5152
 6022TIP3    H139557   4.976   1.773  10.545  1.3750 -0.2331  0.2537
 6022TIP3    H239558   5.023   1.629  10.555  0.0606 -0.7407 -0.6619
 6023TIP3   OH239559   0.673   5.052   5.332 -0.0946 -0.9289  0.5507
 6023TIP3    H139560   0.719   5.040   5.250 -0.9408 -0.8800  0.0586
 6023TIP3    H239561   0.721   4.999   5.395  0.5581 -0.9618  0.0234
 6024TIP3   OH239562   5.035   5.786  12.115 -0.5623  0.4286  0.3981
 6024TIP3    H139563   5.129   5.807  12.115 -0.4763  0.1844 -1.9083
 6024TIP3    H239564   5.024   5.726  12.189  1.6290 -1.6229 -0.8361
 6025TIP3   OH239565   2.827   6.402  12.616  0.3079  0.2977  0.0660
 6025TIP3    H139566   2.767   6.458  12.567  0.1907 -0.6663 -0.9172
 6025TIP3    H239567   2.902   6.458  12.635 -0.5096  1.2530  0.5274
 6026TIP3   OH239568   1.112   5.074   0.081  0.1272  0.1244  0.3414
 6026TIP3    H139569   1.205   5.070   0.060 -0.1485  0.6459 -1.0324
 6026TIP3    H239570   1.068   5.087  -0.004 -1.0235  2.1711  1.1978
 6027TIP3   OH239571   0.702   3.431  12.311  0.3801  0.6632  0.0780
 6027TIP3    H139572   0.628   3.403  12.366  1.8344 -2.0874  0.7178
 6027TIP3    H239573   0.753   3.489  12.367 -1.0817  2.3767 -0.2804
 6028TIP3   OH239574   3.607   5.118  12.581  0.1177 -0.4884 -0.0555
 6028TIP3    H139575   3.541   5.089  12.518 -0.7833 -0.0329  0.6632
 6028TIP3    H239576   3.580   5.078  12.664  0.7378 -0.2764  0.2514
 6029TIP3   OH239577   5.417   6.652  16.755 -0.3505  0.2517 -0.2523
 6029TIP3    H139578   5.328   6.655  16.790 -0.8732 -0.1601 -1.5212
 6029TIP3    H239579   5.473   6.672  16.830 -1.4466 -0.6038  0.8017
 6030TIP3   OH239580   3.915   6.311  13.717  0.1474 -0.2155  0.1811
 6030TIP3    H139581   3.883   6.253  13.786  0.5198  0.1536  0.6653
 6030TIP3    H239582   3.854   6.384  13.716  0.6708  0.2263  0.7405
 6031TIP3   OH239583   1.508   5.835   0.954  0.3081  0.0336  0.4761
 6031TIP3    H139584   1.578   5.770   0.947  0.5853  0.1856  1.7364
 6031TIP3    H239585   1.500   5.851   1.048 -0.7328  0.7656  0.2630
 6032TIP3   OH239586   5.698   5.542   1.576 -0.1243 -0.4146 -0.8536
 6032TIP3    H139587   5.605   5.561   1.589 -0.3730 -1.7079 -0.7171
 6032TIP3    H239588   5.717   5.577   1.489 -0.6598  0.1157 -0.7644
 6033TIP3   OH239589   6.793   3.279  13.311  0.2454 -0.1613 -0.5131
 6033TIP3    H139590   6.703   3.245  13.314  0.4916 -0.8034 -0.1869
 6033TIP3    H239591   6.792   3.345  13.243 -0.4563 -0.2422 -0.5804
 6034TIP3   OH239592   2.478   0.087  16.478  0.4163 -0.2112 -0.2430
 6034TIP3    H139593   2.471   0.031  16.555  0.6866 -1.8881 -1.4020
 6034TIP3    H239594   2.391   0.086  16.439  1.1824 -2.4991 -2.0372
 6035TIP3   OH239595   0.839   1.576   0.997  0.2278  0.5170 -0.2659
 6035TIP3    H139596   0.848   1.539   0.909 -0.2862 -1.9843  0.7013
 6035TIP3    H239597   0.927   1.608   1.018  0.5512  0.3706 -1.3625
 6036TIP3   OH239598   5.083   1.451   0.557 -0.1820  0.1712 -0.1760
 6036TIP3    H139599   5.098   1.357   0.560  2.0737  0.5216  2.6309
 6036TIP3    H239600   5.001   1.464   0.606 -1.6074 -0.4648 -2.3374
 6037TIP3   OH239601   3.579   1.692  14.014  0.3970  0.2547 -0.0457
 6037TIP3    H139602   3.582   1.667  14.106 -1.9620  0.9512  0.2714
 6037TIP3    H239603   3.631   1.772  14.009 -0.1009  0.6382  0.8376
 6038TIP3   OH239604   4.002   2.886   0.011  0.1889 -0.4579 -0.9110
 6038TIP3    H139605   4.040   2.974   0.020 -2.0962  0.5499 -0.4638
 6038TIP3    H239606   3.994   2.873  -0.084 -1.3646  0.7547 -0.9902
 6039TIP3   OH239607   0.929   5.871   1.920  0.0610  0.2936 -0.5723
 6039TIP3    H139608   0.954   5.868   1.828  0.6963  0.2812 -0.4018
 6039TIP3    H239609   0.892   5.959   1.932 -0.5471  0.0988 -0.9649
 6040TIP3   OH239610   1.145   4.608   3.834 -0.0587  0.0619 -0.7486
 6040TIP3    H139611   1.141   4.515   3.812 -2.4264 -0.1486  0.4224
 6040TIP3    H239612   1.073   4.648   3.786  0.9835  1.3343 -1.3012
 6041TIP3   OH239613   4.416   3.887   0.157  0.0934 -0.1145  0.7726
 6041TIP3    H139614   4.328   3.884   0.195 -0.1795  0.4444  0.1904
 6041TIP3    H239615   4.417   3.966   0.104  0.7058 -0.5205  0.1651
 6042TIP3   OH239616   5.741   2.147  11.992 -0.1487 -0.3898  0.0715
 6042TIP3    H139617   5.776   2.069  11.948  1.6812  0.8893 -0.7895
 6042TIP3    H239618   5.795   2.156  12.071 -0.5045 -0.1125  0.2870
 6043TIP3   OH239619   4.741   4.974   5.245 -0.0971  0.3563  0.7713
 6043TIP3    H139620   4.822   4.970   5.295 -0.5669 -0.4620  1.4879
 6043TIP3    H239621   4.690   4.900   5.276 -0.3585 -0.2376 -1.0187
 6044TIP3   OH239622   4.242   5.814   3.569  1.0290 -0.4706 -0.3645
 6044TIP3    H139623   4.284   5.733   3.542  2.7085  0.2764 -0.0710
 6044TIP3    H239624   4.258   5.875   3.497  1.4848  0.1603  0.2558
 6045TIP3   OH239625   2.788   0.176  12.040  0.3557 -0.0760  0.9381
 6045TIP3    H139626   2.849   0.169  12.114 -1.2876 -0.5405  2.2973
 6045TIP3    H239627   2.706   0.204  12.080 -0.9093 -1.5845 -0.5505
 6046TIP3   OH239628   2.264   2.096  15.667 -0.1252 -0.6464 -0.3763
 6046TIP3    H139629   2.240   2.183  15.637  0.3890 -0.6614 -0.8261
 6046TIP3    H239630   2.251   2.039  15.591 -0.6779 -1.0059 -0.0233
 6047TIP3   OH239631   4.000   3.232   4.215  0.6199  0.4415 -0.3950
 6047TIP3    H139632   4.014   3.207   4.124 -0.5671 -2.0057  0.0505
 6047TIP3    H239633   3.906   3.250   4.220  0.2196 -1.8460  0.8661
 6048TIP3   OH239634   4.519   6.552   3.148 -0.4536 -0.3148 -0.2745
 6048TIP3    H139635   4.566   6.476   3.183  1.6147  1.2192  0.3456
 6048TIP3    H239636   4.464   6.515   3.078 -0.6849 -2.6102  1.0553
 6049TIP3   OH239637   0.237   0.685   3.325  0.4895  0.1152 -0.6626
 6049TIP3    H139638   0.306   0.724   3.379 -0.8196 -0.7334  1.7302
 6049TIP3    H239639   0.221   0.748   3.255  0.9696  2.1228  1.0069
 6050TIP3   OH239640   0.191   3.638  13.508  0.2028 -0.6478 -0.3615
 6050TIP3    H139641   0.211   3.591  13.427 -0.2855  0.2954 -1.0428
 6050TIP3    H239642   0.254   3.710  13.509  1.2054 -1.5244  0.8711
 6051TIP3   OH239643   6.495   2.427   6.752  0.3112 -0.3352  0.2810
 6051TIP3    H139644   6.581   2.441   6.711  0.7147  1.1429  1.5867
 6051TIP3    H239645   6.511   2.360   6.817  0.1928 -0.9698 -0.3382
 6052TIP3   OH239646   2.548   5.294   1.970 -0.1070 -0.5226 -0.1707
 6052TIP3    H139647   2.596   5.237   1.910 -0.5684 -0.2405 -0.8125
 6052TIP3    H239648   2.585   5.381   1.955 -0.0089 -0.5048  0.1782
 6053TIP3   OH239649   1.595   4.422  13.395 -0.1382  0.2028 -0.8063
 6053TIP3    H139650   1.681   4.424  13.353  0.2941  0.2585  0.0589
 6053TIP3    H239651   1.565   4.332  13.384  0.7003 -0.2163  0.1845
 6054TIP3   OH239652   1.689   4.453   0.313 -0.5329 -0.3883  0.3760
 6054TIP3    H139653   1.764   4.394   0.304 -1.8426 -2.4062  2.3386
 6054TIP3    H239654   1.615   4.406   0.276 -1.1005  1.0695 -0.3830
 6055TIP3   OH239655   3.926   1.722   5.424  0.4243 -0.1641  0.1527
 6055TIP3    H139656   3.841   1.677   5.427  0.9482 -1.1631  0.3838
 6055TIP3    H239657   3.905   1.812   5.403 -0.8672  0.0337  2.1111
 6056TIP3   OH239658   4.501   0.824  12.124  0.4567 -0.3149 -0.3527
 6056TIP3    H139659   4.519   0.836  12.031 -0.2012  0.3803 -0.4006
 6056TIP3    H239660   4.489   0.913  12.158 -0.5710 -0.6220  0.1285
 6057TIP3   OH239661   2.394   5.773  13.500  0.6643  0.2543 -0.4495
 6057TIP3    H139662   2.368   5.815  13.582  1.3553  1.8486 -1.0318
 6057TIP3    H239663   2.311   5.760  13.453  0.2349 -0.9139  0.5948
 6058TIP3   OH239664   2.867   3.863   2.296 -0.9410 -0.2271  0.1758
 6058TIP3    H139665   2.884   3.933   2.359 -0.2444  0.1058 -0.3711
 6058TIP3    H239666   2.793   3.895   2.244 -0.5434  0.1673 -0.1554
 6059TIP3   OH239667   4.834   0.127  13.805  0.1744  0.4302  0.1369
 6059TIP3    H139668   4.899   0.085  13.750 -0.6918 -1.2974  0.3911
 6059TIP3    H239669   4.869   0.119  13.894  1.5208  3.1216 -0.0870
 6060TIP3   OH239670   6.472   0.257  15.352  0.2728 -0.1312  0.6116
 6060TIP3    H139671   6.448   0.262  15.260  0.2155  0.7152  0.6621
 6060TIP3    H239672   6.546   0.316  15.361  0.7726 -0.8061  0.9583
 6061TIP3   OH239673   3.516   6.235  15.729  0.7029 -0.2539 -0.9873
 6061TIP3    H139674   3.462   6.260  15.803 -0.3943 -0.2907 -1.7633
 6061TIP3    H239675   3.602   6.273  15.748  0.5714 -0.7019  0.5323
 6062TIP3   OH239676   4.887   6.412   1.108 -0.6335 -0.5508 -0.6961
 6062TIP3    H139677   4.877   6.317   1.113  1.0331 -0.7147 -0.0441
 6062TIP3    H239678   4.937   6.427   1.028  0.7481 -0.3838  0.1794
 6063TIP3   OH239679   2.686   4.293  15.800  0.4225  0.2272 -0.2192
 6063TIP3    H139680   2.708   4.358  15.734  0.3851 -0.5159 -0.9648
 6063TIP3    H239681   2.765   4.286  15.854  0.8247  0.0332 -0.8409
 6064TIP3   OH239682   2.822   3.891  14.962  0.1413  0.3425  0.3595
 6064TIP3    H139683   2.912   3.858  14.966  1.3818  3.6301  1.3015
 6064TIP3    H239684   2.819   3.942  14.882 -0.2991  1.8126  1.2956
 6065TIP3   OH239685   5.566   5.088   5.454  0.5570 -0.2211  0.3285
 6065TIP3    H139686   5.565   5.134   5.538  1.2172 -0.5135  0.4996
 6065TIP3    H239687   5.578   5.156   5.389 -0.3780  0.0553  0.4370
 6066TIP3   OH239688   4.166   0.384  14.528  0.0492  0.5023  0.2817
 6066TIP3    H139689   4.134   0.424  14.608 -0.1414  0.4216  0.2446
 6066TIP3    H239690   4.199   0.298  14.555  1.9482  1.3092  0.6426
 6067TIP3   OH239691   5.314   4.063  17.205 -0.3106  0.0368 -0.5224
 6067TIP3    H139692   5.370   4.024  17.272 -0.0196  0.5384 -0.4686
 6067TIP3    H239693   5.358   4.145  17.182  0.5434 -0.9707 -2.6057
 6068TIP3   OH239694   1.589   1.630   3.106  0.0830  0.6264  0.7678
 6068TIP3    H139695   1.528   1.597   3.171 -0.0099  2.0843  1.4349
 6068TIP3    H239696   1.535   1.648   3.029  0.4767 -2.9099 -0.4319
 6069TIP3   OH239697   1.888   2.389   1.739 -0.7120 -0.2063  0.4072
 6069TIP3    H139698   1.921   2.412   1.826 -0.9844  1.5667  0.0789
 6069TIP3    H239699   1.796   2.416   1.741 -0.5947  0.3044 -0.5724
 6070TIP3   OH239700   5.584   2.425  12.698  0.3915 -0.0780 -0.1547
 6070TIP3    H139701   5.632   2.362  12.645  0.1638  1.1792 -1.9109
 6070TIP3    H239702   5.500   2.383  12.716  1.0079 -1.0725  0.3991
 6071TIP3   OH239703   3.399   1.273  11.202 -0.0146 -0.2740  0.2519
 6071TIP3    H139704   3.304   1.287  11.201 -0.0899 -0.8382 -0.4453
 6071TIP3    H239705   3.413   1.198  11.145  0.9593  0.4749 -0.5099
 6072TIP3   OH239706   2.171   2.544   4.316  0.3485 -0.4003 -0.1583
 6072TIP3    H139707   2.126   2.547   4.400  0.0965  0.7214 -0.3249
 6072TIP3    H239708   2.174   2.451   4.294 -0.1024 -0.6543  0.8061
 6073TIP3   OH239709   5.545   1.655   5.950 -0.1180  0.0919 -0.1567
 6073TIP3    H139710   5.561   1.591   5.880 -0.8930 -0.1476 -0.1214
 6073TIP3    H239711   5.450   1.669   5.948 -0.2298 -0.3909  1.2666
 6074TIP3   OH239712   4.253   6.597  11.235  0.2146 -0.2785 -0.2441
 6074TIP3    H139713   4.319   6.602  11.165 -0.1611 -0.3811 -0.6054
 6074TIP3    H239714   4.242   6.504  11.251  0.4881 -0.2461  0.1293
 6075TIP3   OH239715   5.467   5.751   2.482 -0.4493  0.5539 -0.0297
 6075TIP3    H139716   5.440   5.777   2.570 -1.4462 -1.1513  0.1928
 6075TIP3    H239717   5.392   5.771   2.427 -0.3511  0.3052 -0.2514
 6076TIP3   OH239718   6.357   1.882  15.974 -0.6640  0.2074 -0.2586
 6076TIP3    H139719   6.443   1.864  15.936 -0.7037  0.6878 -0.5776
 6076TIP3    H239720   6.354   1.828  16.053 -0.5036 -0.6509 -0.8279
 6077TIP3   OH239721   2.072   1.066  15.642 -0.3391  0.5737 -0.0429
 6077TIP3    H139722   2.015   1.102  15.710  1.3688  5.1903 -0.8806
 6077TIP3    H239723   2.160   1.095  15.667  1.1126 -2.5942 -1.1795
 6078TIP3   OH239724   1.459   0.811  12.235 -0.3005 -0.2750  0.4406
 6078TIP3    H139725   1.504   0.884  12.192  1.4684 -1.2010  0.6777
 6078TIP3    H239726   1.466   0.831  12.329 -1.1814  0.0281  0.4437
 6079TIP3   OH239727   3.829   2.490   1.466 -0.4568 -0.1275 -0.5582
 6079TIP3    H139728   3.854   2.575   1.504 -0.6455  0.2806 -1.3452
 6079TIP3    H239729   3.910   2.454   1.431 -0.3435 -0.3590 -0.0712
 6080TIP3   OH239730   5.084   3.208   4.427  0.4961  0.0483 -0.3407
 6080TIP3    H139731   5.174   3.212   4.395  0.8798 -1.4526  0.5040
 6080TIP3    H239732   5.086   3.255   4.510  0.3850  0.4463 -0.5608
 6081TIP3   OH239733   6.500   5.192   3.040  0.1109  0.7057  0.6387
 6081TIP3    H139734   6.443   5.121   3.011  0.0548  0.9090  0.2519
 6081TIP3    H239735   6.517   5.243   2.961  2.4498 -0.4979  0.3127
 6082TIP3   OH239736   1.248   1.151  14.008  0.0192 -0.3344 -0.0651
 6082TIP3    H139737   1.338   1.181  13.998  0.0278 -0.3099  0.0865
 6082TIP3    H239738   1.237   1.136  14.102 -0.5442  0.9860  0.0952
 6083TIP3   OH239739   4.899   0.208  15.308 -0.2014  0.2838  1.2048
 6083TIP3    H139740   4.976   0.220  15.252 -0.1056  0.3240  1.3481
 6083TIP3    H239741   4.875   0.297  15.336 -1.8246  0.5789 -0.9043
 6084TIP3   OH239742   3.535   2.498  11.571  0.0041 -0.0149  0.2622
 6084TIP3    H139743   3.474   2.446  11.518  0.6064  0.5150 -0.9888
 6084TIP3    H239744   3.479   2.559  11.619 -0.5076 -0.0130 -0.3320
 6085TIP3   OH239745   6.374   4.087  15.380  0.5765 -0.0451 -0.3728
 6085TIP3    H139746   6.463   4.101  15.349  1.5186 -0.8336  1.8857
 6085TIP3    H239747   6.360   3.993  15.371  0.4101 -0.0955  0.4376
 6086TIP3   OH239748   4.747   0.101   5.974 -0.5692 -0.4491 -0.3397
 6086TIP3    H139749   4.683   0.127   5.908  0.2753  3.0861  0.1174
 6086TIP3    H239750   4.825   0.076   5.924 -0.6645  0.1084 -0.7747
 6087TIP3   OH239751   5.063   4.644   1.060  0.3145  0.4379 -0.6462
 6087TIP3    H139752   5.027   4.595   0.986 -0.0882  0.1708 -0.2746
 6087TIP3    H239753   5.126   4.585   1.100  0.5778  0.6057 -0.8164
 6088TIP3   OH239754   2.948   0.878   3.455 -0.6699  0.2996  0.2449
 6088TIP3    H139755   2.978   0.871   3.364 -0.4792  0.5673  0.2870
 6088TIP3    H239756   2.984   0.961   3.485 -1.0137  0.3650  0.4640
 6089TIP3   OH239757   2.855   3.378  16.104 -0.0145 -0.1877  0.3295
 6089TIP3    H139758   2.922   3.427  16.056  0.1714  0.3224  1.1018
 6089TIP3    H239759   2.841   3.428  16.184 -0.6571 -0.7854  0.5977
 6090TIP3   OH239760   1.846   2.775  17.096 -0.5127 -0.1760  0.3330
 6090TIP3    H139761   1.937   2.779  17.067 -0.3392 -1.7681  0.6180
 6090TIP3    H239762   1.846   2.714  17.169 -1.5730  0.9700  1.3142
 6091TIP3   OH239763   3.708   6.046  11.226 -0.7066  0.0497  0.3390
 6091TIP3    H139764   3.752   6.105  11.287 -0.7388  0.4497 -0.0247
 6091TIP3    H239765   3.695   6.098  11.147  0.9542 -1.0110 -0.6670
 6092TIP3   OH239766   3.533   4.695  14.710 -0.6790  0.8502 -0.0927
 6092TIP3    H139767   3.505   4.646  14.633 -3.3016 -0.2393  1.4855
 6092TIP3    H239768   3.606   4.645  14.746  0.2954  1.1506 -1.6057
 6093TIP3   OH239769   4.789   2.351  10.523  0.5130  0.0500 -0.1779
 6093TIP3    H139770   4.737   2.276  10.494  0.3413  0.0087  0.2371
 6093TIP3    H239771   4.728   2.424  10.523  0.2570 -0.1653  1.0941
 6094TIP3   OH239772   3.317   5.945  11.527 -0.2203  0.1531 -0.5580
 6094TIP3    H139773   3.395   5.999  11.521  0.6233 -1.0846 -0.9657
 6094TIP3    H239774   3.343   5.872  11.584 -1.5072  0.4713  0.4534
 6095TIP3   OH239775   6.170   0.736   2.490 -0.3597 -1.0010  0.5606
 6095TIP3    H139776   6.242   0.754   2.430 -0.3538 -0.8471  0.6124
 6095TIP3    H239777   6.176   0.805   2.556 -2.3034  0.7452 -1.0119
 6096TIP3   OH239778   2.442   4.232   5.212 -0.5224  0.1240 -0.2613
 6096TIP3    H139779   2.379   4.159   5.206 -1.3697  0.9034 -0.9412
 6096TIP3    H239780   2.488   4.231   5.128 -0.9145  0.7090 -0.4861
 6097TIP3   OH239781   3.944   6.195   1.965 -0.1048  0.5191 -0.5242
 6097TIP3    H139782   3.904   6.215   1.881  0.3032  0.7907 -0.6516
 6097TIP3    H239783   3.985   6.277   1.993 -0.9104  0.6489  0.3056
 6098TIP3   OH239784   1.461   5.452   5.175 -0.4578  0.1404  0.0130
 6098TIP3    H139785   1.548   5.413   5.171 -0.1600  0.8081 -0.0495
 6098TIP3    H239786   1.472   5.530   5.230 -0.9661  0.3631 -0.1956
 6099TIP3   OH239787   4.354   1.481   0.972 -0.2386  0.3424  0.1415
 6099TIP3    H139788   4.341   1.411   1.037  0.8513  1.3393  1.4713
 6099TIP3    H239789   4.273   1.483   0.922 -0.1809 -2.0718 -0.1032
 6100TIP3   OH239790   4.388   0.945  15.815  0.2520 -0.2423  0.1330
 6100TIP3    H139791   4.332   0.996  15.873 -1.2482  0.7876 -2.1086
 6100TIP3    H239792   4.472   0.990  15.817  0.1409 -0.0736  1.2974
 6101TIP3   OH239793   5.007   1.265  16.500 -0.1252 -0.3055 -0.9282
 6101TIP3    H139794   4.927   1.287  16.453  0.9933  1.9596 -1.8264
 6101TIP3    H239795   4.988   1.288  16.591 -0.4380  0.3960 -1.1681
 6102TIP3   OH239796   6.181   4.260  14.793  0.3072  0.1210  0.2238
 6102TIP3    H139797   6.260   4.310  14.815  2.6848 -2.7543 -1.5345
 6102TIP3    H239798   6.136   4.315  14.729  1.8081  0.9411 -0.1578
 6103TIP3   OH239799   3.456   3.663  13.940 -0.3569 -0.4431 -1.2102
 6103TIP3    H139800   3.390   3.672  14.008  0.5044 -1.0850 -0.2634
 6103TIP3    H239801   3.446   3.741  13.885 -1.0474  0.0774 -0.3472
 6104TIP3   OH239802   4.961   4.461   4.952  0.1310  0.2615 -0.3998
 6104TIP3    H139803   5.054   4.462   4.932  0.1596  0.8047 -0.2319
 6104TIP3    H239804   4.918   4.480   4.869  0.1525 -0.3527 -0.5574
 6105TIP3   OH239805   2.862   5.817  12.623 -0.6255  0.0901 -0.5939
 6105TIP3    H139806   2.881   5.892  12.567 -0.0106  0.0746 -0.4044
 6105TIP3    H239807   2.915   5.832  12.701  0.5034 -1.2139 -1.1054
 6106TIP3   OH239808   1.855   4.153   2.782 -0.1339 -0.6303 -0.4099
 6106TIP3    H139809   1.928   4.205   2.815  0.6043 -1.9604  0.0840
 6106TIP3    H239810   1.781   4.179   2.837  0.3962 -0.6234  0.3133
 6107TIP3   OH239811   5.384   2.794  17.042 -0.1545 -0.2305 -0.2672
 6107TIP3    H139812   5.330   2.767  16.968 -0.2352 -0.3300 -0.1710
 6107TIP3    H239813   5.372   2.726  17.108  1.4331 -1.1634 -0.9013
 6108TIP3   OH239814   4.135   5.868  14.907 -0.2355  0.5658 -0.5857
 6108TIP3    H139815   4.096   5.852  14.993  0.4856 -0.4680 -0.4437
 6108TIP3    H239816   4.071   5.923  14.862 -1.6219 -0.6743 -0.1739
 6109TIP3   OH239817   4.399   1.385  15.456  0.7507 -0.1238  0.3500
 6109TIP3    H139818   4.385   1.447  15.384  0.2563 -0.0969  0.4620
 6109TIP3    H239819   4.492   1.364  15.453  0.5820 -0.7111 -0.7729
 6110TIP3   OH239820   5.949   0.240  14.066 -0.3465 -0.0974 -0.1054
 6110TIP3    H139821   5.969   0.163  14.013 -2.0127 -0.6728  0.0802
 6110TIP3    H239822   6.005   0.309  14.029  0.0209 -1.0015 -1.2819
 6111TIP3   OH239823   4.478   5.454  14.186 -0.4872 -0.2715 -0.5037
 6111TIP3    H139824   4.529   5.530  14.160 -2.2952  1.2041  0.1825
 6111TIP3    H239825   4.448   5.474  14.275 -0.6787 -1.9325 -0.1803
 6112TIP3   OH239826   5.760   0.488   2.393  0.0498  0.3082  0.1039
 6112TIP3    H139827   5.816   0.563   2.371  1.1452 -0.4035  0.3887
 6112TIP3    H239828   5.807   0.413   2.358  0.2712 -0.5102  2.1103
 6113TIP3   OH239829   0.719   1.853  11.809  0.7955 -0.3265 -0.2837
 6113TIP3    H139830   0.661   1.805  11.867  2.3929 -0.2584  1.4300
 6113TIP3    H239831   0.806   1.845  11.850  1.7467  0.7246 -2.0288
 6114TIP3   OH239832   6.329   4.581  11.491  0.2419 -0.0019  0.5220
 6114TIP3    H139833   6.397   4.558  11.428  2.2580 -0.1687  2.6911
 6114TIP3    H239834   6.358   4.543  11.573 -2.2282  0.3920  1.6290
 6115TIP3   OH239835   6.294   2.499  15.226 -0.3573  0.3611 -0.3367
 6115TIP3    H139836   6.304   2.482  15.132 -0.3753 -0.2369 -0.2291
 6115TIP3    H239837   6.321   2.418  15.268  0.3755  0.8844  0.2092
 6116TIP3   OH239838   5.564   2.224  13.609 -0.0839 -0.0271  0.2947
 6116TIP3    H139839   5.621   2.296  13.635  0.1287 -0.3977  0.8541
 6116TIP3    H239840   5.525   2.253  13.526  1.9901 -0.3660 -0.8236
 6117TIP3   OH239841   1.213   4.088   2.403  0.7328 -0.1081 -0.1128
 6117TIP3    H139842   1.228   4.169   2.450  0.0517 -0.4050  0.6194
 6117TIP3    H239843   1.159   4.113   2.328  1.0293  0.2090 -0.2219
 6118TIP3   OH239844   1.911   5.848   5.785  0.3279 -0.0374 -0.1840
 6118TIP3    H139845   1.816   5.850   5.800  0.5158  1.5521  0.8886
 6118TIP3    H239846   1.930   5.931   5.743  1.3134 -0.1891 -0.0476
 6119TIP3   OH239847   0.941   4.601   4.621 -0.4634 -0.2066  0.3197
 6119TIP3    H139848   0.901   4.540   4.559  0.2444  0.3157 -0.6707
 6119TIP3    H239849   0.956   4.549   4.700 -2.3552 -0.6162  0.4454
 6120TIP3   OH239850   5.986   5.513   0.877 -0.6611 -0.0753  0.3224
 6120TIP3    H139851   5.942   5.459   0.943  1.0993 -2.4405 -0.3377
 6120TIP3    H239852   6.057   5.556   0.924  0.9624 -2.2262 -0.0842
 6121TIP3   OH239853   6.239   4.095   5.663  0.1431 -0.2071  0.4330
 6121TIP3    H139854   6.226   4.190   5.660 -0.6837 -0.2871  1.2329
 6121TIP3    H239855   6.169   4.059   5.610  2.6534 -0.2263 -3.0198
 6122TIP3   OH239856   5.448   5.133   5.118 -0.3748  0.5262  0.2681
 6122TIP3    H139857   5.456   5.196   5.047 -1.2045 -0.9538 -1.1616
 6122TIP3    H239858   5.409   5.055   5.078  1.7968 -1.3719  1.7219
 6123TIP3   OH239859   0.217   2.855   0.321  0.4894 -0.6286  0.5821
 6123TIP3    H139860   0.122   2.863   0.320  0.6413  1.3989 -1.0091
 6123TIP3    H239861   0.233   2.760   0.321 -1.5137 -0.9960  0.1170
 6124TIP3   OH239862   5.399   4.846   3.901 -0.1804  0.0459  0.3842
 6124TIP3    H139863   5.377   4.926   3.949 -0.9271  1.5300 -2.3133
 6124TIP3    H239864   5.323   4.789   3.913 -1.3131  1.2684 -0.7436
 6125TIP3   OH239865   0.325   5.044   3.934 -0.2000  0.1732  0.3041
 6125TIP3    H139866   0.383   5.068   3.862 -0.3960  0.9077  0.3893
 6125TIP3    H239867   0.256   4.991   3.894  2.0257 -3.1300  0.6173
 6126TIP3   OH239868   1.390   6.819  10.749  0.6653 -0.2653 -0.0888
 6126TIP3    H139869   1.414   6.740  10.701 -0.2498  1.0696 -2.8977
 6126TIP3    H239870   1.356   6.788  10.833  1.1017 -2.7753 -0.8087
 6127TIP3   OH239871   5.849   1.402  16.347  0.1454 -0.1799  0.1807
 6127TIP3    H139872   5.834   1.490  16.315  3.5570  0.3991 -0.0230
 6127TIP3    H239873   5.770   1.354  16.324 -0.9855  2.3449 -1.3846
 6128TIP3   OH239874   4.189   4.517  11.266  0.2543 -0.4063  0.3711
 6128TIP3    H139875   4.244   4.497  11.342  0.6224  0.1961  0.2720
 6128TIP3    H239876   4.214   4.606  11.242 -0.5464 -0.2438  0.1284
 6129TIP3   OH239877   0.728   1.836   0.119  0.0714  0.4168  0.2079
 6129TIP3    H139878   0.652   1.876   0.077  0.0672 -0.7775 -0.9743
 6129TIP3    H239879   0.698   1.749   0.144  1.1923 -0.2694 -0.7677
 6130TIP3   OH239880   4.786   5.497   3.300 -0.0444  0.2831  0.2361
 6130TIP3    H139881   4.842   5.514   3.224  0.5104  2.9671  1.1880
 6130TIP3    H239882   4.840   5.521   3.375 -1.0313 -1.1373  1.4320
 6131TIP3   OH239883   6.696   3.615   1.605 -0.1608 -0.1256 -0.1823
 6131TIP3    H139884   6.718   3.690   1.550 -0.7006 -0.3419 -0.6842
 6131TIP3    H239885   6.778   3.565   1.610  0.2426  0.5662  0.2717
 6132TIP3   OH239886   6.471   4.103   2.685 -0.4305  0.7137  0.1742
 6132TIP3    H139887   6.480   4.156   2.605  1.7149 -0.1880 -0.2124
 6132TIP3    H239888   6.432   4.021   2.655  0.9377  0.1386 -0.0719
 6133TIP3   OH239889   2.521   1.461  13.473 -0.1254 -1.1226  0.4681
 6133TIP3    H139890   2.431   1.463  13.507  0.3616 -0.4050  1.7435
 6133TIP3    H239891   2.575   1.486  13.547  1.0633 -0.6141 -0.5550
 6134TIP3   OH239892   4.962   3.110   5.663  0.0302 -0.0477  0.2269
 6134TIP3    H139893   4.987   3.150   5.579  0.9830  1.7649  1.3453
 6134TIP3    H239894   5.024   3.145   5.726  1.4935 -4.0352  1.1508
 6135TIP3   OH239895   5.946   3.204  16.173 -0.1718 -0.1793  0.3205
 6135TIP3    H139896   5.908   3.223  16.087 -1.3425 -2.3703  0.3192
 6135TIP3    H239897   5.881   3.232  16.236  0.1076  0.1834  0.4470
 6136TIP3   OH239898   4.636   5.524  12.145  0.7095 -0.3702 -0.2452
 6136TIP3    H139899   4.642   5.615  12.119  0.4551 -0.1768  0.3704
 6136TIP3    H239900   4.592   5.525  12.230  0.4408 -1.0838 -0.3652
 6137TIP3   OH239901   4.774   0.746  12.226  0.6686  0.3220  0.5848
 6137TIP3    H139902   4.726   0.818  12.266  1.0376  1.4395 -0.9461
 6137TIP3    H239903   4.709   0.697  12.176  0.5596  0.0062  1.0271
 6138TIP3   OH239904   3.191   0.479  15.879  0.3318 -0.3062  0.0390
 6138TIP3    H139905   3.224   0.518  15.798  0.7120 -1.0566 -0.1807
 6138TIP3    H239906   3.258   0.414  15.902  1.1988  1.2160  1.9908
 6139TIP3   OH239907   3.222   0.407  14.126  0.0380 -0.6882 -0.2934
 6139TIP3    H139908   3.313   0.418  14.100 -0.0751 -1.3444 -0.9824
 6139TIP3    H239909   3.189   0.496  14.136  1.0479 -0.4399  1.0117
 6140TIP3   OH239910   6.587   1.129   1.635  0.1397 -0.8025  0.1385
 6140TIP3    H139911   6.671   1.165   1.607  0.8132 -2.0300  0.5323
 6140TIP3    H239912   6.527   1.203   1.633  0.6275 -0.4149 -2.5739
 6141TIP3   OH239913   0.037   2.468   1.281 -0.0391  0.4612 -0.1076
 6141TIP3    H139914  -0.036   2.471   1.220 -0.8172  1.4359  0.8530
 6141TIP3    H239915   0.069   2.378   1.276  0.2457  0.6703 -2.3154
 6142TIP3   OH239916   0.859   5.840   4.370  0.4867  0.1703 -0.1401
 6142TIP3    H139917   0.908   5.920   4.385  0.0573  0.0932  1.6717
 6142TIP3    H239918   0.873   5.787   4.448 -1.3932 -0.4208 -0.1753
 6143TIP3   OH239919   2.894   0.173   6.133 -0.2104  0.0090 -0.2171
 6143TIP3    H139920   2.804   0.145   6.118 -0.8981  1.2283  1.5965
 6143TIP3    H239921   2.888   0.265   6.157  1.2222 -0.5784  2.6714
 6144TIP3   OH239922   1.901   2.970   2.365  0.0633 -0.4981  0.4491
 6144TIP3    H139923   1.920   2.885   2.324 -1.1087 -0.2891 -0.5873
 6144TIP3    H239924   1.807   2.966   2.383  0.2024  0.1951  1.3045
 6145TIP3   OH239925   3.075   2.965   2.839 -0.6026 -0.2066  0.1695
 6145TIP3    H139926   3.040   2.977   2.928  0.2848  0.5940  0.4249
 6145TIP3    H239927   3.139   3.036   2.829  0.0297 -0.8925 -0.7454
 6146TIP3   OH239928   6.083   4.203  15.161 -0.3339 -0.3458 -0.6114
 6146TIP3    H139929   5.995   4.182  15.129 -1.1300  3.0233 -0.7477
 6146TIP3    H239930   6.095   4.295  15.141  3.0849 -0.6350 -0.1594
 6147TIP3   OH239931   1.098   2.917  12.668  0.4821 -0.7609 -0.6300
 6147TIP3    H139932   1.174   2.914  12.726  0.1146 -0.8733 -0.1550
 6147TIP3    H239933   1.035   2.973  12.713  0.5800 -0.0426 -1.3831
 6148TIP3   OH239934   6.248   2.409   0.820  0.3622 -0.2891 -0.1505
 6148TIP3    H139935   6.238   2.314   0.810  1.5715 -0.2301 -2.3208
 6148TIP3    H239936   6.187   2.446   0.756  1.8528  0.3274 -1.2319
 6149TIP3   OH239937   0.733   5.924  14.689  0.2365 -0.6965 -0.1039
 6149TIP3    H139938   0.799   5.861  14.659  1.7548  1.5179 -1.5815
 6149TIP3    H239939   0.777   5.974  14.756 -0.2895  0.1301 -0.3742
 6150TIP3   OH239940   1.104   2.679  12.554  0.1660 -0.3923  0.1596
 6150TIP3    H139941   1.036   2.678  12.487 -1.0532 -2.3414  1.3924
 6150TIP3    H239942   1.104   2.769  12.586 -2.0977 -0.4510  0.3950
 6151TIP3   OH239943   3.190   4.689   5.612  0.2655  0.9772 -0.1990
 6151TIP3    H139944   3.117   4.669   5.553  1.2606 -0.7497 -0.9021
 6151TIP3    H239945   3.149   4.705   5.696 -0.8703 -1.3143 -0.2770
 6152TIP3   OH239946   3.893   0.853   1.410  0.2661  0.3626 -0.4457
 6152TIP3    H139947   3.858   0.912   1.342  1.7909  0.3977 -1.2270
 6152TIP3    H239948   3.965   0.902   1.449  1.5163 -0.9615 -1.0674
 6153TIP3   OH239949   4.228   1.962  15.122  0.6301  0.9409  0.2249
 6153TIP3    H139950   4.302   1.955  15.182  0.1550  1.2430  0.8430
 6153TIP3    H239951   4.166   1.895  15.150  0.6204  0.7523 -0.2349
 6154TIP3   OH239952   3.506   5.941   1.340  0.0015 -0.3773 -0.1407
 6154TIP3    H139953   3.568   5.971   1.406  0.0093  1.9399 -1.1785
 6154TIP3    H239954   3.558   5.934   1.260 -0.8814  0.7634 -0.8249
 6155TIP3   OH239955   0.486   0.218   1.501 -0.1662 -0.6312 -0.5144
 6155TIP3    H139956   0.481   0.246   1.409  0.3567  1.4245  0.0493
 6155TIP3    H239957   0.399   0.238   1.537  0.2347  0.3592 -0.0867
 6156TIP3   OH239958   0.386   6.445  12.082 -0.1972  0.2003 -0.4697
 6156TIP3    H139959   0.418   6.476  12.167 -0.5277  0.6153 -0.4951
 6156TIP3    H239960   0.381   6.524  12.028 -0.1724 -0.0346 -0.8151
 6157TIP3   OH239961   1.007   3.690  14.483  0.5377  0.2049  0.1264
 6157TIP3    H139962   1.061   3.758  14.444  0.9946  0.4464  1.1474
 6157TIP3    H239963   0.924   3.695  14.437  0.9690  0.6751 -0.5950
 6158TIP3   OH239964   4.218   3.010  12.104  0.2208 -0.5497 -0.6080
 6158TIP3    H139965   4.158   2.954  12.055 -0.3566  0.2308 -0.7949
 6158TIP3    H239966   4.204   2.984  12.196  0.7571 -1.4820 -0.7848
 6159TIP3   OH239967   4.840   4.608   4.212  0.4658  0.5808 -0.6562
 6159TIP3    H139968   4.855   4.681   4.153 -0.6388  1.4025  0.0606
 6159TIP3    H239969   4.783   4.549   4.162  0.3037  0.8275 -0.7645
 6160TIP3   OH239970   6.625   3.650  12.978  0.1761  0.0892  0.7865
 6160TIP3    H139971   6.645   3.663  12.886 -2.2292 -1.5719 -0.0205
 6160TIP3    H239972   6.633   3.737  13.017 -0.4451  1.1246 -1.3322
 6161TIP3   OH239973   3.235   5.577   3.428 -0.5201 -0.0369 -0.3276
 6161TIP3    H139974   3.328   5.564   3.408 -0.3527  0.2843  0.2344
 6161TIP3    H239975   3.199   5.617   3.349 -0.5129 -1.5727 -1.1346
 6162TIP3   OH239976   0.545   3.228  12.971 -0.0764  0.5101 -0.0549
 6162TIP3    H139977   0.604   3.156  12.949 -1.2872  0.2296 -2.5639
 6162TIP3    H239978   0.465   3.185  13.003 -0.8836  0.6792 -1.7616
 6163TIP3   OH239979   5.615   4.407   4.217 -0.0984  0.0638 -0.0377
 6163TIP3    H139980   5.597   4.403   4.123  1.9941 -0.5057 -0.4382
 6163TIP3    H239981   5.641   4.497   4.233 -1.3252  0.3900  0.1811
 6164TIP3   OH239982   4.938   0.074   1.112 -0.1092  0.0471  0.4480
 6164TIP3    H139983   4.903   0.017   1.043 -1.5938  0.3407  0.9433
 6164TIP3    H239984   4.945   0.018   1.189  1.7644 -0.3393  0.0340
 6165TIP3   OH239985   0.633   6.242  14.466 -0.3283 -0.4045  0.0041
 6165TIP3    H139986   0.722   6.233  14.501 -0.3886 -0.9515  0.0184
 6165TIP3    H239987   0.580   6.184  14.520 -0.8731  0.6474  0.6241
 6166TIP3   OH239988   3.845   2.168   1.060  0.6035  0.3640  0.1903
 6166TIP3    H139989   3.843   2.142   1.152  0.7684  0.8448  0.3314
 6166TIP3    H239990   3.927   2.217   1.051  1.6443 -1.4875 -0.7155
 6167TIP3   OH239991   3.413   5.927   1.970  0.6466  0.0277  0.5724
 6167TIP3    H139992   3.455   5.910   2.054  0.4681  0.9933  0.8616
 6167TIP3    H239993   3.319   5.920   1.988  0.5406  2.1242  0.8831
 6168TIP3   OH239994   6.787   0.351  12.837  0.5602 -0.0622  0.4047
 6168TIP3    H139995   6.838   0.430  12.850 -0.3006  0.9321 -1.9669
 6168TIP3    H239996   6.812   0.320  12.750 -1.0037 -0.9624  0.2551
 6169TIP3   OH239997   0.137   1.175  12.207 -0.1778  0.7410 -0.9850
 6169TIP3    H139998   0.150   1.150  12.299 -3.3166  0.0967 -0.6723
 6169TIP3    H239999   0.218   1.148  12.163  1.1110  0.4963  1.4565
 6170TIP3   OH240000   1.667   6.053  14.106 -0.2695 -0.7753  0.4340
 6170TIP3    H140001   1.693   5.979  14.051  1.8609  0.7811 -0.7291
 6170TIP3    H240002   1.596   6.095  14.056  2.2746  1.1724 -1.6719
 6171TIP3   OH240003   1.563   0.283   4.111 -0.2708  0.2128 -0.6226
 6171TIP3    H140004   1.600   0.350   4.054  0.1064 -0.1248 -0.7696
 6171TIP3    H240005   1.600   0.201   4.079 -0.9334 -0.0956 -0.6054
 6172TIP3   OH240006   4.479   0.144  16.583  0.0173 -0.3759  0.4285
 6172TIP3    H140007   4.393   0.123  16.618  0.3545 -1.5536  0.5681
 6172TIP3    H240008   4.477   0.239  16.569 -1.6815 -0.5495 -0.6356
 6173TIP3   OH240009   5.842   0.405   0.299 -0.0249 -0.2643 -0.1794
 6173TIP3    H140010   5.928   0.434   0.331  0.1969 -1.7421  0.5757
 6173TIP3    H240011   5.817   0.473   0.235  1.2979  0.6404  0.2313
 6174TIP3   OH240012   1.042   3.537   3.776 -0.3129  0.0623 -0.0833
 6174TIP3    H140013   1.075   3.591   3.848  1.6194 -0.1713 -0.7787
 6174TIP3    H240014   0.947   3.549   3.779  0.0944  4.0866 -0.6843
 6175TIP3   OH240015   1.710   0.417   1.011 -0.3344  0.6760  0.2442
 6175TIP3    H140016   1.665   0.333   1.023  0.9483 -0.1619 -0.6551
 6175TIP3    H240017   1.675   0.451   0.929 -1.4780  1.4334  1.0400
 6176TIP3   OH240018   1.625   0.563   0.136 -0.2777 -0.1354  0.7218
 6176TIP3    H140019   1.563   0.491   0.146 -1.7644  1.2229  1.5009
 6176TIP3    H240020   1.650   0.587   0.225  1.7466 -0.9722  0.3997
 6177TIP3   OH240021   3.264   4.368   1.123 -0.7286  0.5498 -0.1853
 6177TIP3    H140022   3.218   4.344   1.043  1.1689 -0.7250 -0.9213
 6177TIP3    H240023   3.245   4.296   1.184 -0.1313  0.2708 -0.3250
 6178TIP3   OH240024   2.010   3.289  12.989 -0.4381 -0.1410  0.6764
 6178TIP3    H140025   2.051   3.323  12.909 -0.8336  1.0544  0.9868
 6178TIP3    H240026   2.046   3.200  12.997  1.3169  0.5111  0.3756
 6179TIP3   OH240027   4.405   3.603  10.644  0.5765 -0.5375 -0.1360
 6179TIP3    H140028   4.418   3.686  10.598  1.4899 -0.8285 -0.4226
 6179TIP3    H240029   4.333   3.561  10.597  1.4499 -0.7943 -1.2900
 6180TIP3   OH240030   5.960   2.233  14.343  0.1250  0.1509  0.0423
 6180TIP3    H140031   5.915   2.217  14.427  0.9933  0.8715  0.6517
 6180TIP3    H240032   5.946   2.326  14.326 -0.1491 -0.0240 -0.6798
 6181TIP3   OH240033   6.819   3.564  11.050 -0.2256 -0.2753 -0.4126
 6181TIP3    H140034   6.861   3.648  11.034  0.0877 -0.0771  1.2962
 6181TIP3    H240035   6.832   3.549  11.144 -1.9926 -1.2977 -0.3144
 6182TIP3   OH240036   0.846   3.071   3.042  0.1163  0.1043  0.2792
 6182TIP3    H140037   0.818   3.006   2.978  1.3476 -0.4812  0.3133
 6182TIP3    H240038   0.941   3.078   3.028  0.7308 -1.4900  3.3508
 6183TIP3   OH240039   1.195   0.170  14.362  0.0781  0.5216  0.0842
 6183TIP3    H140040   1.162   0.239  14.421 -0.9071  0.8013 -0.7868
 6183TIP3    H240041   1.291   0.182  14.364 -0.0490  1.6106  0.3070
 6184TIP3   OH240042   5.549   4.948   2.981 -0.2199 -0.1839 -0.6494
 6184TIP3    H140043   5.634   4.909   2.960  1.0064  1.1142  1.7067
 6184TIP3    H240044   5.513   4.974   2.897  0.9572 -2.2803 -1.8414
 6185TIP3   OH240045   2.081   3.078   3.869 -0.1515 -0.4325 -0.1240
 6185TIP3    H140046   2.129   3.142   3.817 -0.1907 -0.7680 -0.5723
 6185TIP3    H240047   2.085   2.997   3.818 -3.1092  0.0921 -1.2444
 6186TIP3   OH240048   5.037   3.332  15.302 -0.0591 -0.8549 -0.3664
 6186TIP3    H140049   5.112   3.292  15.345  0.1054 -0.4020 -0.2289
 6186TIP3    H240050   4.982   3.363  15.373  0.2869  0.0351 -0.4716
 6187TIP3   OH240051   1.961   2.626  13.085  0.2343  0.4337 -0.1179
 6187TIP3    H140052   1.985   2.578  13.005  0.8571  0.5907 -0.0287
 6187TIP3    H240053   2.037   2.682  13.103 -0.5426  1.5613 -0.3013
 6188TIP3   OH240054   3.879   5.485  12.445 -0.0302 -0.3353  0.5797
 6188TIP3    H140055   3.880   5.394  12.416  2.1687 -0.4853  1.0532
 6188TIP3    H240056   3.941   5.530  12.387 -1.1878  0.8923  0.2611
 6189TIP3   OH240057   1.368   4.825  15.618 -0.0517 -0.1597  0.1870
 6189TIP3    H140058   1.455   4.838  15.656 -0.1262 -1.2686  0.7680
 6189TIP3    H240059   1.383   4.829  15.524  0.9512 -2.1008  0.2253
 6190TIP3   OH240060   2.162   1.555   2.478  0.2880  0.4851 -0.2105
 6190TIP3    H140061   2.085   1.499   2.463  0.7511 -0.9653  2.4752
 6190TIP3    H240062   2.227   1.523   2.416 -0.8409  0.8580 -1.6039
 6191TIP3   OH240063   6.767   3.620  14.234  0.1303  0.3644 -0.5842
 6191TIP3    H140064   6.672   3.621  14.226 -0.0046 -1.4205  0.4955
 6191TIP3    H240065   6.784   3.632  14.328  1.0226  2.0656 -0.9423
 6192TIP3   OH240066   4.137   1.787  12.606 -0.3408  0.1098 -0.0852
 6192TIP3    H140067   4.124   1.786  12.701  2.0171 -1.1765  0.2739
 6192TIP3    H240068   4.091   1.865  12.576  0.5963  1.6742  2.3959
 6193TIP3   OH240069   4.453   2.865  11.682 -0.2809 -0.9195 -0.0195
 6193TIP3    H140070   4.404   2.942  11.711 -0.0297 -0.1268 -1.6445
 6193TIP3    H240071   4.389   2.814  11.632  0.0362 -0.8223 -0.5301
 6194TIP3   OH240072   5.083   3.862  14.784  0.2988 -0.2317 -0.4094
 6194TIP3    H140073   5.097   3.768  14.798  1.3059 -0.2500 -1.4436
 6194TIP3    H240074   5.000   3.867  14.736  0.4956 -0.6257 -0.7936
 6195TIP3   OH240075   5.341   5.139   4.642  0.4477  0.6520 -0.0986
 6195TIP3    H140076   5.282   5.214   4.653  0.3812  0.5280  0.4368
 6195TIP3    H240077   5.373   5.146   4.553 -2.4712 -0.7848 -1.3451
 6196TIP3   OH240078   3.595   2.494   0.201  0.5864  1.0821 -0.4089
 6196TIP3    H140079   3.654   2.499   0.126  0.7531 -0.0190 -0.3628
 6196TIP3    H240080   3.543   2.415   0.185  0.5141  0.9293  0.5503
 6197TIP3   OH240081   1.581   3.084  12.244  0.1878  0.2077 -0.5557
 6197TIP3    H140082   1.626   3.151  12.193  1.4003 -0.7727 -0.7968
 6197TIP3    H240083   1.503   3.062  12.193  0.4266  0.5626 -1.0712
 6198TIP3   OH240084   0.730   1.683  14.226  0.1861 -0.1999 -0.0142
 6198TIP3    H140085   0.812   1.636  14.210 -0.2836 -0.4731 -1.6567
 6198TIP3    H240086   0.723   1.746  14.154 -0.5748  0.4792  0.6381
 6199TIP3   OH240087   3.341   5.689  13.709 -0.2176 -0.1724  0.3821
 6199TIP3    H140088   3.436   5.700  13.716 -0.3074 -0.9573  3.5597
 6199TIP3    H240089   3.327   5.595  13.709 -1.1072 -0.0654  2.2343
 6200TIP3   OH240090   2.924   5.546  10.959 -0.3278 -0.7654 -0.1610
 6200TIP3    H140091   2.972   5.477  10.914 -1.2306 -1.6611  0.2179
 6200TIP3    H240092   2.868   5.500  11.022 -3.0306  0.1060 -1.8174
 6201TIP3   OH240093   0.067   5.126   3.640  0.9112  0.6425 -0.3002
 6201TIP3    H140094   0.054   5.073   3.718  0.1222  0.6271 -0.4357
 6201TIP3    H240095   0.002   5.093   3.578  1.7658  0.4191 -1.0838
 6202TIP3   OH240096   0.488   2.238   1.506  0.0266  0.5745  0.3091
 6202TIP3    H140097   0.537   2.204   1.431  0.5413  0.0075  0.8964
 6202TIP3    H240098   0.548   2.300   1.548  0.2760 -0.1470  1.0492
 6203TIP3   OH240099   3.731   5.269   4.042 -0.3278  0.4508 -0.2564
 6203TIP3    H140100   3.809   5.215   4.033 -1.8010 -2.0253  1.3681
 6203TIP3    H240101   3.747   5.343   3.984  2.3398 -1.0073 -1.4833
 6204TIP3   OH240102   1.820   5.914   0.697  0.1002 -0.1122  0.0144
 6204TIP3    H140103   1.754   5.845   0.691 -0.2697  0.1219  1.1622
 6204TIP3    H240104   1.806   5.968   0.619 -0.3226 -0.7192 -0.3281
 6205TIP3   OH240105   4.338   5.571  13.526  0.3803 -0.3534  0.2922
 6205TIP3    H140106   4.346   5.660  13.559  0.4352 -0.3492  0.2675
 6205TIP3    H240107   4.326   5.582  13.431  1.3256 -0.4070  0.1638
 6206TIP3   OH240108   5.985   4.371  10.639 -0.5564  0.0789 -0.3837
 6206TIP3    H140109   6.058   4.314  10.615 -0.7706 -0.1399 -0.5189
 6206TIP3    H240110   6.018   4.460  10.625  0.0681  0.0144  0.6460
 6207TIP3   OH240111   4.771   4.458  11.012  0.1831 -0.1752  0.1059
 6207TIP3    H140112   4.761   4.399  11.086  0.9493  0.4599  0.7136
 6207TIP3    H240113   4.865   4.476  11.007  0.0213  0.5628 -0.4043
 6208TIP3   OH240114   4.494   5.172   4.601 -0.0440 -0.1391  0.8453
 6208TIP3    H140115   4.552   5.175   4.677 -0.0235  1.0735  0.7909
 6208TIP3    H240116   4.417   5.222   4.628  0.2698  0.9315 -0.1669
 6209TIP3   OH240117   3.068   4.737   5.840 -0.1924 -0.8163  0.0896
 6209TIP3    H140118   3.107   4.803   5.897 -0.0228 -0.7522 -0.0980
 6209TIP3    H240119   3.053   4.661   5.896 -0.1345 -0.7125  0.2450
 6210TIP3   OH240120   1.722   4.858  12.189  0.2276 -0.0099  0.3033
 6210TIP3    H140121   1.791   4.833  12.128  0.4996 -0.1437  0.6628
 6210TIP3    H240122   1.687   4.774  12.220  1.2414  0.0418  1.6220
 6211TIP3   OH240123   0.753   1.054  14.203  0.1459 -0.2241  0.1296
 6211TIP3    H140124   0.785   0.964  14.194  0.7452  0.0098 -0.1192
 6211TIP3    H240125   0.701   1.069  14.124  0.7339 -0.0762 -0.2358
 6212TIP3   OH240126   0.979   4.510  12.140  0.0660 -0.0656  0.2060
 6212TIP3    H140127   0.909   4.565  12.175  1.1984  1.3617  0.2564
 6212TIP3    H240128   0.996   4.545  12.053 -0.0977 -1.1777 -0.2795
 6213TIP3   OH240129   5.659   0.892  16.511 -0.1332  0.8971 -0.3615
 6213TIP3    H140130   5.576   0.849  16.530  0.9651 -1.6570 -1.0729
 6213TIP3    H240131   5.661   0.899  16.416 -0.1177  2.1832 -0.2696
 6214TIP3   OH240132   4.747   0.610   3.684  0.1204 -0.2838  0.1338
 6214TIP3    H140133   4.702   0.549   3.626 -0.4730  0.2930 -0.0184
 6214TIP3    H240134   4.680   0.674   3.709  0.6101  0.0280  0.6799
 6215TIP3   OH240135   3.225   3.338   3.984  1.0482  0.0437 -0.3318
 6215TIP3    H140136   3.143   3.300   4.016  1.4347  0.4807  1.2489
 6215TIP3    H240137   3.222   3.327   3.889 -1.0221  0.4127 -0.3352
 6216TIP3   OH240138   2.526   1.568   0.539 -0.5558 -0.5129  0.2045
 6216TIP3    H140139   2.467   1.644   0.534 -1.0367 -0.9713 -1.4653
 6216TIP3    H240140   2.490   1.506   0.476  0.9678 -1.3438  0.1351
 6217TIP3   OH240141   4.327   2.910   5.593 -0.6677  0.3141  0.3217
 6217TIP3    H140142   4.401   2.893   5.534 -1.4330  0.1392 -0.5904
 6217TIP3    H240143   4.350   2.863   5.674  0.9288  1.5057  0.6016
 6218TIP3   OH240144   6.380   4.524   0.987  0.1069  0.0963  0.2791
 6218TIP3    H140145   6.337   4.494   1.067 -1.4621  1.7862  0.0990
 6218TIP3    H240146   6.473   4.512   1.004 -0.2452 -0.2098  2.0956
 6219TIP3   OH240147   0.948   5.341  13.730 -0.3396 -0.1614  0.2189
 6219TIP3    H140148   1.036   5.336  13.768 -0.8638 -0.9352  1.3619
 6219TIP3    H240149   0.962   5.322  13.637  0.4281 -2.8811  0.8153
 6220TIP3   OH240150   0.127   5.797  16.731 -0.4871  0.0193 -0.5181
 6220TIP3    H140151   0.138   5.892  16.733  0.6809 -0.1176 -0.3578
 6220TIP3    H240152   0.180   5.767  16.657 -1.4180 -0.4389 -1.0115
 6221TIP3   OH240153   6.111   4.182   4.695  0.0264 -0.1542 -0.1298
 6221TIP3    H140154   6.036   4.198   4.754 -0.1397  1.5394 -0.7493
 6221TIP3    H240155   6.091   4.099   4.652 -1.2034 -0.0251  0.1731
 6222TIP3   OH240156   6.146   3.987   3.076 -0.3228 -1.2481  0.3211
 6222TIP3    H140157   6.120   4.023   2.991 -1.8955 -1.0674  0.8752
 6222TIP3    H240158   6.175   3.897   3.056  1.5339 -0.4517 -0.7317
 6223TIP3   OH240159   5.487   6.176  14.706  0.2148 -0.0460 -0.0846
 6223TIP3    H140160   5.420   6.243  14.716  0.7593  0.7802 -1.6765
 6223TIP3    H240161   5.508   6.149  14.795 -0.2491  1.6697  0.5663
 6224TIP3   OH240162   5.900   5.323  11.404  0.0995 -0.1542  0.7687
 6224TIP3    H140163   5.942   5.361  11.326  0.1622 -1.5977  0.0724
 6224TIP3    H240164   5.807   5.320  11.382  0.1278 -0.6491  0.7113
 6225TIP3   OH240165   6.094   6.349   4.527  0.4089 -0.4143 -0.1286
 6225TIP3    H140166   6.091   6.445   4.529 -1.7250 -0.4159 -1.6624
 6225TIP3    H240167   6.060   6.322   4.612  1.5435  0.1779  0.5271
 6226TIP3   OH240168   1.205   6.361   5.263 -0.3489 -0.5850  0.1992
 6226TIP3    H140169   1.181   6.414   5.188  1.7619 -0.2313 -0.2605
 6226TIP3    H240170   1.263   6.293   5.228  2.3459  0.8179  1.7443
 6227TIP3   OH240171   0.624   2.357  17.288  0.6988 -0.1201 -0.3765
 6227TIP3    H140172   0.636   2.317  17.375  2.7892 -1.9020 -1.4443
 6227TIP3    H240173   0.690   2.426  17.284  0.5225  0.0414 -0.5249
 6228TIP3   OH240174   2.009   5.789   1.675  0.6916 -0.2602 -0.1222
 6228TIP3    H140175   2.034   5.703   1.642  0.6177  0.0687 -1.0620
 6228TIP3    H240176   1.917   5.800   1.649  0.4081 -0.2867  0.8290
 6229TIP3   OH240177   4.932   1.990  11.555 -0.2133 -0.0336 -0.9742
 6229TIP3    H140178   5.006   2.041  11.522 -0.7435  0.0847 -1.9976
 6229TIP3    H240179   4.890   1.955  11.476 -1.9412  0.8715 -0.4761
 6230TIP3   OH240180   6.547   3.355  12.996  0.4078 -0.3925 -0.2237
 6230TIP3    H140181   6.463   3.350  13.040  0.5366 -2.2661 -0.1401
 6230TIP3    H240182   6.563   3.448  12.984 -1.0785  0.0162  0.8973
 6231TIP3   OH240183   5.275   6.345  14.751 -0.6614  0.2454  0.4409
 6231TIP3    H140184   5.237   6.365  14.666 -0.1185  0.5577  0.2782
 6231TIP3    H240185   5.201   6.353  14.812 -0.8736  0.8000  0.1114
 6232TIP3   OH240186   4.128   1.297  16.132 -0.2620  0.3402  0.2390
 6232TIP3    H140187   4.071   1.368  16.161 -2.5221 -0.9771 -0.8750
 6232TIP3    H240188   4.173   1.268  16.211 -1.3820  1.1658  1.1924
 6233TIP3   OH240189   2.618   5.975  16.401 -0.0742  0.2523  0.0442
 6233TIP3    H140190   2.605   5.899  16.345  0.3954  1.7069 -2.0997
 6233TIP3    H240191   2.531   6.015  16.407  0.1429  0.8715 -0.8227
 6234TIP3   OH240192   6.741   3.017  14.698  0.0757 -0.9419 -0.0547
 6234TIP3    H140193   6.663   2.972  14.665 -0.0580 -1.0049  0.3309
 6234TIP3    H240194   6.789   3.044  14.620 -0.9879  0.2540 -0.3008
 6235TIP3   OH240195   6.761   0.219  14.056 -0.0057 -0.6260 -0.0017
 6235TIP3    H140196   6.692   0.154  14.075 -0.2076 -0.7297 -1.0598
 6235TIP3    H240197   6.714   0.294  14.019  0.2925 -0.0951  0.6804
 6236TIP3   OH240198   5.262   4.690   2.591  0.7436  0.0997  1.0537
 6236TIP3    H140199   5.167   4.701   2.600  0.8169  1.1278  0.7294
 6236TIP3    H240200   5.297   4.778   2.605  1.8074 -0.6333  3.0615
 6237TIP3   OH240201   6.503   2.556   2.015  0.1251 -0.0486  0.1711
 6237TIP3    H140202   6.463   2.586   1.934  1.9068  0.3492 -0.5668
 6237TIP3    H240203   6.591   2.591   2.014  0.6317 -1.1877  1.6364
 6238TIP3   OH240204   0.622   3.186  16.936  1.0423 -0.1629  0.1156
 6238TIP3    H140205   0.613   3.280  16.949  0.3752 -0.3578  1.1343
 6238TIP3    H240206   0.532   3.153  16.936  1.2232 -0.7006 -1.0931
 6239TIP3   OH240207   3.257   5.289   1.467  0.3749 -0.2392  0.2281
 6239TIP3    H140208   3.285   5.198   1.475  1.0958  0.0154  0.6999
 6239TIP3    H240209   3.339   5.339   1.466 -0.0202  0.4162  0.1625
 6240TIP3   OH240210   2.696   5.149   4.236 -0.5631 -0.5905 -0.0678
 6240TIP3    H140211   2.701   5.117   4.326  1.0687 -0.4170 -0.0837
 6240TIP3    H240212   2.603   5.146   4.215 -0.8753 -1.3890  1.3487
 6241TIP3   OH240213   3.360   4.786   3.864  1.2089 -0.0658  0.4430
 6241TIP3    H140214   3.365   4.854   3.931 -1.5501  0.6312 -0.0176
 6241TIP3    H240215   3.284   4.809   3.811  1.8506 -2.0057 -1.4083
 6242TIP3   OH240216   5.283   4.821  15.081 -0.1648  0.0730 -0.0925
 6242TIP3    H140217   5.296   4.890  15.016  0.5013  1.5186  1.5320
 6242TIP3    H240218   5.200   4.780  15.057  0.1600  0.4725 -1.9406
 6243TIP3   OH240219   5.659   1.755   1.942 -0.3978 -0.1270 -0.5500
 6243TIP3    H140220   5.744   1.739   1.983  0.1660  0.6358 -1.3785
 6243TIP3    H240221   5.615   1.816   2.000 -1.2832 -2.2028  1.0067
 6244TIP3   OH240222   2.152   4.331   6.600  0.4199 -0.4715 -0.1989
 6244TIP3    H140223   2.123   4.292   6.683  1.3156  0.7661  0.6997
 6244TIP3    H240224   2.096   4.408   6.589  0.8783 -0.1540 -0.3195
 6245TIP3   OH240225   5.133   5.958   2.981 -0.3177  0.6306  0.4051
 6245TIP3    H140226   5.179   5.938   3.063  0.1942  0.6437  0.1178
 6245TIP3    H240227   5.121   5.873   2.939  0.9461  0.8031 -0.3252
 6246TIP3   OH240228   0.104   6.089   0.106 -0.0513  0.0296  0.1266
 6246TIP3    H140229   0.181   6.085   0.163  0.4555  0.5032 -0.5286
 6246TIP3    H240230   0.072   5.999   0.103 -0.4304  0.0953  1.6423
 6247TIP3   OH240231   1.787   2.144   3.615 -0.2505  0.4513  0.1869
 6247TIP3    H140232   1.735   2.065   3.627 -0.1205  0.4687  0.8394
 6247TIP3    H240233   1.878   2.114   3.619 -0.1877  0.3148 -1.5982
 6248TIP3   OH240234   4.720   2.422   6.426 -0.2876  0.0736  0.2479
 6248TIP3    H140235   4.807   2.400   6.393 -0.1850  0.6651  0.1095
 6248TIP3    H240236   4.729   2.512   6.459 -1.5414  1.2311 -2.3915
 6249TIP3   OH240237   1.609   1.162  16.025  0.0662  0.7629  0.3402
 6249TIP3    H140238   1.554   1.141  16.100  0.8030  0.6282  0.8516
 6249TIP3    H240239   1.684   1.103  16.034 -0.0055  0.5135 -0.6866
 6250TIP3   OH240240   0.074   3.383  14.143  0.1715  0.7558  0.2135
 6250TIP3    H140241   0.076   3.475  14.165 -0.6745  0.6614  0.7233
 6250TIP3    H240242  -0.016   3.356  14.162  0.4280 -0.1851  0.1291
 6251TIP3   OH240243   6.764   2.489   2.890 -0.4087  0.0976  0.2890
 6251TIP3    H140244   6.796   2.399   2.882  2.3371  1.0269  0.3735
 6251TIP3    H240245   6.746   2.499   2.984  0.8437  0.1234  0.5377
 6252TIP3   OH240246   4.130   4.778  16.617 -0.3060 -0.1347 -0.1917
 6252TIP3    H140247   4.085   4.708  16.666  0.0633 -0.1558  0.1222
 6252TIP3    H240248   4.210   4.736  16.584  1.7637  1.0496  3.0468
 6253TIP3   OH240249   4.943   1.250  15.396  0.4780  0.7704 -0.6073
 6253TIP3    H140250   4.859   1.242  15.351  0.6789  0.0914 -0.8712
 6253TIP3    H240251   4.991   1.317  15.347  0.6822  0.0625 -1.3918
 6254TIP3   OH240252   5.434   3.825   4.111  0.0508 -0.1879 -0.2986
 6254TIP3    H140253   5.430   3.869   4.196  3.2619 -0.5582  0.0869
 6254TIP3    H240254   5.450   3.734   4.133 -2.8619 -0.9952 -1.2411
 6255TIP3   OH240255   6.765   2.729   6.651  0.3992 -0.0345 -0.2527
 6255TIP3    H140256   6.791   2.782   6.726  0.4872 -0.0053 -0.3051
 6255TIP3    H240257   6.683   2.769   6.621  1.2109  0.9450 -1.1756
 6256TIP3   OH240258   2.912   2.633   0.036  0.4121 -0.4601 -0.3516
 6256TIP3    H140259   2.845   2.696   0.064  0.8505 -0.8998  1.7495
 6256TIP3    H240260   2.986   2.688   0.010 -0.1124 -0.0389 -1.0092
 6257TIP3   OH240261   5.218   2.244  15.485 -0.1066  0.6633 -0.3119
 6257TIP3    H140262   5.277   2.294  15.542  0.4608 -2.2139  1.7533
 6257TIP3    H240263   5.132   2.281  15.501  0.0241 -0.1330  2.5604
 6258TIP3   OH240264   2.284   3.425  14.537  0.1209  0.3858 -0.4113
 6258TIP3    H140265   2.244   3.467  14.613 -2.8943  0.6054 -2.0310
 6258TIP3    H240266   2.265   3.332  14.548 -1.9590  0.6039 -1.7275
 6259TIP3   OH240267   0.085   2.644  16.125 -0.8139  0.2707  0.1952
 6259TIP3    H140268   0.141   2.618  16.052  1.5131  3.1293  0.8686
 6259TIP3    H240269  -0.002   2.653  16.086  0.1448  0.5348 -1.9665
 6260TIP3   OH240270   2.894   6.352  14.642 -0.6629 -0.1823 -1.0989
 6260TIP3    H140271   2.916   6.272  14.594 -0.0914 -1.1389  0.6922
 6260TIP3    H240272   2.883   6.322  14.733  2.1773  2.1813  0.0719
 6261TIP3   OH240273   0.016   3.627   6.762  0.0945  0.2346 -0.8689
 6261TIP3    H140274   0.006   3.706   6.815  1.1753  0.4143 -0.9234
 6261TIP3    H240275  -0.005   3.555   6.822  0.5182  0.4845 -0.4216
 6262TIP3   OH240276   0.149   0.257  12.640  0.7582 -0.3461 -0.4400
 6262TIP3    H140277   0.208   0.227  12.709  0.8394 -0.6738 -0.6527
 6262TIP3    H240278   0.097   0.181  12.618 -0.4865  0.2233  0.4891
 6263TIP3   OH240279   6.031   1.902  15.951 -0.0847 -0.4377 -0.0156
 6263TIP3    H140280   6.099   1.962  15.923  0.0695 -0.8754 -0.5919
 6263TIP3    H240281   5.952   1.956  15.958  0.1840 -0.0549  0.0608
 6264TIP3   OH240282   4.436   5.484  16.045  0.0111 -0.7104  0.1839
 6264TIP3    H140283   4.428   5.548  16.116  0.8092  0.5008 -0.8195
 6264TIP3    H240284   4.412   5.401  16.086 -1.6062  0.3052  1.3500
 6265TIP3   OH240285   2.322   0.498   1.135 -0.0743  0.3146  0.2326
 6265TIP3    H140286   2.233   0.510   1.102  0.0232  0.0682 -0.1176
 6265TIP3    H240287   2.340   0.405   1.122  0.1955  0.3428  0.4065
 6266TIP3   OH240288   0.365   4.222  12.718 -0.1711  0.7367  0.3699
 6266TIP3    H140289   0.377   4.310  12.682 -0.2322  0.3656 -0.5791
 6266TIP3    H240290   0.372   4.164  12.642 -2.9777  0.1305  0.4951
 6267TIP3   OH240291   6.627   1.937   2.536 -0.2060 -0.0637 -0.0426
 6267TIP3    H140292   6.664   2.019   2.504 -0.9876  0.4030  0.2272
 6267TIP3    H240293   6.532   1.951   2.534 -0.4547 -1.7584 -2.1586
 6268TIP3   OH240294   4.502   5.603  13.910  0.8387  0.6172 -0.3209
 6268TIP3    H140295   4.469   5.692  13.920  1.2274  1.0597 -2.8102
 6268TIP3    H240296   4.553   5.604  13.829  2.3156 -1.4408  0.5300
 6269TIP3   OH240297   2.194   3.095   0.304 -0.2570  0.3095  0.4533
 6269TIP3    H140298   2.217   3.169   0.248 -0.8727  0.4649  0.4016
 6269TIP3    H240299   2.160   3.135   0.383 -1.5555  0.0811  0.0186
 6270TIP3   OH240300   6.433   5.051   2.440  0.5343 -0.1971  0.0849
 6270TIP3    H140301   6.415   5.139   2.407 -1.1920 -0.8421 -0.7313
 6270TIP3    H240302   6.349   5.006   2.436  1.2482 -1.6661  1.1938
 6271TIP3   OH240303   4.081   2.318   1.415 -0.6715 -0.3112  0.4074
 6271TIP3    H140304   4.102   2.243   1.471  0.6716  0.3016  0.7556
 6271TIP3    H240305   4.166   2.347   1.382 -0.9050  2.4167  2.0336
 6272TIP3   OH240306   2.537   1.259   4.620 -0.0834 -0.0602 -0.3509
 6272TIP3    H140307   2.620   1.263   4.571 -0.3166 -1.2198 -0.8419
 6272TIP3    H240308   2.562   1.278   4.711  0.5075  1.0108 -0.7244
 6273TIP3   OH240309   4.554   1.532  14.861  0.3435  0.2615 -0.1493
 6273TIP3    H140310   4.612   1.607  14.847  0.3369 -0.0688 -2.0179
 6273TIP3    H240311   4.470   1.560  14.824 -0.0606 -0.1335  0.4583
 6274TIP3   OH240312   4.024   3.849   1.105  0.1453 -0.2656 -0.3739
 6274TIP3    H140313   4.053   3.871   1.016  1.0998 -0.7146 -0.1913
 6274TIP3    H240314   3.936   3.813   1.093  0.4035 -0.6597 -1.1851
 6275TIP3   OH240315   1.955   1.374  11.240  0.3540 -0.8578 -0.1683
 6275TIP3    H140316   1.885   1.421  11.285  0.9675 -1.2118  1.1742
 6275TIP3    H240317   1.988   1.437  11.175 -1.4390 -0.8235 -1.0640
 6276TIP3   OH240318   0.976   5.988  12.121 -0.4692 -0.1842  0.0121
 6276TIP3    H140319   1.051   5.940  12.156 -0.1755  0.8578  0.8012
 6276TIP3    H240320   0.970   5.958  12.030  0.6021 -0.6255  0.0753
 6277TIP3   OH240321   6.668   5.079   3.236 -0.5873  0.2401  0.2820
 6277TIP3    H140322   6.747   5.132   3.223 -0.6687  0.9139  2.3730
 6277TIP3    H240323   6.617   5.093   3.156 -0.2174  2.6427  0.4115
 6278TIP3   OH240324   6.464   5.269  15.519  0.1719 -0.2183  0.5859
 6278TIP3    H140325   6.515   5.188  15.515  1.8026  0.8288 -0.4140
 6278TIP3    H240326   6.448   5.283  15.612  0.3314 -1.4042  0.7964
 6279TIP3   OH240327   6.178   3.435  11.785 -0.3026  0.2644  0.3597
 6279TIP3    H140328   6.201   3.510  11.731 -0.1256 -0.5011 -0.6413
 6279TIP3    H240329   6.173   3.470  11.874  1.4303  1.1256  0.1392
 6280TIP3   OH240330   0.719   1.526  13.112 -0.0112  0.5221  0.0742
 6280TIP3    H140331   0.706   1.590  13.181 -0.2237  1.0757 -0.4697
 6280TIP3    H240332   0.686   1.569  13.033  0.8044  0.1504 -0.4853
 6281TIP3   OH240333   3.873   4.279   2.863  0.3520  0.1795  0.3871
 6281TIP3    H140334   3.834   4.194   2.882 -0.0407  0.4485  0.8065
 6281TIP3    H240335   3.818   4.341   2.911  1.6907  0.5060  1.5121
 6282TIP3   OH240336   0.999   5.520  16.435 -0.1254  0.6206 -0.0476
 6282TIP3    H140337   0.978   5.533  16.528  0.7188 -1.3176  0.4501
 6282TIP3    H240338   1.076   5.574  16.420  0.8759 -0.5231  0.8888
 6283TIP3   OH240339   6.093   5.381   0.651  0.0922  0.4108  0.2481
 6283TIP3    H140340   6.162   5.426   0.602 -0.4931  1.5838  0.4581
 6283TIP3    H240341   6.054   5.451   0.705  0.5499 -0.7865  2.1662
 6284TIP3   OH240342   2.233   6.247   2.560 -0.2923 -0.2639 -0.0792
 6284TIP3    H140343   2.162   6.311   2.556 -0.0981 -0.0863 -0.8989
 6284TIP3    H240344   2.260   6.247   2.652  0.1504  1.3337 -0.1846
 6285TIP3   OH240345   1.876   4.848   0.545 -0.1170  0.0405 -0.6790
 6285TIP3    H140346   1.869   4.940   0.521 -0.6042  0.8016  2.1720
 6285TIP3    H240347   1.959   4.841   0.593  0.5390 -1.2706 -1.9681
 6286TIP3   OH240348   5.822   5.141  16.895  0.4027 -1.1754  0.0113
 6286TIP3    H140349   5.862   5.207  16.839 -1.3229 -0.0464  0.1052
 6286TIP3    H240350   5.833   5.175  16.984  0.6069 -1.6074  0.1543
 6287TIP3   OH240351   2.470   4.613  12.908  0.6662  0.5984 -0.0163
 6287TIP3    H140352   2.417   4.693  12.911  0.9416  0.7307  2.1671
 6287TIP3    H240353   2.544   4.631  12.967  1.3273 -0.8499 -0.3757
 6288TIP3   OH240354   1.929   5.477  15.112 -0.2777  0.5070 -0.4819
 6288TIP3    H140355   1.840   5.448  15.130 -0.6560  1.1711 -1.2791
 6288TIP3    H240356   1.930   5.493  15.018  1.6750 -2.9768 -1.1646
 6289TIP3   OH240357   6.637   4.521   0.150 -0.7883  0.5324  0.0505
 6289TIP3    H140358   6.716   4.575   0.146 -0.9762  0.7142 -1.6870
 6289TIP3    H240359   6.591   4.551   0.228  0.6851  0.6791  0.8595
 6290TIP3   OH240360   3.939   0.951  13.467  0.0130 -0.1965  0.0927
 6290TIP3    H140361   3.922   0.970  13.374  0.4185  0.5438  0.1621
 6290TIP3    H240362   3.904   1.028  13.513 -1.7875 -1.3556  0.6958
 6291TIP3   OH240363   2.080   2.799  16.740  0.4534  0.1607 -0.4441
 6291TIP3    H140364   1.994   2.789  16.781  1.3169 -0.2024  1.3248
 6291TIP3    H240365   2.099   2.714  16.701  0.4345 -0.0741  0.0469
 6292TIP3   OH240366   1.841   4.253   1.893 -0.0672  0.1355  0.1013
 6292TIP3    H140367   1.856   4.322   1.958  0.7761  0.4521 -0.4079
 6292TIP3    H240368   1.778   4.291   1.832  2.3216  1.4847 -1.6308
 6293TIP3   OH240369   1.517   0.449   2.514  0.3397 -0.4122  0.2374
 6293TIP3    H140370   1.455   0.464   2.585 -0.7836  0.2878 -0.8693
 6293TIP3    H240371   1.528   0.535   2.473  2.8567 -0.2958  1.0514
 6294TIP3   OH240372   3.554   2.444  16.287 -0.5058 -0.2605 -0.1552
 6294TIP3    H140373   3.532   2.428  16.379 -1.5832 -0.5275 -0.4448
 6294TIP3    H240374   3.585   2.360  16.255 -0.7374 -0.3326 -0.1950
 6295TIP3   OH240375   0.200   6.706  12.555 -0.3477 -0.0271 -0.2237
 6295TIP3    H140376   0.196   6.715  12.650  0.5824  1.6961 -0.3138
 6295TIP3    H240377   0.260   6.633  12.540 -0.9433 -0.6698  0.5219
 6296TIP3   OH240378   4.539   3.416  11.612 -0.2482 -0.1573  0.0334
 6296TIP3    H140379   4.575   3.327  11.618  0.4695  0.1167 -0.0817
 6296TIP3    H240380   4.548   3.450  11.701  2.9568  1.0975 -0.6846
 6297TIP3   OH240381   5.377   4.979  14.883 -0.0529  0.3694  0.3322
 6297TIP3    H140382   5.344   5.001  14.796  2.7423 -0.6903 -1.0601
 6297TIP3    H240383   5.472   4.988  14.876  0.2541 -0.0654  3.1974
 6298TIP3   OH240384   6.277   1.069   2.835  0.4360 -0.3896  0.0900
 6298TIP3    H140385   6.243   1.058   2.923  0.1130 -0.0324  0.0106
 6298TIP3    H240386   6.356   1.121   2.845 -0.4903  1.0651  0.0065
 6299TIP3   OH240387   4.717   4.108  11.045 -0.0241 -0.5832  0.1189
 6299TIP3    H140388   4.654   4.178  11.031 -2.5508 -2.4972  1.4677
 6299TIP3    H240389   4.773   4.110  10.967 -2.4020  0.4961 -1.6232
 6300TIP3   OH240390   0.037   4.686   4.835 -0.3716 -0.0734  0.3964
 6300TIP3    H140391   0.039   4.666   4.742 -0.6137  0.7269  0.2139
 6300TIP3    H240392   0.110   4.747   4.848 -1.0001  0.6694  0.5203
 6301TIP3   OH240393   6.353   0.889  11.382 -0.7950  0.1082 -0.0421
 6301TIP3    H140394   6.289   0.950  11.347 -0.6835  0.8181  0.9952
 6301TIP3    H240395   6.418   0.944  11.425 -0.5771 -0.7252  0.7081
 6302TIP3   OH240396   3.798   5.898  15.602  0.5432  0.4122 -0.1645
 6302TIP3    H140397   3.770   5.807  15.608  1.9851 -0.0486 -0.2969
 6302TIP3    H240398   3.722   5.944  15.566 -1.0468 -0.2979  2.2435
 6303TIP3   OH240399   3.562   3.582  15.400  0.2132 -0.5932  0.5042
 6303TIP3    H140400   3.492   3.530  15.438  0.5767 -1.0547  0.5498
 6303TIP3    H240401   3.536   3.673  15.416 -0.0946 -0.7698  1.0225
 6304TIP3   OH240402   0.133   1.090  12.479  0.9080 -0.6342  0.4857
 6304TIP3    H140403   0.201   1.070  12.543  0.3356 -0.6462  1.0955
 6304TIP3    H240404   0.090   1.168  12.515 -0.3326 -1.4686  0.8419
 6305TIP3   OH240405   5.584   3.633  15.407  0.0778 -0.2407  0.5740
 6305TIP3    H140406   5.650   3.669  15.349 -0.9956  1.1575  0.1923
 6305TIP3    H240407   5.564   3.547  15.369  0.1440  0.2173 -0.5251
 6306TIP3   OH240408   1.109   6.185   6.208  0.6950  0.7943  0.1650
 6306TIP3    H140409   1.079   6.175   6.117  2.5744  0.4207 -0.4418
 6306TIP3    H240410   1.127   6.095   6.237  0.8930  0.9827  0.6309
 6307TIP3   OH240411   6.348   2.651  14.141  0.3756 -0.3689  0.2860
 6307TIP3    H140412   6.273   2.700  14.106 -0.8620 -1.5229  1.2580
 6307TIP3    H240413   6.407   2.718  14.175 -0.3169  0.5429 -0.2772
 6308TIP3   OH240414   6.222   2.138  11.846 -0.3585 -0.1643  0.5510
 6308TIP3    H140415   6.273   2.214  11.875  1.0420 -0.6923 -0.4719
 6308TIP3    H240416   6.227   2.076  11.918  0.4376 -0.2012  0.4686
 6309TIP3   OH240417   0.266   3.254  16.738  0.5230  0.2985 -0.3334
 6309TIP3    H140418   0.252   3.286  16.827  0.7191 -1.5214  0.3866
 6309TIP3    H240419   0.193   3.289  16.687  0.0500  0.8053  0.6950
 6310TIP3   OH240420   6.729   4.731   2.735 -0.5802 -0.6247  0.1167
 6310TIP3    H140421   6.765   4.786   2.666  1.0565 -1.5382  0.2216
 6310TIP3    H240422   6.657   4.783   2.772  0.1534  0.9235 -0.5890
 6311TIP3   OH240423   1.129   0.180  17.079 -0.1779  0.1964 -0.2840
 6311TIP3    H140424   1.089   0.153  16.996 -1.9628 -1.3519  1.0171
 6311TIP3    H240425   1.145   0.097  17.125  1.4766  1.0007  0.6214
 6312TIP3   OH240426   4.782   5.355   5.754 -0.5868  0.5061  0.0319
 6312TIP3    H140427   4.858   5.350   5.812  0.7303  3.2521 -1.3217
 6312TIP3    H240428   4.723   5.417   5.798 -0.6296  0.7655 -0.3837
 6313TIP3   OH240429   2.041   1.664  16.381  0.1044 -0.4122 -0.3369
 6313TIP3    H140430   2.047   1.696  16.471  0.1871 -0.2521 -0.3974
 6313TIP3    H240431   1.951   1.634  16.371  0.7144 -2.7152  0.5729
 6314TIP3   OH240432   1.090   6.410  17.261 -0.1076 -0.7745 -0.0265
 6314TIP3    H140433   1.163   6.394  17.201  1.5634 -0.0561  1.7662
 6314TIP3    H240434   1.083   6.330  17.312 -1.4134 -1.3185 -1.0414
 6315TIP3   OH240435   1.953   6.485   2.289 -0.5190 -0.1208 -0.1709
 6315TIP3    H140436   1.887   6.418   2.273  1.0324 -1.5951 -0.5900
 6315TIP3    H240437   2.006   6.485   2.209  0.7383  0.1399  0.6515
 6316TIP3   OH240438   0.335   2.204   3.731  0.3328 -0.2045  0.2639
 6316TIP3    H140439   0.342   2.202   3.827 -0.5495 -0.2427  0.3331
 6316TIP3    H240440   0.337   2.112   3.705  2.2561 -0.1429  0.1009
 6317TIP3   OH240441   1.170   5.362   1.266 -0.4995 -0.0760 -0.6662
 6317TIP3    H140442   1.122   5.436   1.227  0.7904  0.9235 -0.4049
 6317TIP3    H240443   1.171   5.295   1.198 -0.3763  0.7306 -1.4630
 6318TIP3   OH240444   4.245   6.804  12.509  0.7039  0.4216  0.4743
 6318TIP3    H140445   4.159   6.788  12.471  0.7980 -0.6395  0.6984
 6318TIP3    H240446   4.289   6.860  12.444 -0.7134  2.3389  1.1279
 6319TIP3   OH240447   5.563   2.914  17.217 -0.3911 -0.4763 -0.4201
 6319TIP3    H140448   5.495   2.900  17.151  0.2425 -1.2254 -0.9303
 6319TIP3    H240449   5.599   2.826  17.232  0.1304 -0.1557  0.1965
 6320TIP3   OH240450   6.487   2.759   0.361  0.1573  0.1408 -0.1536
 6320TIP3    H140451   6.552   2.696   0.392 -1.0512 -1.0338  0.0427
 6320TIP3    H240452   6.403   2.720   0.383 -0.6271  1.9098  0.1314
 6321TIP3   OH240453   1.430   2.958   0.371  0.0264 -0.0779 -0.3537
 6321TIP3    H140454   1.425   2.974   0.465 -0.3742  1.9608 -0.6968
 6321TIP3    H240455   1.395   2.870   0.360  2.3058 -1.2882  1.6359
 6322TIP3   OH240456   4.569   2.592  12.382  0.1797  0.5908 -0.0554
 6322TIP3    H140457   4.560   2.687  12.379 -0.1161  0.5462 -0.7590
 6322TIP3    H240458   4.540   2.563  12.295 -2.9016 -0.3992  1.2523
 6323TIP3   OH240459   5.933   4.944   1.801 -0.5050  0.0234 -0.7746
 6323TIP3    H140460   5.974   4.870   1.757  0.3262  0.9792 -1.6237
 6323TIP3    H240461   6.005   5.003   1.823 -1.1761  0.6858 -0.2966
 6324TIP3   OH240462   3.011   1.727   4.939 -0.5947 -0.3683 -0.8346
 6324TIP3    H140463   3.008   1.764   5.027 -0.9913 -0.8146 -0.6573
 6324TIP3    H240464   2.932   1.672   4.933  1.6535 -3.8371  0.0629
 6325TIP3   OH240465   4.313   5.310  12.716  0.1985 -0.2709  0.3049
 6325TIP3    H140466   4.298   5.285  12.808  0.3596 -0.6190  0.2336
 6325TIP3    H240467   4.237   5.365  12.694 -0.1909 -0.7582  0.4321
 6326TIP3   OH240468   2.805   0.927  13.538  0.2254  0.0285 -0.2683
 6326TIP3    H140469   2.850   0.997  13.491 -0.5421  1.0276  0.4479
 6326TIP3    H240470   2.800   0.959  13.629  1.8212 -1.9365  0.5345
 6327TIP3   OH240471   3.121   4.524   5.281  0.0022 -0.4235  0.0556
 6327TIP3    H140472   3.208   4.551   5.308 -0.0166  0.2769 -0.5570
 6327TIP3    H240473   3.132   4.433   5.253  0.1936 -0.8708  1.5258
 6328TIP3   OH240474   3.050   5.512  13.074 -0.6796  0.6248  0.5284
 6328TIP3    H140475   3.107   5.555  13.009 -0.1325 -0.2653  0.4094
 6328TIP3    H240476   3.111   5.467  13.132 -1.3029 -1.1642 -0.1810
 6329TIP3   OH240477   0.692   1.160   4.212  0.0531  0.0539  0.5331
 6329TIP3    H140478   0.729   1.233   4.261  1.1483  0.5690 -1.0311
 6329TIP3    H240479   0.764   1.097   4.204  0.1048  0.3141 -1.0606
 6330TIP3   OH240480   1.597   0.071   5.827 -0.1240 -0.3521 -0.2904
 6330TIP3    H140481   1.532   0.008   5.796  0.9698 -1.5460 -0.1554
 6330TIP3    H240482   1.545   0.139   5.871 -1.5315  0.2195 -2.7079
 6331TIP3   OH240483   6.587   0.883  16.731 -0.4664  0.3237  0.4343
 6331TIP3    H140484   6.646   0.847  16.665 -0.3641  1.1739  0.0521
 6331TIP3    H240485   6.561   0.808  16.784 -0.8874 -0.4492 -0.8430
 6332TIP3   OH240486   0.087   6.388  16.866  0.3289 -0.0633  0.4846
 6332TIP3    H140487   0.173   6.429  16.876  0.9363 -1.5470  1.4957
 6332TIP3    H240488   0.106   6.295  16.857 -0.9951 -0.1420 -2.1465
 6333TIP3   OH240489   6.799   6.656  13.207  0.0805  0.3992  0.3372
 6333TIP3    H140490   6.882   6.690  13.173  0.7385 -0.7708  0.7554
 6333TIP3    H240491   6.770   6.722  13.270  0.8603  0.6453  0.4428
 6334TIP3   OH240492   5.982   3.305   1.751  0.3616 -0.1282 -0.6824
 6334TIP3    H140493   5.992   3.372   1.683  4.5083 -0.5151 -0.5712
 6334TIP3    H240494   5.978   3.356   1.833  1.0309  0.0998 -0.7880
 6335TIP3   OH240495   1.947   5.371  17.136 -0.1147  0.5838  0.2389
 6335TIP3    H140496   1.896   5.299  17.172  2.2178 -0.9188  0.6328
 6335TIP3    H240497   1.950   5.355  17.042  2.0058 -0.9412  0.5334
 6336TIP3   OH240498   1.772   4.878   6.287  0.3485 -0.0021  0.0605
 6336TIP3    H140499   1.800   4.966   6.313 -1.5114  0.5606  0.2077
 6336TIP3    H240500   1.848   4.823   6.305  0.7757  1.1950  2.1056
 6337TIP3   OH240501   6.188   2.178  10.952 -0.4744 -0.4624  0.2151
 6337TIP3    H140502   6.233   2.170  11.036  0.7858  1.3492 -0.2686
 6337TIP3    H240503   6.255   2.155  10.887 -1.0480 -0.5068 -0.3667
 6338TIP3   OH240504   3.892   4.072   0.245 -0.0611 -0.0153  0.7390
 6338TIP3    H140505   3.900   3.980   0.272  2.5153 -0.2013 -0.5107
 6338TIP3    H240506   3.918   4.122   0.322 -0.6614 -0.3488  1.1634
 6339TIP3   OH240507   4.317   0.735   4.668 -0.4776 -0.9059 -0.4447
 6339TIP3    H140508   4.272   0.740   4.752 -0.2614 -1.6520 -0.2768
 6339TIP3    H240509   4.247   0.740   4.603 -0.9504 -3.1600 -0.1723
 6340TIP3   OH240510   3.484   4.763   4.598 -0.6405  0.1733  0.3165
 6340TIP3    H140511   3.398   4.795   4.625 -0.5880  1.2208 -0.7267
 6340TIP3    H240512   3.546   4.822   4.641 -0.4291 -0.4423  0.8850
 6341TIP3   OH240513   4.354   2.886  15.255  0.2346  0.1271 -0.0528
 6341TIP3    H140514   4.365   2.824  15.183 -0.8126 -1.6679  1.2960
 6341TIP3    H240515   4.336   2.970  15.212  0.9054 -0.6523 -1.8840
 6342TIP3   OH240516   2.343   3.341   0.575  0.0230  0.4391  0.4108
 6342TIP3    H140517   2.258   3.386   0.570  0.6781  1.6359 -0.1425
 6342TIP3    H240518   2.334   3.282   0.650 -1.3776  0.3941  0.2295
 6343TIP3   OH240519   4.469   0.722  10.415  0.1824  0.0020 -0.4205
 6343TIP3    H140520   4.379   0.754  10.408 -1.1865 -2.6008  3.6321
 6343TIP3    H240521   4.470   0.643  10.361  0.4138  0.5963 -1.3159
 6344TIP3   OH240522   1.312   1.878   2.341  0.8635 -0.1849 -0.5877
 6344TIP3    H140523   1.228   1.854   2.301 -0.3432  0.2274  1.6148
 6344TIP3    H240524   1.298   1.967   2.374  2.4986  0.2699 -1.0898
 6345TIP3   OH240525   3.133   5.661   0.699 -0.3087  0.3610 -0.2395
 6345TIP3    H140526   3.114   5.752   0.722  1.8238  0.3256  1.8089
 6345TIP3    H240527   3.223   5.663   0.666 -0.0908 -1.0589  0.2383
 6346TIP3   OH240528   3.612   3.040  12.440  0.6957 -0.4759  0.6509
 6346TIP3    H140529   3.540   2.999  12.393  1.1269  0.5904 -1.0174
 6346TIP3    H240530   3.622   3.126  12.397  1.3412  0.3811  2.4793
 6347TIP3   OH240531   4.788   1.045  15.127 -0.0150 -0.4386 -0.3671
 6347TIP3    H140532   4.776   1.024  15.034 -0.9307 -1.9253  0.0636
 6347TIP3    H240533   4.866   0.996  15.152  0.4400  0.2454 -0.4246
 6348TIP3   OH240534   2.719   0.546   2.484  0.3924 -0.3739  0.0919
 6348TIP3    H140535   2.750   0.561   2.574 -2.3977  0.0041  1.0358
 6348TIP3    H240536   2.718   0.451   2.474  0.4798 -0.4212  0.5258
 6349TIP3   OH240537   4.397   0.907   2.376  0.1681 -0.0817 -0.4644
 6349TIP3    H140538   4.431   0.819   2.392  0.7306  0.2766  0.3588
 6349TIP3    H240539   4.345   0.927   2.454  1.4591  0.9846  0.1474
 6350TIP3   OH240540   3.239   3.776  16.250 -0.3288 -0.2865  0.7060
 6350TIP3    H140541   3.152   3.778  16.290  0.3304  2.2838  2.0710
 6350TIP3    H240542   3.299   3.795  16.322  1.3450 -1.3657 -0.3666
 6351TIP3   OH240543   4.748   5.866  10.637 -0.6447 -0.0369 -0.0265
 6351TIP3    H140544   4.694   5.875  10.716  1.6314  1.1541  1.4433
 6351TIP3    H240545   4.818   5.806  10.662  0.3007  0.6350 -1.0064
 6352TIP3   OH240546   2.540   0.548  15.862 -0.0496  0.1407 -0.0949
 6352TIP3    H140547   2.597   0.592  15.799  1.7902 -0.8750  0.8441
 6352TIP3    H240548   2.522   0.463  15.823  0.7144 -0.3089  0.5104
 6353TIP3   OH240549   6.254   1.106   6.136  0.0342  0.8157  0.4452
 6353TIP3    H140550   6.216   1.192   6.155  0.4348  0.6633  2.0118
 6353TIP3    H240551   6.179   1.046   6.139 -0.0085  0.8915  0.8859
 6354TIP3   OH240552   6.761   0.503   4.351 -0.3148  0.1141  0.4312
 6354TIP3    H140553   6.753   0.499   4.447  2.2949 -0.3996  0.6835
 6354TIP3    H240554   6.836   0.561   4.336 -0.2213 -0.4283 -1.2889
 6355TIP3   OH240555   3.800   5.442   4.722 -0.1233 -0.8199 -0.2152
 6355TIP3    H140556   3.721   5.415   4.769  0.7310 -0.0318  1.7710
 6355TIP3    H240557   3.868   5.445   4.790  1.6183 -1.4585 -1.8643
 6356TIP3   OH240558   5.443   5.392   2.026  0.0412  0.0581  0.1423
 6356TIP3    H140559   5.421   5.453   2.097 -1.3298  0.7744 -0.8685
 6356TIP3    H240560   5.451   5.307   2.070  0.1679  0.6563  1.3027
 6357TIP3   OH240561   3.393   5.558  16.410 -0.0824  0.4895  0.3101
 6357TIP3    H140562   3.322   5.615  16.440 -0.6190 -0.9934  2.0103
 6357TIP3    H240563   3.348   5.488  16.362  0.4035  0.5773 -0.2729
 6358TIP3   OH240564   1.240   4.368   0.093  0.1969  0.0694  0.6076
 6358TIP3    H140565   1.202   4.334   0.173  1.6104 -1.5441  0.6125
 6358TIP3    H240566   1.165   4.402   0.043 -0.6685  1.1532  2.6158
 6359TIP3   OH240567   3.234   5.507  12.167 -0.1434 -0.1335  0.1315
 6359TIP3    H140568   3.267   5.584  12.122  1.6177 -0.2370  1.2077
 6359TIP3    H240569   3.293   5.495  12.241 -1.3315 -1.5969  0.8739
 6360TIP3   OH240570   0.594   0.397  16.374  0.5196 -0.9903  0.2728
 6360TIP3    H140571   0.681   0.395  16.414  0.2860 -1.7107  0.7741
 6360TIP3    H240572   0.534   0.399  16.449  0.1152  0.1726 -0.0770
 6361TIP3   OH240573   0.640   2.025  13.787 -0.1017 -0.2744  0.0669
 6361TIP3    H140574   0.645   2.119  13.769 -1.0567 -0.4112 -0.9899
 6361TIP3    H240575   0.546   2.007  13.793  0.0923 -1.0812  0.7371
 6362TIP3   OH240576   5.694   5.093  11.512 -0.3486 -0.8168  0.0625
 6362TIP3    H140577   5.610   5.116  11.473  0.4911  1.1905 -0.6479
 6362TIP3    H240578   5.689   5.127  11.601 -0.1929 -0.4494 -0.0687
 6363TIP3   OH240579   6.548   6.495  16.117  0.2612  0.8985  0.1671
 6363TIP3    H140580   6.529   6.404  16.138 -1.3099  0.8088 -1.4531
 6363TIP3    H240581   6.512   6.545  16.190  0.5920  0.2422  0.7751
 6364TIP3   OH240582   0.753   4.367  11.495  0.1052  0.1521 -0.6978
 6364TIP3    H140583   0.660   4.383  11.480  0.1152  0.2699 -0.6371
 6364TIP3    H240584   0.791   4.358  11.408  0.0721  0.3075 -0.7290
 6365TIP3   OH240585   0.472   5.490  14.908 -0.1339 -0.2767 -0.0674
 6365TIP3    H140586   0.432   5.506  14.822  0.4663  0.1615 -0.2654
 6365TIP3    H240587   0.557   5.533  14.903 -0.6377  0.8959  1.2223
 6366TIP3   OH240588   1.610   3.849  17.100 -0.3400 -0.2184  0.0389
 6366TIP3    H140589   1.670   3.805  17.161  0.3207 -0.7929 -1.0207
 6366TIP3    H240590   1.524   3.812  17.121 -0.1482 -0.2583  0.7694
 6367TIP3   OH240591   5.501   4.028   2.980 -0.0022 -0.6184  0.9467
 6367TIP3    H140592   5.506   3.973   2.901  3.1640  0.4528  0.3290
 6367TIP3    H240593   5.544   3.977   3.048 -1.2238 -0.8235  1.5823
 6368TIP3   OH240594   2.680   1.503   3.103 -0.0517  0.1889  0.2769
 6368TIP3    H140595   2.589   1.531   3.088 -0.0834 -0.0222  0.0639
 6368TIP3    H240596   2.719   1.503   3.016  0.3659  1.0120  0.4666
 6369TIP3   OH240597   0.445   1.290  13.870 -0.4866 -0.0456  0.1303
 6369TIP3    H140598   0.492   1.356  13.818  0.0534 -1.0650 -0.7020
 6369TIP3    H240599   0.379   1.340  13.919 -0.3022  1.0721 -0.7379
 6370TIP3   OH240600   4.751   0.523  15.186 -0.2792 -0.2921  0.6622
 6370TIP3    H140601   4.715   0.609  15.167 -0.0879 -0.4832 -0.5714
 6370TIP3    H240602   4.788   0.531  15.274 -0.8447  0.6867  0.8140
 6371TIP3   OH240603   0.567   2.748   0.680  0.1327 -0.4013 -0.0648
 6371TIP3    H140604   0.504   2.716   0.744  0.0107 -1.4195 -0.6822
 6371TIP3    H240605   0.649   2.754   0.727 -0.2111  0.0012  0.4935
 6372TIP3   OH240606   5.035   0.934   3.075  0.2174 -0.3696 -0.3227
 6372TIP3    H140607   4.949   0.936   3.117 -0.4888 -1.0058 -1.6952
 6372TIP3    H240608   5.020   0.970   2.988  1.1169 -1.4589 -0.9512
 6373TIP3   OH240609   3.084   2.977  16.647  0.2144  0.2721  0.3000
 6373TIP3    H140610   3.107   2.977  16.740  0.4477 -0.6978  0.2451
 6373TIP3    H240611   3.153   2.926  16.605  0.3199  1.0421 -0.4649
 6374TIP3   OH240612   2.105   0.748   3.317  0.5849 -0.6864  0.5253
 6374TIP3    H140613   2.059   0.688   3.259 -1.4880  1.5480 -0.2598
 6374TIP3    H240614   2.164   0.797   3.260 -0.5654  0.6723  0.4683
 6375TIP3   OH240615   1.026   3.643   1.233  0.0196 -0.2747  0.3866
 6375TIP3    H140616   0.999   3.735   1.241  0.1944 -0.0258 -1.5784
 6375TIP3    H240617   0.950   3.594   1.264  0.0336  0.5222  1.7497
 6376TIP3   OH240618   2.459   0.043  15.900  0.7151 -0.2028 -0.3250
 6376TIP3    H140619   2.522   0.039  15.972  1.9952  1.1229 -1.3435
 6376TIP3    H240620   2.393   0.106  15.930  0.2373 -1.0669  0.4548
 6377TIP3   OH240621   0.490   4.685   6.753  0.6498  0.2201 -0.0802
 6377TIP3    H140622   0.445   4.761   6.790 -0.9327 -0.3511 -0.8144
 6377TIP3    H240623   0.466   4.612   6.810 -1.2835 -0.5359 -1.8166
 6378TIP3   OH240624   0.990   2.368   1.453  0.0475  0.2395 -0.5646
 6378TIP3    H140625   1.084   2.383   1.451  0.2021 -0.5945  0.6758
 6378TIP3    H240626   0.953   2.453   1.475  0.6147  0.1279  0.8296
 6379TIP3   OH240627   6.425   3.698   6.089  0.6119 -0.5322 -0.3932
 6379TIP3    H140628   6.467   3.782   6.071  1.4223 -1.0696 -1.0655
 6379TIP3    H240629   6.392   3.669   6.003 -0.0650 -0.6798 -0.0844
 6380TIP3   OH240630   4.855   5.804   3.389 -0.7018  0.2693  0.0444
 6380TIP3    H140631   4.826   5.792   3.479  0.4366  0.9856  0.5260
 6380TIP3    H240632   4.927   5.742   3.378 -0.3995  0.6524 -0.1556
 6381TIP3   OH240633   0.315   4.409   0.383  0.2873 -0.2998 -0.3261
 6381TIP3    H140634   0.357   4.367   0.307 -0.0630 -2.2133  0.4951
 6381TIP3    H240635   0.228   4.369   0.387  0.6734 -1.0097  1.6756
 6382TIP3   OH240636   4.273   2.471  16.129 -0.2135 -0.5602 -0.2432
 6382TIP3    H140637   4.291   2.380  16.105  1.2068 -0.0263 -1.2613
 6382TIP3    H240638   4.305   2.522  16.054  1.9605  0.9840  1.6682
 6383TIP3   OH240639   5.067   4.579   3.517 -0.0263 -0.2368 -0.2780
 6383TIP3    H140640   4.998   4.604   3.456  0.8856  2.8436 -0.1091
 6383TIP3    H240641   5.021   4.531   3.586 -1.9275  1.3647 -0.3914
 6384TIP3   OH240642   4.684   3.676   4.923  0.4415  0.5568  0.3893
 6384TIP3    H140643   4.623   3.602   4.920  0.4164  0.5352  1.4119
 6384TIP3    H240644   4.741   3.664   4.847 -0.7095  0.4739 -0.4613
 6385TIP3   OH240645   5.903   1.599  11.600  0.2178 -0.7356 -0.0378
 6385TIP3    H140646   5.875   1.630  11.686 -1.3480  1.4112 -1.2631
 6385TIP3    H240647   5.831   1.544  11.570 -0.3158  0.4726 -0.9800
 6386TIP3   OH240648   0.972   0.224   2.562  0.3110  0.0396  0.0498
 6386TIP3    H140649   1.066   0.214   2.551  0.7582  2.1060  1.5424
 6386TIP3    H240650   0.939   0.135   2.574  2.0383 -0.7100 -0.6143
 6387TIP3   OH240651   6.241   3.531   2.443  0.0119  0.5028 -0.0911
 6387TIP3    H140652   6.292   3.550   2.521 -1.1800 -1.4198  1.1913
 6387TIP3    H240653   6.306   3.518   2.374  1.1552  0.0611  1.0584
 6388TIP3   OH240654   1.346   3.422   2.541 -0.1924  0.4466  0.5371
 6388TIP3    H140655   1.325   3.512   2.518  1.6365  0.4405 -1.2722
 6388TIP3    H240656   1.276   3.369   2.502 -0.7525  0.9873  0.8067
 6389TIP3   OH240657   5.792   3.485  14.663 -1.3433 -0.4121 -0.5947
 6389TIP3    H140658   5.821   3.412  14.718 -1.2761  0.4449  0.5363
 6389TIP3    H240659   5.705   3.508  14.698 -2.2275 -1.2118 -2.2128
 6390TIP3   OH240660   0.251   0.497   1.188  0.2039  0.2133  0.0408
 6390TIP3    H140661   0.157   0.506   1.171  0.1209  2.9575  1.6311
 6390TIP3    H240662   0.257   0.427   1.253 -0.6652 -0.6569 -0.8120
 6391TIP3   OH240663   1.918   3.371   5.688  0.4996  0.3726  0.0265
 6391TIP3    H140664   1.901   3.455   5.646  0.6312 -0.4853 -1.8170
 6391TIP3    H240665   1.849   3.313   5.653  2.5205 -1.1735 -1.5446
 6392TIP3   OH240666   6.735   1.849   3.084 -0.2700 -0.0741 -0.1899
 6392TIP3    H140667   6.746   1.791   3.008 -2.0172 -0.7689  0.0564
 6392TIP3    H240668   6.763   1.935   3.052  0.0611 -0.5757 -1.2963
 6393TIP3   OH240669   5.603   3.505  14.130 -0.0644 -0.2578 -0.5590
 6393TIP3    H140670   5.531   3.442  14.132 -0.8670  0.6555 -0.1987
 6393TIP3    H240671   5.620   3.525  14.222 -2.1425  2.6594 -0.7798
 6394TIP3   OH240672   2.744   6.639   2.563 -0.3280  0.6459  0.1930
 6394TIP3    H140673   2.727   6.691   2.484 -0.8121 -0.2079 -0.2780
 6394TIP3    H240674   2.779   6.702   2.626 -0.2842  1.4132 -0.5812
 6395TIP3   OH240675   3.068   6.734  12.835 -0.3549  0.0755  0.5438
 6395TIP3    H140676   3.093   6.737  12.928 -2.3965  0.2304  1.1177
 6395TIP3    H240677   3.020   6.816  12.821  1.7120  1.0313 -1.2118
 6396TIP3   OH240678   1.079   4.617  13.573 -0.0309 -0.0547 -0.0965
 6396TIP3    H140679   1.107   4.704  13.600  1.9826 -0.7743  0.2589
 6396TIP3    H240680   1.078   4.566  13.655  1.8302 -1.1343 -0.7263
 6397TIP3   OH240681   5.085   5.612  16.261  0.2968  0.4341  0.0919
 6397TIP3    H140682   5.034   5.643  16.336 -0.5870  1.0203 -0.7442
 6397TIP3    H240683   5.158   5.674  16.256  1.1361 -0.4145  1.2937
 6398TIP3   OH240684   1.450   5.230  11.846 -0.5553  0.4025  0.1089
 6398TIP3    H140685   1.535   5.272  11.841  0.3792 -1.4010  0.4589
 6398TIP3    H240686   1.387   5.301  11.831  1.0233  1.4881 -1.6002
 6399TIP3   OH240687   6.691   4.786   4.203  0.2900 -0.9037  0.2329
 6399TIP3    H140688   6.603   4.822   4.207 -0.1926 -1.8935 -1.2117
 6399TIP3    H240689   6.704   4.745   4.288 -0.2407  0.1264  0.8279
 6400TIP3   OH240690   1.664   4.539   2.124 -0.2520  0.0919 -0.3291
 6400TIP3    H140691   1.577   4.533   2.086 -0.4369  0.9935 -0.0597
 6400TIP3    H240692   1.677   4.455   2.167 -1.7136  0.5710  1.1265
 6401TIP3   OH240693   3.319   4.888  13.924  0.4078  0.0031  0.2383
 6401TIP3    H140694   3.379   4.817  13.899 -0.2010 -0.5651  0.3640
 6401TIP3    H240695   3.331   4.897  14.018  1.1300  0.6705  0.0813
 6402TIP3   OH240696   2.282   0.560  14.577  0.0406 -0.2197  0.0492
 6402TIP3    H140697   2.272   0.561  14.482  2.2014 -1.4938 -0.2198
 6402TIP3    H240698   2.230   0.484  14.605 -2.5173  1.5013  0.1787
 6403TIP3   OH240699   5.313   4.094  13.401 -0.4916 -0.2082  0.2959
 6403TIP3    H140700   5.352   4.117  13.485 -1.6775  0.1159  0.7707
 6403TIP3    H240701   5.225   4.062  13.423 -0.4571 -1.0411 -0.7330
 6404TIP3   OH240702   2.822   4.311   1.751 -0.0693 -0.5927  0.4249
 6404TIP3    H140703   2.779   4.390   1.784 -0.5732 -0.7118  0.0635
 6404TIP3    H240704   2.851   4.335   1.663  1.2112 -0.2955  0.9114
 6405TIP3   OH240705   0.899   2.262  12.981 -0.4960 -0.2875 -0.0847
 6405TIP3    H140706   0.805   2.269  12.961 -0.7439 -0.0569  1.0814
 6405TIP3    H240707   0.941   2.254  12.896 -1.2300  3.4745 -0.9294
 6406TIP3   OH240708   2.929   4.344  15.978  0.0886  0.0122 -0.0933
 6406TIP3    H140709   2.996   4.407  16.006 -0.1993 -0.0951  0.8592
 6406TIP3    H240710   2.880   4.325  16.058  0.0336 -1.2581 -0.4290
 6407TIP3   OH240711   1.161   1.554   5.092  0.1536  0.4128 -0.6328
 6407TIP3    H140712   1.234   1.578   5.035  0.6714  1.0660  0.2832
 6407TIP3    H240713   1.190   1.473   5.135  0.5828  0.9769  0.1516
 6408TIP3   OH240714   0.046   1.088   0.817 -0.1785 -0.2782 -0.1555
 6408TIP3    H140715  -0.040   1.104   0.778  0.9144  0.7921 -2.1768
 6408TIP3    H240716   0.098   1.163   0.791  1.5822 -1.2620  0.4690
 6409TIP3   OH240717   3.289   4.845  11.972 -0.0214 -0.2525  0.5919
 6409TIP3    H140718   3.259   4.800  12.051 -0.5739 -1.8685 -0.5232
 6409TIP3    H240719   3.385   4.838  11.975 -0.1090 -1.6243  0.3653
 6410TIP3   OH240720   0.399   1.441  12.348  0.0402 -0.2822  0.3586
 6410TIP3    H140721   0.423   1.370  12.407  0.3417 -0.0112  0.5645
 6410TIP3    H240722   0.477   1.455  12.294 -0.2707 -0.6005 -0.1764
 6411TIP3   OH240723   3.475   6.281  11.170  0.3219  0.4512 -0.2406
 6411TIP3    H140724   3.440   6.197  11.201 -1.2486  0.1802 -2.5981
 6411TIP3    H240725   3.475   6.337  11.247 -1.4345 -0.8196  0.7267
 6412TIP3   OH240726   1.183   3.431  16.273  0.2411 -0.5314  0.5872
 6412TIP3    H140727   1.113   3.391  16.325 -0.1608 -2.5282 -1.3985
 6412TIP3    H240728   1.228   3.357  16.232  1.7434  0.8803 -0.3877
 6413TIP3   OH240729   0.742   3.321   4.799 -0.2049  0.2293 -0.4674
 6413TIP3    H140730   0.703   3.234   4.789 -2.1256  1.0207 -0.0833
 6413TIP3    H240731   0.715   3.349   4.887  1.7879  0.5466  0.0710
 6414TIP3   OH240732   1.999   2.467   0.122 -0.2944 -0.2578  0.1092
 6414TIP3    H140733   2.062   2.518   0.173 -0.0091 -0.5369  0.0419
 6414TIP3    H240734   2.050   2.434   0.048 -0.3147 -1.1676  0.4872
 6415TIP3   OH240735   6.068   1.175   4.007  1.0387  0.4196 -0.2144
 6415TIP3    H140736   6.053   1.080   4.009  0.5336  0.3986 -2.5925
 6415TIP3    H240737   6.134   1.190   4.074 -0.8063 -1.2285  2.0436
 6416TIP3   OH240738   2.327   0.687   2.669  0.7130 -0.2284  0.4811
 6416TIP3    H140739   2.279   0.677   2.752 -0.1787 -1.0037 -0.1222
 6416TIP3    H240740   2.294   0.617   2.614  0.9657  0.5770 -0.7040
 6417TIP3   OH240741   0.326   2.406  14.547 -0.4792 -0.3259  0.5622
 6417TIP3    H140742   0.242   2.361  14.541  0.4791 -1.9805 -0.7485
 6417TIP3    H240743   0.356   2.411  14.456  1.5015 -1.0212  1.1643
 6418TIP3   OH240744   0.112   0.182   4.968  0.1371 -0.5033  0.0011
 6418TIP3    H140745   0.087   0.269   4.999 -2.2415 -0.8823 -0.8126
 6418TIP3    H240746   0.208   0.186   4.961  0.2557  1.3110  2.1162
 6419TIP3   OH240747   5.983   5.533   6.518  0.0727 -0.1113 -0.0789
 6419TIP3    H140748   5.911   5.590   6.490 -0.2502  0.5697  2.0239
 6419TIP3    H240749   6.061   5.575   6.483 -0.4160 -0.1046 -1.2052
 6420TIP3   OH240750   1.287   1.589  11.832  0.2407 -0.3164 -0.1839
 6420TIP3    H140751   1.252   1.505  11.802  1.5002 -0.7514 -0.4488
 6420TIP3    H240752   1.275   1.587  11.927  2.3798 -1.8177  0.1067
 6421TIP3   OH240753   0.697   0.118  14.963 -0.6432 -0.4274 -0.0680
 6421TIP3    H140754   0.780   0.116  14.915 -1.2380 -1.7750 -1.0636
 6421TIP3    H240755   0.718   0.078  15.048 -0.7048 -2.7143 -1.0752
 6422TIP3   OH240756   6.687   3.364  11.532  0.8762 -0.1922 -0.2579
 6422TIP3    H140757   6.605   3.413  11.521  0.4895 -1.0403 -1.1622
 6422TIP3    H240758   6.659   3.275  11.553  1.5802  0.0679  1.8960
 6423TIP3   OH240759   5.687   3.042   3.418 -0.2511 -0.0162  0.6590
 6423TIP3    H140760   5.764   3.002   3.458  0.2407  0.1178 -0.1478
 6423TIP3    H240761   5.720   3.122   3.377 -0.4981 -0.8247 -1.1555
 6424TIP3   OH240762   2.987   4.044  15.561  0.0881 -0.4328 -0.7188
 6424TIP3    H140763   3.055   3.978  15.576 -1.4580 -1.4413  2.5256
 6424TIP3    H240764   3.014   4.119  15.614 -1.1091 -0.7405  0.3741
 6425TIP3   OH240765   2.382   1.583   3.375  0.4003 -0.1262  0.1126
 6425TIP3    H140766   2.448   1.651   3.383  0.4167 -0.2393  1.0409
 6425TIP3    H240767   2.422   1.505   3.414 -1.0410  0.3498  2.6739
 6426TIP3   OH240768   0.942   6.540  15.627  0.2227  0.2329  0.3962
 6426TIP3    H140769   0.989   6.623  15.618 -1.7060  1.4082  0.8773
 6426TIP3    H240770   0.896   6.530  15.543 -0.0713 -0.0336  0.5915
 6427TIP3   OH240771   1.643   0.887   2.700 -0.0305 -0.1183 -0.0793
 6427TIP3    H140772   1.670   0.798   2.678 -1.4832 -0.6498  0.2179
 6427TIP3    H240773   1.676   0.901   2.789 -0.7490 -0.7847  0.3049
 6428TIP3   OH240774   0.428   4.829  13.016  0.0983  0.0284 -0.0953
 6428TIP3    H140775   0.405   4.812  13.108 -0.1962  1.2203  0.0644
 6428TIP3    H240776   0.389   4.756  12.968  0.7833 -0.9314  0.7991
 6429TIP3   OH240777   1.347   2.793   2.241  0.0392 -0.5468 -0.0652
 6429TIP3    H140778   1.260   2.772   2.208  0.1588 -1.6690  0.3336
 6429TIP3    H240779   1.331   2.845   2.320 -0.2630 -0.9449  0.1319
 6430TIP3   OH240780   0.108   2.865   1.988  0.0209  0.2922 -0.1483
 6430TIP3    H140781   0.136   2.956   1.993  0.2750  0.3076 -1.5220
 6430TIP3    H240782   0.158   2.829   1.915 -1.8229 -0.2812 -1.1732
 6431TIP3   OH240783   4.610   1.823  11.493  0.2008  0.2591  0.5637
 6431TIP3    H140784   4.615   1.914  11.464  3.3417  0.2894  0.9807
 6431TIP3    H240785   4.663   1.821  11.573 -1.0593 -1.6388  1.3832
 6432TIP3   OH240786   1.112   4.083  13.380 -0.2210 -0.4720 -0.2061
 6432TIP3    H140787   1.042   4.109  13.440 -1.2261  1.2022 -2.0307
 6432TIP3    H240788   1.086   3.996  13.349 -0.9575 -0.2988 -0.0773
 6433TIP3   OH240789   4.428   4.139  11.673 -0.1499 -0.2736 -0.2647
 6433TIP3    H140790   4.348   4.108  11.715  1.4372 -2.8428  1.0288
 6433TIP3    H240791   4.424   4.106  11.584 -0.9223  0.3534 -0.4636
 6434TIP3   OH240792   2.718   2.172   5.411  0.0176  0.3141  0.2515
 6434TIP3    H140793   2.642   2.127   5.374  0.5260 -0.1087 -0.2717
 6434TIP3    H240794   2.680   2.243   5.464 -0.7480 -0.1312  0.3021
 6435TIP3   OH240795   0.484   4.736   6.433  0.2743 -0.0824  0.4075
 6435TIP3    H140796   0.456   4.826   6.421 -0.5318 -0.2938  0.6549
 6435TIP3    H240797   0.458   4.691   6.352 -0.1510 -0.2869  0.6528
 6436TIP3   OH240798   2.192   2.911  13.826  0.1382  0.0892  0.0307
 6436TIP3    H140799   2.160   2.951  13.745  2.3222 -1.0595 -1.4594
 6436TIP3    H240800   2.262   2.969  13.855 -0.1306  0.0870  0.6979
 6437TIP3   OH240801   3.619   5.396  11.846 -0.0276 -0.3475 -1.0646
 6437TIP3    H140802   3.661   5.337  11.784  0.5585 -1.5017  0.3914
 6437TIP3    H240803   3.548   5.343  11.884  0.1014  0.0863 -0.2129
 6438TIP3   OH240804   5.212   5.472  16.058 -0.7371 -0.3132 -0.5391
 6438TIP3    H140805   5.150   5.520  16.112 -0.5667 -0.5129 -0.1712
 6438TIP3    H240806   5.158   5.408  16.011 -0.7853 -0.5988 -0.0931
 6439TIP3   OH240807   3.092   6.091   5.143  0.3733  0.4660  0.3476
 6439TIP3    H140808   3.157   6.064   5.077  0.1278  3.0438 -1.0222
 6439TIP3    H240809   3.142   6.098   5.224  1.4927  0.8715 -0.3581
 6440TIP3   OH240810   6.268   5.472   2.985 -0.1125  0.2520  0.2302
 6440TIP3    H140811   6.342   5.531   2.998 -0.5765  0.6883  0.9362
 6440TIP3    H240812   6.272   5.412   3.059  1.2382 -1.5694 -1.2748
 6441TIP3   OH240813   3.077   5.869   5.560  0.8158  0.1535 -0.1275
 6441TIP3    H140814   3.072   5.774   5.575 -1.9125  0.3293  0.2487
 6441TIP3    H240815   3.156   5.896   5.606  1.1369 -1.8035  0.5362
 6442TIP3   OH240816   5.363   0.185   1.012  0.2834  0.4501  0.1037
 6442TIP3    H140817   5.409   0.268   0.997  0.0113  0.3684 -1.2818
 6442TIP3    H240818   5.272   0.211   1.025  0.4941  0.5077  1.5685
 6443TIP3   OH240819   6.321   3.525   1.344 -0.1475 -0.3072  0.3151
 6443TIP3    H140820   6.295   3.612   1.375 -0.0707  0.7520 -2.5218
 6443TIP3    H240821   6.239   3.483   1.320 -0.1633 -0.9703  1.4799
 6444TIP3   OH240822   0.410   6.400   6.057  0.7007 -0.6711  0.5302
 6444TIP3    H140823   0.460   6.327   6.019  0.5586  0.5465 -2.1110
 6444TIP3    H240824   0.318   6.377   6.041  0.6491 -0.0485 -0.1210
 6445TIP3   OH240825   6.324   1.614  14.853  0.4163 -0.4390 -0.5864
 6445TIP3    H140826   6.380   1.578  14.923  1.0072 -0.2666 -0.9642
 6445TIP3    H240827   6.238   1.575  14.869  0.8344 -1.3227 -0.4602
 6446TIP3   OH240828   6.583   2.343   0.721 -0.2105 -0.3725  0.3693
 6446TIP3    H140829   6.504   2.310   0.763 -0.3706 -0.8148 -0.2707
 6446TIP3    H240830   6.594   2.288   0.644 -0.0541  0.5899 -0.3004
 6447TIP3   OH240831   4.025   0.087   5.309 -0.0843 -0.0187  0.3353
 6447TIP3    H140832   4.093   0.046   5.362 -0.6256 -1.4849 -0.0744
 6447TIP3    H240833   3.989   0.016   5.256 -1.0091  1.0019 -0.4424
 6448TIP3   OH240834   4.224   5.665   2.643 -0.8125  0.6902 -0.3476
 6448TIP3    H140835   4.191   5.673   2.733 -2.4291 -0.2220 -0.8400
 6448TIP3    H240836   4.301   5.609   2.651 -3.3407 -2.8994 -0.0111
 6449TIP3   OH240837   1.532   3.650   2.948 -0.1789 -0.1160  0.5282
 6449TIP3    H140838   1.539   3.731   2.999  2.8805 -0.5876  0.9332
 6449TIP3    H240839   1.443   3.619   2.964 -1.1505  2.7796  0.9537
 6450TIP3   OH240840   3.308   3.415  11.438 -0.6245  0.5583  0.0212
 6450TIP3    H140841   3.279   3.488  11.383  2.1834  1.8610  0.1789
 6450TIP3    H240842   3.383   3.378  11.391 -0.8427 -1.0419  0.8880
 6451TIP3   OH240843   2.237   4.678   5.184 -0.2582  0.2332 -0.3598
 6451TIP3    H140844   2.214   4.606   5.243  0.5212 -0.0353 -0.3829
 6451TIP3    H240845   2.315   4.718   5.223  1.3000 -1.0375 -2.1237
 6452TIP3   OH240846   6.306   1.498   3.998  0.2998 -0.3372 -0.0049
 6452TIP3    H140847   6.261   1.514   4.082 -1.0198 -0.2993 -0.7061
 6452TIP3    H240848   6.316   1.584   3.959  2.9180 -0.1107  1.0994
 6453TIP3   OH240849   1.493   3.554  16.804 -0.4475 -0.0281  0.1729
 6453TIP3    H140850   1.468   3.520  16.719 -0.4593  0.4858 -0.0307
 6453TIP3    H240851   1.425   3.616  16.827 -0.2931  0.0521  0.4249
 6454TIP3   OH240852   3.860   6.610  11.540  0.1565  0.6032 -0.4823
 6454TIP3    H140853   3.899   6.689  11.502 -1.5235  1.3198 -0.7977
 6454TIP3    H240854   3.842   6.634  11.631  1.7642 -0.2115  0.0550
 6455TIP3   OH240855   4.141   4.186   0.899  0.3190  0.4096 -0.1368
 6455TIP3    H140856   4.237   4.189   0.893  0.4861 -0.6896  1.7431
 6455TIP3    H240857   4.122   4.201   0.992 -1.3206  0.1301 -0.4085
 6456TIP3   OH240858   0.756   1.226  15.390 -0.1173 -0.1586 -0.0056
 6456TIP3    H140859   0.725   1.265  15.472 -0.8659 -0.7255 -0.0091
 6456TIP3    H240860   0.684   1.170  15.362 -0.4037  1.0562 -1.7495
 6457TIP3   OH240861   6.401   1.935  11.731 -0.4446  0.3638  0.2174
 6457TIP3    H140862   6.401   1.891  11.646  0.6536 -0.9663  0.8726
 6457TIP3    H240863   6.328   1.894  11.778 -0.1578  0.0564  0.4051
 6458TIP3   OH240864   0.972   2.327   6.762  0.0411  0.6895  0.3305
 6458TIP3    H140865   0.943   2.321   6.853  0.9452 -0.0749  0.5777
 6458TIP3    H240866   1.067   2.335   6.768  0.2367 -0.8437 -0.5856
 6459TIP3   OH240867   6.109   0.941   4.687 -0.2147 -0.1522 -0.6675
 6459TIP3    H140868   6.046   1.010   4.709 -1.5344 -0.8161 -2.1735
 6459TIP3    H240869   6.122   0.893   4.768 -2.2815 -0.4563 -0.4684
 6460TIP3   OH240870   3.812   1.258   4.374 -0.0438 -0.1493  0.3113
 6460TIP3    H140871   3.727   1.217   4.359  0.2973 -1.1166  0.9366
 6460TIP3    H240872   3.837   1.229   4.462  2.6862 -3.0753 -1.3107
 6461TIP3   OH240873   0.599   2.657   3.632  0.5922  0.3657  0.4351
 6461TIP3    H140874   0.571   2.618   3.715  1.1652 -0.5437  0.2113
 6461TIP3    H240875   0.608   2.750   3.651 -0.7973  0.3930  0.9781
 6462TIP3   OH240876   3.757   1.448   6.081 -0.3239  0.5143  0.5671
 6462TIP3    H140877   3.819   1.376   6.067 -0.1527  0.6641  0.5467
 6462TIP3    H240878   3.706   1.421   6.157  0.8796  1.1352  1.6150
 6463TIP3   OH240879   0.619   3.829   5.996  0.0853  0.3360  0.3818
 6463TIP3    H140880   0.656   3.783   5.920 -2.0732  0.6967 -0.9179
 6463TIP3    H240881   0.673   3.800   6.070  0.6410 -1.9853 -0.8801
 6464TIP3   OH240882   3.585   4.679   3.739 -0.2221  0.0615  0.4923
 6464TIP3    H140883   3.498   4.707   3.769 -0.4469 -0.9206  0.7702
 6464TIP3    H240884   3.607   4.605   3.796 -0.0674 -0.9632 -0.8714
 6465TIP3   OH240885   3.573   5.798  14.784  0.3095  0.3123  0.3592
 6465TIP3    H140886   3.649   5.745  14.810  0.6470 -0.2795 -1.7463
 6465TIP3    H240887   3.511   5.789  14.857  1.4585 -0.7898  1.2184
 6466TIP3   OH240888   3.210   0.145  15.616  0.5364 -0.3235 -0.0810
 6466TIP3    H140889   3.143   0.206  15.647 -0.4790 -0.5678 -1.7721
 6466TIP3    H240890   3.176   0.058  15.639  1.3200 -0.3541  1.0344
 6467TIP3   OH240891   0.107   1.106   0.395  0.1246  0.2484  0.4103
 6467TIP3    H140892   0.073   1.023   0.431  0.7986 -0.8208 -1.3444
 6467TIP3    H240893   0.068   1.173   0.450  0.8182 -1.2996  2.9030
 6468TIP3   OH240894   4.883   4.833   0.025 -0.3239 -0.4068 -0.4302
 6468TIP3    H140895   4.812   4.783  -0.013 -1.1197 -1.2951  2.1240
 6468TIP3    H240896   4.952   4.768   0.043 -0.0105 -0.0370 -0.2661
 6469TIP3   OH240897   5.902   2.499  12.563 -0.1374 -0.0122  0.3007
 6469TIP3    H140898   5.835   2.432  12.560  1.6185 -1.8555  0.9731
 6469TIP3    H240899   5.983   2.452  12.583  1.4438  2.0832 -0.8854
 6470TIP3   OH240900   0.491   5.061  12.636  0.0594 -0.0617 -0.4506
 6470TIP3    H140901   0.510   5.146  12.596  2.0014 -0.1679  0.1894
 6470TIP3    H240902   0.450   5.010  12.566 -1.2150  1.4133 -0.8177
 6471TIP3   OH240903   4.984   1.656   3.271  0.0763  0.7086 -0.1513
 6471TIP3    H140904   5.043   1.709   3.325  0.2862  1.4414 -1.0962
 6471TIP3    H240905   4.975   1.705   3.190  1.5522 -1.5192 -1.6850
 6472TIP3   OH240906   3.228   1.594   3.967  0.5330 -0.5543 -0.5996
 6472TIP3    H140907   3.222   1.597   4.063  1.4488  0.7838 -0.5774
 6472TIP3    H240908   3.321   1.585   3.949  0.3818 -0.5803 -1.3792
 6473TIP3   OH240909   1.141   1.037   1.589  0.5459 -0.6348 -0.0175
 6473TIP3    H140910   1.067   1.098   1.594  1.0953  0.1422 -1.1376
 6473TIP3    H240911   1.114   0.961   1.641 -0.1890  0.5244  1.2993
 6474TIP3   OH240912   4.442   5.754  17.196  0.4133  0.3845  0.0929
 6474TIP3    H140913   4.496   5.805  17.136  0.6317 -1.6238 -1.4666
 6474TIP3    H240914   4.493   5.675  17.213 -0.2742  0.2936  1.8374
 6475TIP3   OH240915   4.221   6.181  15.478  0.2334 -0.0736  0.4966
 6475TIP3    H140916   4.229   6.251  15.543 -1.5736  2.0348 -1.5042
 6475TIP3    H240917   4.170   6.113  15.522  1.2583  0.1879  2.1457
 6476TIP3   OH240918   5.375   2.567   4.858  0.0742 -0.2179 -0.4974
 6476TIP3    H140919   5.332   2.525   4.784  0.2839 -0.6897 -0.3556
 6476TIP3    H240920   5.442   2.504   4.886  0.5610  0.3201 -0.4408
 6477TIP3   OH240921   6.676   6.174  11.501 -0.5905  0.1517 -0.1755
 6477TIP3    H140922   6.589   6.171  11.542 -0.2057  0.0798  0.6454
 6477TIP3    H240923   6.660   6.145  11.411 -1.7008  1.8138 -0.5372
 6478TIP3   OH240924   2.752   4.814  16.327  0.4434 -0.3025  0.2732
 6478TIP3    H140925   2.659   4.790  16.332  0.0770  0.7897 -1.0553
 6478TIP3    H240926   2.780   4.816  16.418 -1.3583  1.3105  0.8317
 6479TIP3   OH240927   1.510   3.751   4.649 -0.6442  0.4954  0.2334
 6479TIP3    H140928   1.567   3.719   4.719 -1.5609  0.7494  1.1122
 6479TIP3    H240929   1.470   3.672   4.613  1.5103  0.1566 -1.5211
 6480TIP3   OH240930   2.085   4.607   0.844  0.2307 -0.6663 -0.2051
 6480TIP3    H140931   2.148   4.652   0.899  0.4327 -1.0382 -0.1301
 6480TIP3    H240932   2.131   4.593   0.761  0.0946 -0.5458 -0.3025
 6481TIP3   OH240933   5.626   0.314  16.050  0.2126 -0.1342  0.0588
 6481TIP3    H140934   5.571   0.266  15.989 -1.8311  0.0985  1.6309
 6481TIP3    H240935   5.679   0.372  15.995 -0.3885 -1.1124 -1.5721
 6482TIP3   OH240936   4.923   6.642  12.394 -0.4092  0.4769 -0.0943
 6482TIP3    H140937   4.893   6.612  12.480  1.5004 -1.8991 -0.2081
 6482TIP3    H240938   4.939   6.562  12.345  3.3339  1.6286 -0.9609
 6483TIP3   OH240939   4.201   4.674  14.951  0.0213 -0.1726 -0.3344
 6483TIP3    H140940   4.249   4.610  15.003 -1.9166  0.0333  1.7993
 6483TIP3    H240941   4.243   4.758  14.971  0.0242 -0.2552  0.0034
 6484TIP3   OH240942   1.305   0.200  14.025  0.0597  0.2234  0.3878
 6484TIP3    H140943   1.229   0.230  14.075 -0.0227 -0.5879  0.7594
 6484TIP3    H240944   1.378   0.205  14.087 -0.0856 -1.0092  0.6669
 6485TIP3   OH240945   6.588   1.075   4.105 -0.1541  0.0240  0.3234
 6485TIP3    H140946   6.552   1.120   4.029 -0.6133 -1.7483 -0.5392
 6485TIP3    H240947   6.621   0.992   4.070 -0.2116 -0.7326  2.0133
 6486TIP3   OH240948   1.417   1.555   0.914 -0.5669  0.2964 -0.2027
 6486TIP3    H140949   1.420   1.543   1.009  1.1005  0.3574 -0.2256
 6486TIP3    H240950   1.386   1.471   0.879 -1.9109  0.5155  0.4240
 6487TIP3   OH240951   6.773   0.344   3.483 -0.2620 -0.1879  0.5093
 6487TIP3    H140952   6.791   0.270   3.541 -0.6360 -2.0565 -1.6743
 6487TIP3    H240953   6.859   0.379   3.460  0.0826 -1.7625 -0.6919
 6488TIP3   OH240954   0.449   4.298   2.442 -0.2503  0.0530  0.0933
 6488TIP3    H140955   0.529   4.339   2.474 -0.7127 -0.0844  1.4486
 6488TIP3    H240956   0.470   4.205   2.437 -0.2075  0.0643  0.0559
 6489TIP3   OH240957   4.480   1.559  13.750  0.0571 -0.2471  0.2145
 6489TIP3    H140958   4.546   1.605  13.803 -0.1490  1.0653 -0.6335
 6489TIP3    H240959   4.494   1.592  13.661 -0.8809 -0.9539 -0.2039
 6490TIP3   OH240960   6.215   3.625  16.537  0.3091 -0.5770  0.1418
 6490TIP3    H140961   6.216   3.610  16.632 -1.6699 -1.0911  0.0871
 6490TIP3    H240962   6.289   3.572  16.505 -1.0686 -3.1465  1.0244
 6491TIP3   OH240963   0.271   5.249  15.334 -0.0890  0.0057  0.2997
 6491TIP3    H140964   0.304   5.262  15.245 -1.6785  0.1954 -0.2699
 6491TIP3    H240965   0.301   5.161  15.358 -0.3923 -0.3893 -0.7523
 6492TIP3   OH240966   4.923   4.869  10.920 -0.0970  0.2052 -0.0298
 6492TIP3    H140967   5.002   4.920  10.901  0.2459 -0.4081 -0.2778
 6492TIP3    H240968   4.955   4.793  10.967 -0.8978  1.5254  2.7625
 6493TIP3   OH240969   6.123   3.398   0.687 -0.1694  0.1602 -0.1035
 6493TIP3    H140970   6.029   3.416   0.695  0.0249  0.2568  2.5839
 6493TIP3    H240971   6.164   3.465   0.743  1.5880  0.8142 -2.1189
 6494TIP3   OH240972   2.241   1.596   3.606 -0.3952 -0.1895 -0.1214
 6494TIP3    H140973   2.272   1.602   3.516 -0.3351 -0.8236 -0.1439
 6494TIP3    H240974   2.175   1.526   3.604  0.7034 -1.2792  0.6297
 6495TIP3   OH240975   0.455   3.986   6.132 -0.3629 -0.2368 -0.1076
 6495TIP3    H140976   0.384   3.937   6.092  0.2791  0.7162 -2.5157
 6495TIP3    H240977   0.534   3.939   6.107  0.0213  0.0152  0.6013
 6496TIP3   OH240978   3.077   3.517   3.724  0.3445  0.7338  0.3056
 6496TIP3    H140979   3.156   3.572   3.722  0.8553 -0.0071 -0.2293
 6496TIP3    H240980   3.025   3.552   3.796  1.9821  0.1228  1.8255
 6497TIP3   OH240981   1.204   0.091  16.710 -0.1792  0.0911  0.4294
 6497TIP3    H140982   1.227  -0.000  16.694  0.1708  0.2597 -0.0014
 6497TIP3    H240983   1.285   0.140  16.698 -0.0355  0.3036  2.0454
 6498TIP3   OH240984   5.096   5.745   4.997  0.3930  0.0309  0.0501
 6498TIP3    H140985   5.147   5.702   5.066  0.4182  1.4271  0.9085
 6498TIP3    H240986   5.007   5.711   5.009  0.5378 -0.2657  0.3110
 6499TIP3   OH240987   1.926   3.227  16.932  0.1908 -0.1330 -0.6293
 6499TIP3    H140988   1.885   3.142  16.915 -3.4865  1.3138  0.4881
 6499TIP3    H240989   1.855   3.290  16.922  2.6355  2.7688 -0.5015
 6500TIP3   OH240990   3.677   0.900   4.908  0.6838  0.1174  0.3370
 6500TIP3    H140991   3.632   0.973   4.949  0.5690 -0.1726  0.7374
 6500TIP3    H240992   3.763   0.898   4.951  0.5740 -0.1678  0.5496
 6501TIP3   OH240993   1.369   0.546  15.405  0.2744  0.4218 -0.6951
 6501TIP3    H140994   1.325   0.620  15.446 -1.2998 -0.3957 -0.8900
 6501TIP3    H240995   1.433   0.586  15.346  2.0538  1.6301  1.9406
 6502TIP3   OH240996   3.162   0.814   0.839 -0.1414  0.0545  0.1262
 6502TIP3    H140997   3.133   0.768   0.759 -0.0979  0.7053 -0.2629
 6502TIP3    H240998   3.122   0.900   0.832 -0.0410  0.1489  0.7582
 6503TIP3   OH240999   5.681   6.684   1.106  0.3108 -0.2243 -0.3156
 6503TIP3    H141000   5.630   6.693   1.187 -0.4609  0.2347 -0.8400
 6503TIP3    H241001   5.762   6.643   1.133  0.1120  0.0483  0.7234
 6504TIP3   OH241002   2.831   0.543  15.262  0.2123  0.0681 -0.1597
 6504TIP3    H141003   2.898   0.475  15.254 -0.1214 -0.0319 -2.4535
 6504TIP3    H241004   2.748   0.497  15.246 -0.1558  0.6988 -0.0830
 6505TIP3   OH241005   4.571   6.506  11.383  0.1643 -0.7268  0.1499
 6505TIP3    H141006   4.487   6.469  11.359 -0.3740  0.4693  0.1609
 6505TIP3    H241007   4.566   6.598  11.358  1.0811 -0.3948  1.0970
 6506TIP3   OH241008   4.201   5.451  12.071 -0.0752  0.3371 -0.2007
 6506TIP3    H141009   4.156   5.397  12.005 -0.0463 -0.3422  0.3352
 6506TIP3    H241010   4.220   5.390  12.142  2.5404  0.4084 -0.8064
 6507TIP3   OH241011   0.542   5.774  14.011  0.3404  0.2584 -0.3883
 6507TIP3    H141012   0.572   5.854  13.967 -0.0948  1.9641  2.2592
 6507TIP3    H241013   0.464   5.802  14.059 -1.6129 -2.5153 -1.8330
 6508TIP3   OH241014   1.781   2.119  13.463  0.1714 -0.0838 -0.2314
 6508TIP3    H141015   1.762   2.028  13.487  0.3764  0.2016  1.0509
 6508TIP3    H241016   1.776   2.120  13.367  1.5287 -1.7465 -0.3478
 6509TIP3   OH241017   4.227   6.756   3.266 -0.0641  0.4418  0.6259
 6509TIP3    H141018   4.260   6.680   3.219 -0.9430  0.2339  0.3456
 6509TIP3    H241019   4.272   6.831   3.226  0.9491  0.0593  1.0353
 6510TIP3   OH241020   1.664   0.649  13.720  0.1288  0.0331  0.0748
 6510TIP3    H141021   1.635   0.737  13.744  0.5463  0.3711 -0.6253
 6510TIP3    H241022   1.606   0.590  13.768 -0.4096  0.6973  0.2450
 6511TIP3   OH241023   3.012   4.797  11.032  0.4548 -0.2622 -0.3650
 6511TIP3    H141024   2.961   4.877  11.040  1.4408  0.2555  0.9801
 6511TIP3    H241025   3.061   4.807  10.951  1.0073  0.7576  0.0909
 6512TIP3   OH241026   3.255   4.336  13.164 -0.0350  0.1033  0.5068
 6512TIP3    H141027   3.293   4.395  13.098  1.7321 -3.0086 -1.3974
 6512TIP3    H241028   3.166   4.319  13.132  0.5478 -0.7609 -0.7268
 6513TIP3   OH241029   0.000   0.852  12.950 -0.5722 -0.3533  0.3818
 6513TIP3    H141030  -0.044   0.785  13.001 -0.9392 -0.9066 -0.6516
 6513TIP3    H241031  -0.068   0.916  12.929 -0.6914 -0.7379 -0.4271
 6514TIP3   OH241032   1.740   0.223  14.783  0.2624  0.1500  0.0591
 6514TIP3    H141033   1.690   0.249  14.860 -2.0236 -0.0021 -1.3275
 6514TIP3    H241034   1.744   0.303  14.730  0.0125 -0.2871 -0.6153
 6515TIP3   OH241035   4.821   3.821  13.215  0.2068  0.4574  0.3019
 6515TIP3    H141036   4.757   3.828  13.144 -0.8131 -1.1226  1.0428
 6515TIP3    H241037   4.906   3.814  13.171 -0.1556  2.1665 -0.6965
 6516TIP3   OH241038   2.553   2.382   0.024  0.0950 -0.4472  0.3785
 6516TIP3    H141039   2.514   2.296   0.007  0.9975 -0.4619 -1.8156
 6516TIP3    H241040   2.482   2.444   0.010 -0.0097 -0.6975 -0.2012
 6517TIP3   OH241041   4.163   5.933  12.729 -0.1511  0.5241 -0.2046
 6517TIP3    H141042   4.095   5.886  12.778  0.5099 -1.6782 -1.2856
 6517TIP3    H241043   4.179   6.012  12.779  0.2354 -1.4553  2.9710
 6518TIP3   OH241044   2.986   5.865  13.044  0.1560  0.0592 -0.6572
 6518TIP3    H141045   2.941   5.944  13.013 -1.1451 -0.3649  0.1132
 6518TIP3    H241046   3.006   5.816  12.964  3.7227  2.5470 -1.4344
 6519TIP3   OH241047   0.882   3.671  12.218 -0.6087  0.7116  0.0930
 6519TIP3    H141048   0.820   3.616  12.266 -1.1384 -0.1689 -1.5462
 6519TIP3    H241049   0.829   3.745  12.186 -1.0498 -0.4398 -1.9766
 6520TIP3   OH241050   3.568   4.822  14.383  0.1726  0.3108 -0.2083
 6520TIP3    H141051   3.626   4.850  14.313  1.1737  0.4275  0.6600
 6520TIP3    H241052   3.587   4.729  14.394 -1.7950 -0.3156 -1.7980
 6521TIP3   OH241053   2.927   1.718   3.257  0.2890 -0.7019 -0.3975
 6521TIP3    H141054   2.962   1.733   3.170  0.8404  1.3485  0.1511
 6521TIP3    H241055   2.866   1.790   3.272  0.3387 -0.9220  0.9877
 6522TIP3   OH241056   6.203   0.300   1.747  0.1607  0.5322 -0.5364
 6522TIP3    H141057   6.268   0.233   1.767 -2.0417 -1.7714 -0.7711
 6522TIP3    H241058   6.184   0.288   1.654 -1.5304  0.2802 -0.1752
 6523TIP3   OH241059   4.360   5.524   4.632 -0.1604 -0.3291 -0.1795
 6523TIP3    H141060   4.319   5.540   4.547  0.8169  1.1429 -0.3793
 6523TIP3    H241061   4.330   5.595   4.687  1.3743  0.2577 -0.0700
 6524TIP3   OH241062   2.983   0.318   3.389 -0.1851  0.0687 -0.0795
 6524TIP3    H141063   2.926   0.242   3.378  0.3166 -0.3667  0.2817
 6524TIP3    H241064   2.936   0.375   3.450  0.4538 -1.0110  1.4637
 6525TIP3   OH241065   4.574   6.555   5.271 -0.1669  0.1715 -0.1661
 6525TIP3    H141066   4.580   6.465   5.239 -0.3615 -0.6514  2.0698
 6525TIP3    H241067   4.662   6.590   5.259 -0.3185  0.0144 -1.9188
 6526TIP3   OH241068   3.294   0.269  14.749  0.1537 -0.3282  0.0937
 6526TIP3    H141069   3.235   0.228  14.686 -1.1299  1.3001  0.2088
 6526TIP3    H241070   3.321   0.197  14.806  1.4864 -1.8555 -2.3797
 6527TIP3   OH241071   1.189   4.673  14.545  0.3983  0.0331  0.4335
 6527TIP3    H141072   1.119   4.723  14.502  0.1562 -0.7960 -0.1453
 6527TIP3    H241073   1.148   4.638  14.624 -0.1469 -1.2740 -0.4008
 6528TIP3   OH241074   3.972   1.307   2.984  0.4656 -0.1032  0.3125
 6528TIP3    H141075   4.022   1.385   2.961  0.6046 -0.2486  0.1265
 6528TIP3    H241076   4.028   1.260   3.046 -0.0820  0.4940  1.2753
 6529TIP3   OH241077   6.006   2.169   5.410  0.5716 -0.0869 -0.2996
 6529TIP3    H141078   6.036   2.254   5.440  1.1661 -0.6469  0.7201
 6529TIP3    H241079   5.924   2.154   5.457 -0.2369  0.5207 -1.5085
 6530TIP3   OH241080   0.312   2.452   5.136  0.2236 -0.3376 -0.5125
 6530TIP3    H141081   0.292   2.368   5.176  0.6990  0.6230  1.8171
 6530TIP3    H241082   0.408   2.455   5.133  0.2904  1.0236  1.5273
 6531TIP3   OH241083   3.278   2.482   4.912  0.3933  0.0701 -0.4798
 6531TIP3    H141084   3.191   2.520   4.905  0.1629 -0.7106 -1.9346
 6531TIP3    H241085   3.267   2.391   4.887  1.1696 -0.6813  1.8582
 6532TIP3   OH241086   5.189   6.672  15.861  0.1755  0.4801  0.0969
 6532TIP3    H141087   5.204   6.729  15.785 -0.0787 -0.8792 -0.9946
 6532TIP3    H241088   5.218   6.724  15.936 -0.1392  2.0747 -0.8656
 6533TIP3   OH241089   1.701   6.668  11.269 -0.7800 -0.4265 -0.7656
 6533TIP3    H141090   1.740   6.755  11.272 -1.1299 -0.2706 -0.7748
 6533TIP3    H241091   1.718   6.636  11.181 -2.4386  0.4538 -1.4364
 6534TIP3   OH241092   1.216   2.567   5.158  0.2984  0.1632 -0.4939
 6534TIP3    H141093   1.229   2.627   5.084  0.8481  0.1695 -0.3960
 6534TIP3    H241094   1.250   2.615   5.234  1.3057 -0.5059 -0.5142
 6535TIP3   OH241095   2.702   2.081  15.110 -0.5783 -0.3974 -0.3060
 6535TIP3    H141096   2.739   2.158  15.067 -0.5812 -1.2067 -1.7871
 6535TIP3    H241097   2.750   2.007  15.072 -0.2533 -1.1063  1.4450
 6536TIP3   OH241098   3.866   2.827   5.387 -0.1566 -0.0451  0.5749
 6536TIP3    H141099   3.916   2.909   5.385  0.4569 -0.4422 -0.1927
 6536TIP3    H241100   3.915   2.767   5.333 -1.1484 -0.6325  0.3120
 6537TIP3   OH241101   0.745   4.614   6.085  0.4647  0.4880 -0.1388
 6537TIP3    H141102   0.806   4.601   6.157  0.4182  0.6578 -0.0691
 6537TIP3    H241103   0.793   4.585   6.008  0.3442 -0.1384  0.0225
 6538TIP3   OH241104   1.090   4.876  16.235 -0.0693 -0.5476 -0.1114
 6538TIP3    H141105   1.116   4.962  16.201 -0.7186  0.5396  2.0902
 6538TIP3    H241106   0.994   4.881  16.240  0.0803 -0.0921  3.3180
 6539TIP3   OH241107   6.240   2.429   4.290  0.4587  0.4289  0.8408
 6539TIP3    H141108   6.221   2.463   4.202 -0.8512  1.2836  1.4439
 6539TIP3    H241109   6.298   2.355   4.274  0.7720  0.9789 -0.7134
 6540TIP3   OH241110   3.242   1.212  17.063  0.2282 -0.0157  0.2831
 6540TIP3    H141111   3.270   1.121  17.071 -0.9027 -0.3271  0.8504
 6540TIP3    H241112   3.196   1.231  17.145  1.4377  1.4261  0.6527
 6541TIP3   OH241113   2.459   5.014  11.060  0.2500  0.4264 -0.2568
 6541TIP3    H141114   2.424   4.968  10.983  0.9200 -0.8242  0.1722
 6541TIP3    H241115   2.461   5.106  11.034 -3.4764  0.5837 -0.2511
 6542TIP3   OH241116   3.792   1.896  13.085  0.4326 -0.5747 -0.2039
 6542TIP3    H141117   3.841   1.885  13.167  1.4866 -0.9560 -0.8702
 6542TIP3    H241118   3.830   1.974  13.045 -0.0789 -0.3924 -0.3346
 6543TIP3   OH241119   4.160   5.018  14.486 -0.3823 -0.9104  0.2589
 6543TIP3    H141120   4.200   5.099  14.452 -0.7265 -1.4393 -1.4631
 6543TIP3    H241121   4.212   4.996  14.563 -0.0020  0.7103  0.4805
 6544TIP3   OH241122   4.787   4.371   5.147  0.3494 -0.5296  0.1254
 6544TIP3    H141123   4.744   4.404   5.226 -0.2542 -1.1841  0.0710
 6544TIP3    H241124   4.817   4.450   5.102  1.3158 -0.1792  1.3439
 6545TIP3   OH241125   3.649   4.625  10.040 -0.1162 -0.3657  0.3746
 6545TIP3    H141126   3.557   4.623  10.067 -0.2640 -2.7449 -0.1804
 6545TIP3    H241127   3.698   4.611  10.121 -0.3178 -0.8691  0.4121
 6546TIP3   OH241128   1.636   4.514   3.080  0.5536 -0.1593 -0.2306
 6546TIP3    H141129   1.656   4.453   3.151  2.2698  2.4966  1.6807
 6546TIP3    H241130   1.548   4.545   3.099  0.7095 -0.0434  0.3183
 6547TIP3   OH241131   6.434   6.678   3.712 -0.1354  0.3917  0.0174
 6547TIP3    H141132   6.452   6.603   3.768 -1.1051 -0.6197 -0.9902
 6547TIP3    H241133   6.389   6.641   3.636  1.9583  1.5856 -1.8716
 6548TIP3   OH241134   0.603   1.486   3.036 -0.3131 -0.4583  0.5402
 6548TIP3    H141135   0.591   1.485   2.940 -2.0000 -0.9675  0.7258
 6548TIP3    H241136   0.685   1.440   3.050 -0.4246 -1.0537 -0.6364
 6549TIP3   OH241137   2.108   1.916   0.746  0.2051  0.2199 -0.0006
 6549TIP3    H141138   2.114   1.997   0.797 -0.9028  1.1458 -1.3223
 6549TIP3    H241139   2.199   1.886   0.738  0.9525  2.8290 -1.8640
 6550TIP3   OH241140   1.781   3.071   4.615 -0.1804 -0.9523 -0.5893
 6550TIP3    H141141   1.686   3.064   4.610 -0.2537 -0.5175  0.1614
 6550TIP3    H241142   1.810   3.078   4.524 -0.8494 -1.2451 -0.8252
 6551TIP3   OH241143   4.690   2.990  11.170  0.4767 -0.4069  0.6924
 6551TIP3    H141144   4.693   3.062  11.234  1.2079 -0.7858  1.0846
 6551TIP3    H241145   4.684   3.035  11.085  1.1731  0.1395  0.9161
 6552TIP3   OH241146   4.150   3.145   5.794 -0.1013  0.4766 -0.1451
 6552TIP3    H141147   4.240   3.149   5.760  0.1594  1.5019  0.6433
 6552TIP3    H241148   4.127   3.052   5.789  1.9825 -0.2056  2.1467
 6553TIP3   OH241149   6.035   3.649  11.218 -0.7570 -0.2396  0.3415
 6553TIP3    H141150   6.057   3.710  11.148 -2.1378  1.1208  1.0558
 6553TIP3    H241151   5.954   3.606  11.189 -0.8375 -0.3290  0.6933
 6554TIP3   OH241152   0.477   5.504   1.299  0.5219  0.2452  0.6421
 6554TIP3    H141153   0.500   5.552   1.220  0.5682 -1.1432 -0.1949
 6554TIP3    H241154   0.383   5.515   1.308  0.5386  0.5231  0.4915
 6555TIP3   OH241155   2.482   6.788  14.074 -0.4576 -0.0278 -0.3760
 6555TIP3    H141156   2.392   6.756  14.080 -0.4854 -0.3001 -1.8790
 6555TIP3    H241157   2.520   6.737  14.002  1.0249 -0.2148  0.5182
 6556TIP3   OH241158   4.373   0.734   1.679 -0.3115  0.1302 -0.6235
 6556TIP3    H141159   4.423   0.813   1.659  0.1083  0.1419  0.4105
 6556TIP3    H241160   4.435   0.678   1.725 -1.3427  0.3046  1.0286
 6557TIP3   OH241161   4.494   5.961   3.470 -0.2043  0.5039  0.3246
 6557TIP3    H141162   4.578   5.973   3.514 -0.0993  0.7912  0.0519
 6557TIP3    H241163   4.447   6.043   3.486 -0.5995  0.1704  0.8452
 6558TIP3   OH241164   3.821   6.421  10.837  0.0935  0.2767 -0.0015
 6558TIP3    H141165   3.810   6.512  10.809 -0.5517 -0.3574 -1.8782
 6558TIP3    H241166   3.915   6.410  10.848  0.2400  0.9498 -0.5491
 6559TIP3   OH241167   2.469   3.929   4.400 -0.4686 -0.0123 -0.1269
 6559TIP3    H141168   2.505   3.842   4.417 -0.4045  0.0604  0.1013
 6559TIP3    H241169   2.385   3.912   4.357 -1.7127 -0.2114  2.3350
 6560TIP3   OH241170   2.274   3.598   4.012  0.6011  0.0396 -0.1993
 6560TIP3    H141171   2.188   3.570   3.980  0.6865 -0.0901 -0.3147
 6560TIP3    H241172   2.337   3.550   3.957  0.7672  2.1411 -1.9240
 6561TIP3   OH241173   3.783   1.960  10.952  0.1666 -0.4707  0.6763
 6561TIP3    H141174   3.868   2.004  10.956 -0.3797  0.5653  1.1239
 6561TIP3    H241175   3.804   1.868  10.938  1.3433 -0.0945 -0.1055
 6562TIP3   OH241176   1.519   5.551   1.618 -0.1856 -0.5477 -0.0687
 6562TIP3    H141177   1.533   5.542   1.713 -1.0283 -0.6530  0.0462
 6562TIP3    H241178   1.451   5.617   1.611 -1.4695 -1.9068 -0.5375
 6563TIP3   OH241179   5.003   1.443  14.337 -0.0894  0.7821  0.2107
 6563TIP3    H141180   5.041   1.476  14.418 -1.0479  0.7845  0.6626
 6563TIP3    H241181   4.954   1.518  14.302 -2.1005 -0.0636  1.1350
 6564TIP3   OH241182   6.749   1.940   3.759 -0.3850  0.5044  0.1294
 6564TIP3    H141183   6.821   1.923   3.698  0.5904  1.7191  0.9144
 6564TIP3    H241184   6.779   2.014   3.812 -1.7106  0.2443  1.2862
 6565TIP3   OH241185   1.091   4.908  14.753  0.4847 -0.5030 -0.3475
 6565TIP3    H141186   1.112   4.845  14.821 -1.9500 -1.3757 -0.3904
 6565TIP3    H241187   1.001   4.934  14.770  0.9852  1.9303 -1.1608
 6566TIP3   OH241188   0.661   4.259   3.951 -0.3793 -0.3708 -0.7219
 6566TIP3    H141189   0.659   4.218   4.038  1.2383 -0.5337 -0.7453
 6566TIP3    H241190   0.622   4.345   3.965  3.2617  1.0870  1.0171
 6567TIP3   OH241191   3.801   0.313   4.210  0.4580  0.2331 -0.3944
 6567TIP3    H141192   3.801   0.217   4.208 -0.4909  0.2153  0.2003
 6567TIP3    H241193   3.844   0.339   4.128  2.8356 -0.6990  0.4955
 6568TIP3   OH241194   4.562   4.550   1.071  0.1195  0.0221  0.0051
 6568TIP3    H141195   4.614   4.474   1.099 -1.1586 -1.4306 -1.5032
 6568TIP3    H241196   4.581   4.617   1.137  1.5911 -1.4604  1.1309
 6569TIP3   OH241197   2.423   1.052   3.580  0.3749  0.4352  0.7041
 6569TIP3    H141198   2.395   0.964   3.553  1.0337  0.2683  0.5612
 6569TIP3    H241199   2.507   1.038   3.623 -0.9665  0.6117  3.4977
 6570TIP3   OH241200   5.445   5.449  15.721  0.4257 -0.8455  0.4390
 6570TIP3    H141201   5.389   5.442  15.644 -0.1159 -2.1499  0.9283
 6570TIP3    H241202   5.485   5.535  15.714 -0.6787 -0.3965 -0.5746
 6571TIP3   OH241203   0.955   3.012   4.503 -0.5040  0.0404 -0.0235
 6571TIP3    H141204   0.926   3.070   4.433 -0.2951  2.2982  1.7131
 6571TIP3    H241205   0.891   3.025   4.573  1.4908  0.8290  1.7005
 6572TIP3   OH241206   3.733   3.030   3.949  0.4647 -0.1159  1.0687
 6572TIP3    H141207   3.650   3.077   3.959  1.6428  1.8072  1.9742
 6572TIP3    H241208   3.707   2.939   3.931 -1.8248  0.5937  0.7004
 6573TIP3   OH241209   3.712   4.898   4.199 -0.8375  0.2344 -0.2965
 6573TIP3    H141210   3.763   4.891   4.119  0.2759  0.3073  0.3952
 6573TIP3    H241211   3.775   4.884   4.270 -1.8504 -0.0946  0.5640
 6574TIP3   OH241212   4.794   6.191   2.361  0.2992  0.0546  0.3159
 6574TIP3    H141213   4.778   6.140   2.441  1.5406  0.8736  1.0975
 6574TIP3    H241214   4.791   6.282   2.390  1.1292  0.3485 -0.4990
 6575TIP3   OH241215   3.707   0.588   5.301 -0.5375  0.4767  0.3631
 6575TIP3    H141216   3.671   0.602   5.213 -2.5779 -0.5889  0.9853
 6575TIP3    H241217   3.801   0.587   5.289 -0.7337  2.0504 -1.5582
 6576TIP3   OH241218   3.882   1.055  16.649  0.3895 -0.1494  0.6667
 6576TIP3    H141219   3.875   1.117  16.577 -1.1670 -1.2172 -0.1464
 6576TIP3    H241220   3.822   1.088  16.715 -0.7895 -0.9813  0.0470
 6577TIP3   OH241221   6.159   4.911   3.313  0.4264 -0.2689  0.2038
 6577TIP3    H141222   6.095   4.848   3.279  1.1848 -1.1160  0.3420
 6577TIP3    H241223   6.107   4.967   3.371 -0.3104 -0.5889 -0.1365
 6578TIP3   OH241224   6.504   5.828   5.284  0.1374  0.6360 -0.4014
 6578TIP3    H141225   6.578   5.772   5.310 -0.3022  1.3452  2.5497
 6578TIP3    H241226   6.427   5.772   5.294  0.0400  0.6756 -0.9473
 6579TIP3   OH241227   4.683   2.672   1.015 -0.0722  0.4426  0.9249
 6579TIP3    H141228   4.699   2.674   1.109  0.5170  0.9740  0.8165
 6579TIP3    H241229   4.668   2.580   0.995 -0.1183  0.3170  1.5259
 6580TIP3   OH241230   6.318   4.278  11.970  0.0147  0.3957 -0.8605
 6580TIP3    H141231   6.269   4.223  11.909 -0.2127  0.0515 -0.3670
 6580TIP3    H241232   6.404   4.288  11.929 -0.2007  0.3405 -1.3395
 6581TIP3   OH241233   0.782   4.725   1.930  0.2825 -0.0713  1.1756
 6581TIP3    H141234   0.707   4.761   1.977 -2.6027 -1.3420 -2.2007
 6581TIP3    H241235   0.765   4.631   1.924  1.4144 -0.2036 -0.8275
 6582TIP3   OH241236   2.779   1.444  14.678  0.0127 -0.2479  0.0115
 6582TIP3    H141237   2.727   1.463  14.756 -0.2456  0.7857 -0.3962
 6582TIP3    H241238   2.864   1.415  14.712  0.1092  0.7883  0.6861
 6583TIP3   OH241239   5.570   0.443   3.746 -0.3264  0.3700  0.2651
 6583TIP3    H141240   5.518   0.384   3.691 -0.0336  1.0053 -0.7094
 6583TIP3    H241241   5.658   0.439   3.709  0.0757  0.1493  1.2295
 6584TIP3   OH241242   0.338   1.370   3.143  0.3932  0.5150 -0.1127
 6584TIP3    H141243   0.416   1.319   3.122 -0.3081 -0.5550 -0.1385
 6584TIP3    H241244   0.371   1.444   3.193  1.1154 -1.4120  2.3272
 6585TIP3   OH241245   4.572   4.587  16.922 -0.3534  0.7248  0.0220
 6585TIP3    H141246   4.600   4.678  16.930 -0.9915  0.9229 -0.0244
 6585TIP3    H241247   4.485   4.591  16.882  0.2501  0.0318 -1.3991
 6586TIP3   OH241248   0.028   6.741   6.201 -0.4075 -0.2213  0.5164
 6586TIP3    H141249   0.070   6.740   6.287 -1.1458  1.2406  0.9009
 6586TIP3    H241250  -0.035   6.669   6.204  0.1042 -0.6583  0.9114
 6587TIP3   OH241251   5.480   0.003  14.139  0.1024  0.1773  0.0932
 6587TIP3    H141252   5.467   0.095  14.117  0.4918  0.1671 -0.1692
 6587TIP3    H241253   5.566  -0.019  14.104 -0.3401 -0.5122 -0.5689
 6588TIP3   OH241254   1.312   6.360  15.264 -0.0732 -0.2706 -0.3775
 6588TIP3    H141255   1.216   6.355  15.267 -0.1206  0.0333 -1.2542
 6588TIP3    H241256   1.341   6.285  15.316 -0.7823 -0.1545  0.2007
 6589TIP3   OH241257   1.034   4.154   1.823 -0.1967  0.6325  0.2041
 6589TIP3    H141258   1.118   4.124   1.856  0.0808  0.8947 -0.2621
 6589TIP3    H241259   1.054   4.199   1.741 -0.7558  0.9283  0.2207
 6590TIP3   OH241260   4.645   0.867  14.581  0.4142  0.2503 -0.7662
 6590TIP3    H141261   4.689   0.924  14.518  2.2698 -0.1963  0.1069
 6590TIP3    H241262   4.663   0.778  14.550  2.3864 -0.0084  1.0703
 6591TIP3   OH241263   2.440   2.436   1.823  0.5673  0.5846 -0.2468
 6591TIP3    H141264   2.449   2.343   1.845 -0.2149  0.7109  0.6560
 6591TIP3    H241265   2.390   2.436   1.742  0.9881  0.2000 -0.5095
 6592TIP3   OH241266   5.652   5.075   0.779 -0.5222  0.1814  0.8794
 6592TIP3    H141267   5.602   5.002   0.743 -1.7275  1.2282  0.4073
 6592TIP3    H241268   5.743   5.056   0.755 -1.0013 -0.4269 -0.5177
 6593TIP3   OH241269   3.297   3.037   5.868  0.1638 -0.2839 -0.3629
 6593TIP3    H141270   3.289   3.092   5.790 -0.0284 -0.8807 -0.7615
 6593TIP3    H241271   3.307   3.100   5.940 -0.7007  0.3018 -0.7343
 6594TIP3   OH241272   0.817   4.967  16.272 -0.3000  0.0360 -0.1107
 6594TIP3    H141273   0.740   4.910  16.271  0.1083 -0.5175 -0.4021
 6594TIP3    H241274   0.800   5.031  16.203 -1.1954  0.8611  0.8696
 6595TIP3   OH241275   0.207   6.166   2.936 -0.5135 -0.2129  0.1743
 6595TIP3    H141276   0.212   6.256   2.967 -2.6851  0.0961 -0.3025
 6595TIP3    H241277   0.121   6.159   2.895  0.3116 -2.0128 -1.3524
 6596TIP3   OH241278   5.463   3.495   1.111 -0.2570 -0.3183 -0.3004
 6596TIP3    H141279   5.558   3.486   1.102 -0.3019  0.1508 -1.3149
 6596TIP3    H241280   5.443   3.578   1.068 -1.3893 -1.3801 -1.8771
 6597TIP3   OH241281   4.319   5.680  14.841  0.2515 -0.2308 -0.4771
 6597TIP3    H141282   4.293   5.591  14.865 -2.0143  0.5118 -0.0699
 6597TIP3    H241283   4.249   5.736  14.875  1.5494  1.7034 -0.8803
 6598TIP3   OH241284   4.784   3.007  15.299 -0.4780 -0.3847  0.5282
 6598TIP3    H141285   4.874   2.992  15.328  0.7615 -0.9831 -3.3005
 6598TIP3    H241286   4.752   2.920  15.276 -2.2792 -0.2468  2.3637
 6599TIP3   OH241287   3.901   2.406   0.010  0.1377  0.3661  0.2986
 6599TIP3    H141288   3.956   2.394   0.087 -0.2776  0.5395  0.6212
 6599TIP3    H241289   3.820   2.359   0.030  0.3453 -0.2830 -0.3623
 6600TIP3   OH241290   3.585   5.101  15.742 -0.2652 -0.1587 -0.1129
 6600TIP3    H141291   3.583   5.012  15.777 -1.4382 -0.8016 -1.7635
 6600TIP3    H241292   3.640   5.149  15.804 -2.2992 -1.2215  2.6147
 6601TIP3   OH241293   1.765   0.554  17.168 -0.7373 -0.2450  0.0450
 6601TIP3    H141294   1.705   0.488  17.133 -0.6978  0.1481 -0.7747
 6601TIP3    H241295   1.736   0.567  17.258 -0.2833 -1.9134  0.4459
 6602TIP3   OH241296   6.394   5.538  12.340 -0.8810  0.0878  0.2360
 6602TIP3    H141297   6.329   5.474  12.311 -1.1733  1.2833 -1.8759
 6602TIP3    H241298   6.464   5.486  12.378 -1.7525 -1.4012 -0.1663
 6603TIP3   OH241299   3.986   1.461   3.289  0.1726  0.0765 -0.5261
 6603TIP3    H141300   4.041   1.539   3.284  0.2252  0.0816  0.1225
 6603TIP3    H241301   3.931   1.465   3.210  1.3217 -0.0982 -1.3530
 6604TIP3   OH241302   2.730   2.085  12.976  0.0264  0.2757  0.0880
 6604TIP3    H141303   2.675   2.149  13.021  0.4314  1.8146 -1.5633
 6604TIP3    H241304   2.783   2.046  13.045 -2.1504 -0.2517  1.5092
 6605TIP3   OH241305   5.395   6.647   5.218 -0.3473 -0.1141 -0.9886
 6605TIP3    H141306   5.466   6.637   5.281  0.4251 -2.0811 -2.1181
 6605TIP3    H241307   5.334   6.708   5.260  1.1369  0.2136  0.7527
 6606TIP3   OH241308   4.620   3.704  17.212  0.0407  0.8032 -0.4111
 6606TIP3    H141309   4.705   3.719  17.254 -0.6062 -3.0266  2.4307
 6606TIP3    H241310   4.642   3.689  17.120  2.5858 -1.0608  0.4335
 6607TIP3   OH241311   2.392   4.247   5.873 -0.1074 -0.1692 -0.3373
 6607TIP3    H141312   2.353   4.301   5.941 -1.0586 -1.7783  0.4374
 6607TIP3    H241313   2.443   4.308   5.819  0.7047  1.1149  1.8396
 6608TIP3   OH241314   4.467   5.692  15.076  0.2501 -0.0506 -0.4216
 6608TIP3    H141315   4.448   5.780  15.108 -0.1271 -0.7792  1.3866
 6608TIP3    H241316   4.413   5.683  14.997  0.6736  1.4958 -0.9169
 6609TIP3   OH241317   1.049   0.694   6.335 -0.5978 -0.8501 -0.3956
 6609TIP3    H141318   1.050   0.636   6.411  0.5197 -1.5939 -0.9627
 6609TIP3    H241319   0.958   0.695   6.306 -0.9937 -0.7131  0.8365
 6610TIP3   OH241320   6.206   4.503   2.829  0.1593 -0.3086  0.0956
 6610TIP3    H141321   6.300   4.515   2.820  0.3168 -1.1778  0.5445
 6610TIP3    H241322   6.190   4.510   2.923 -0.4975  1.7491 -0.1429
 6611TIP3   OH241323   0.560   4.868  13.833 -0.0170  0.1189  0.6348
 6611TIP3    H141324   0.490   4.806  13.856 -1.1835  1.2523  0.2152
 6611TIP3    H241325   0.629   4.813  13.797 -0.4758 -1.0822  1.5410
 6612TIP3   OH241326   1.030   1.166   6.650  0.1706 -0.3156  0.5233
 6612TIP3    H141327   1.064   1.163   6.560  0.8278 -0.2321  0.7714
 6612TIP3    H241328   1.057   1.083   6.688  1.8180  0.5708  1.3425
 6613TIP3   OH241329   3.987   4.547  16.811 -0.2170  0.6069  0.0693
 6613TIP3    H141330   3.948   4.472  16.855 -0.3311  0.0699 -0.9286
 6613TIP3    H241331   3.913   4.600  16.781 -0.1900 -0.1494 -1.3766
 6614TIP3   OH241332   3.282   0.477   1.028  0.5111 -0.6085 -0.4178
 6614TIP3    H141333   3.196   0.487   0.988  2.7524  1.2672 -5.1609
 6614TIP3    H241334   3.285   0.545   1.096 -1.3400  0.1140 -1.0320
 6615TIP3   OH241335   6.634   1.795   5.752  0.1881 -0.5279  0.2318
 6615TIP3    H141336   6.620   1.700   5.747  1.6558 -0.7677  0.4921
 6615TIP3    H241337   6.615   1.817   5.843 -4.0343  0.1160 -0.6628
 6616TIP3   OH241338   4.098   0.239   4.861  0.0551 -0.3401 -0.1513
 6616TIP3    H141339   4.059   0.212   4.778  1.1894  1.8690 -1.4404
 6616TIP3    H241340   4.141   0.160   4.894  1.4691 -0.7280 -2.7669
 6617TIP3   OH241341   5.825   0.578  15.606  0.4444 -0.0357  0.3216
 6617TIP3    H141342   5.850   0.486  15.615  0.5372 -0.0906 -0.4340
 6617TIP3    H241343   5.908   0.625  15.604  0.3874  0.0986  1.0354
 6618TIP3   OH241344   1.624   0.681  14.037  0.1426  0.4656  0.0060
 6618TIP3    H141345   1.643   0.774  14.049 -0.5074  0.8312 -1.6785
 6618TIP3    H241346   1.543   0.679  13.987 -0.2263 -1.0251  0.6206
 6619TIP3   OH241347   0.603   6.502   5.133  0.2882 -0.5467  0.0854
 6619TIP3    H141348   0.580   6.595   5.131  2.3216 -0.0542 -2.1811
 6619TIP3    H241349   0.551   6.463   5.062  0.7537 -0.8272 -0.1001
 6620TIP3   OH241350   0.790   0.815  11.233 -0.7316 -0.1598 -0.0160
 6620TIP3    H141351   0.786   0.795  11.139  0.3512  0.3722 -0.1799
 6620TIP3    H241352   0.861   0.878  11.241 -0.5301 -0.5381  1.2295
 6621TIP3   OH241353   0.384   1.261   1.234  0.1186  0.4475 -0.3864
 6621TIP3    H141354   0.344   1.261   1.147 -1.7937  0.5963  0.4587
 6621TIP3    H241355   0.393   1.353   1.257 -1.0345  0.3994  0.2928
 6622TIP3   OH241356   0.391   0.464  15.425  0.1043 -0.3965  0.6520
 6622TIP3    H141357   0.359   0.553  15.440 -0.8223 -0.1504 -2.5627
 6622TIP3    H241358   0.343   0.410  15.489 -0.4636  1.1702  1.5685
 6623TIP3   OH241359   1.044   0.225  14.993 -0.2086  0.0015  0.6039
 6623TIP3    H141360   1.106   0.296  14.983  0.1709 -0.3182  0.6712
 6623TIP3    H241361   1.016   0.229  15.084  0.3087 -0.3430  0.7767
 6624TIP3   OH241362   1.676   5.726  12.950  0.2081 -0.2899  0.0375
 6624TIP3    H141363   1.673   5.634  12.925 -1.8858 -0.3421  0.4400
 6624TIP3    H241364   1.714   5.725  13.038  1.5698 -0.6170 -0.5288
 6625TIP3   OH241365   3.408   2.259   2.786  0.1360  0.1972 -0.1629
 6625TIP3    H141366   3.499   2.284   2.802  0.3738 -0.2563 -0.7832
 6625TIP3    H241367   3.371   2.332   2.735  0.1879  0.3272 -0.0127
 6626TIP3   OH241368   5.775   1.979   0.991  0.1124  0.5693 -0.5226
 6626TIP3    H141369   5.710   1.998   0.924 -0.9331 -0.8059  0.0787
 6626TIP3    H241370   5.837   1.920   0.948  0.1864  0.7563 -0.6728
 6627TIP3   OH241371   5.324   3.841  13.243  0.0391 -0.4149 -0.0928
 6627TIP3    H141372   5.319   3.934  13.266  0.4612 -0.4522  0.1654
 6627TIP3    H241373   5.402   3.834  13.188  0.1601 -0.6598  0.1077
 6628TIP3   OH241374   1.296   2.212  16.442 -0.4923 -0.1277 -0.1736
 6628TIP3    H141375   1.287   2.117  16.442  1.2183 -0.3079  1.0509
 6628TIP3    H241376   1.223   2.243  16.496 -0.2277 -0.8394  0.5996
 6629TIP3   OH241377   3.324   5.008   1.498  0.7651 -0.0318  0.1011
 6629TIP3    H141378   3.412   5.037   1.473  0.5594  0.3035 -0.2246
 6629TIP3    H241379   3.337   4.965   1.583  1.3619 -0.6480 -0.2924
 6630TIP3   OH241380   6.168   4.015  12.493 -0.2070  0.1121 -0.0283
 6630TIP3    H141381   6.152   3.923  12.510  1.0264 -0.1489 -0.1909
 6630TIP3    H241382   6.165   4.023  12.398  1.2714 -0.0894 -0.1078
 6631TIP3   OH241383   2.896   0.376  14.676 -0.3183 -0.5133 -0.0784
 6631TIP3    H141384   2.925   0.355  14.764  0.4599  1.0476  0.0556
 6631TIP3    H241385   2.807   0.411  14.687  0.4720  1.4154  0.3030
 6632TIP3   OH241386   2.661   4.126  11.840 -0.4286  0.5554  0.0071
 6632TIP3    H141387   2.685   4.219  11.845  1.0859  0.2404 -0.9828
 6632TIP3    H241388   2.616   4.118  11.756  0.0032  0.2733 -0.1976
 6633TIP3   OH241389   6.174   2.611  16.494  0.4175  0.2297  0.0941
 6633TIP3    H141390   6.211   2.694  16.462  1.3721  0.1700  1.0220
 6633TIP3    H241391   6.081   2.630  16.507  0.4444  0.8842 -0.6061
 6634TIP3   OH241392   3.922   4.190  10.073 -0.5926 -0.3512  0.4155
 6634TIP3    H141393   3.921   4.140  10.155 -0.3394 -1.9950 -0.5790
 6634TIP3    H241394   3.877   4.272  10.095 -0.3954 -0.7094  2.2383
 6635TIP3   OH241395   5.345   0.768  10.855 -0.1491  0.3411  0.4657
 6635TIP3    H141396   5.406   0.720  10.799 -0.1106 -0.0996  0.8784
 6635TIP3    H241397   5.286   0.702  10.890 -0.1936  0.6104  0.9188
 6636TIP3   OH241398   1.460   4.712   5.773  0.5635  0.4618  0.0163
 6636TIP3    H141399   1.377   4.680   5.737 -0.0108  1.4894  0.3903
 6636TIP3    H241400   1.512   4.736   5.696  0.4126  0.0474 -0.2129
 6637TIP3   OH241401   4.064   6.128   4.725  0.2157  0.3471  0.0897
 6637TIP3    H141402   3.973   6.098   4.736  0.4797 -1.4382 -2.2169
 6637TIP3    H241403   4.113   6.081   4.793 -0.6528  1.7128  1.6784
 6638TIP3   OH241404   0.536   2.068   0.044  0.1018 -0.3905 -0.0484
 6638TIP3    H141405   0.503   2.116  -0.032 -1.2439  0.9998  1.3526
 6638TIP3    H241406   0.540   2.134   0.113  3.5735 -1.0862  0.4912
 6639TIP3   OH241407   1.754   1.984  15.165 -0.7269  0.3670 -0.0774
 6639TIP3    H141408   1.695   2.014  15.234 -2.1739 -0.3251 -0.9837
 6639TIP3    H241409   1.696   1.957  15.094  0.6942 -0.2186 -1.0408
 6640TIP3   OH241410   1.433   2.744  13.802  0.5424  0.4443 -0.1533
 6640TIP3    H141411   1.345   2.778  13.787 -0.2195 -1.3630  0.0133
 6640TIP3    H241412   1.481   2.764  13.721 -0.2201  0.8343 -0.5118
 6641TIP3   OH241413   1.062   6.568  13.649  0.0608  0.0951 -0.0090
 6641TIP3    H141414   1.110   6.486  13.658 -1.7504 -0.7680  2.0774
 6641TIP3    H241415   1.026   6.565  13.561 -1.3828 -2.1555  0.6168
 6642TIP3   OH241416   5.130   6.799  16.792  0.2791 -0.2548 -0.4700
 6642TIP3    H141417   5.099   6.865  16.730 -0.0931  0.8229  0.8267
 6642TIP3    H241418   5.131   6.845  16.876  0.3035 -1.8342  0.3999
 6643TIP3   OH241419   1.384   3.754   1.997 -0.1510  0.0814 -0.0153
 6643TIP3    H141420   1.420   3.755   2.086 -2.0621  1.3377  0.7618
 6643TIP3    H241421   1.412   3.670   1.961  2.2280  0.3439  1.0922
 6644TIP3   OH241422   4.637   5.761   2.572 -0.6036 -0.2879 -0.3187
 6644TIP3    H141423   4.728   5.771   2.598 -0.6355 -0.8996  0.0369
 6644TIP3    H241424   4.608   5.681   2.616 -0.8485 -0.9588 -1.6587
 6645TIP3   OH241425   1.871   2.809  14.223  0.1078 -0.4513 -0.1465
 6645TIP3    H141426   1.896   2.865  14.149  0.3462 -1.1393 -0.5972
 6645TIP3    H241427   1.945   2.748  14.232 -0.8130 -1.6504 -0.6279
 6646TIP3   OH241428   0.503   5.624   1.052 -0.0843  0.3177 -0.0357
 6646TIP3    H141429   0.586   5.624   1.004 -0.6495  0.2005 -1.0141
 6646TIP3    H241430   0.439   5.591   0.990 -1.1705  1.9085  0.2252
 6647TIP3   OH241431   0.116   3.999  15.647  0.3724  0.3006 -0.1878
 6647TIP3    H141432   0.129   4.091  15.626  1.6149  0.7298  2.2249
 6647TIP3    H241433   0.111   3.955  15.562  0.8254  2.4468 -1.3648
 6648TIP3   OH241434   5.904   1.381   3.949 -0.0028  0.0888 -0.0610
 6648TIP3    H141435   5.970   1.426   3.896 -1.3667 -1.2653 -3.0201
 6648TIP3    H241436   5.939   1.293   3.960 -0.6258 -0.1977 -0.3669
 6649TIP3   OH241437   4.343   5.945   4.880  0.2284  0.2081  0.1131
 6649TIP3    H141438   4.314   5.862   4.843  0.9419  0.0659 -0.1287
 6649TIP3    H241439   4.268   5.976   4.931  0.9892 -2.1172  2.7949
 6650TIP3   OH241440   5.127   4.387   5.500 -0.5014  0.0098 -0.3202
 6650TIP3    H141441   5.081   4.366   5.420  0.5519  0.6135 -1.0971
 6650TIP3    H241442   5.191   4.454   5.475  1.0156 -1.0368  0.6631
 6651TIP3   OH241443   2.916   1.038   6.192  0.2809 -0.4780 -0.0366
 6651TIP3    H141444   2.836   1.091   6.188  0.5537  0.0738  1.3647
 6651TIP3    H241445   2.981   1.088   6.142  0.5790  0.6264  1.3987
 6652TIP3   OH241446   3.505   0.273  12.335  0.2312  0.5001 -0.5337
 6652TIP3    H141447   3.489   0.251  12.243  0.5806 -0.1550 -0.4439
 6652TIP3    H241448   3.425   0.246  12.380  1.3173 -2.2692 -0.1611
 6653TIP3   OH241449   1.842   4.710  13.862 -0.0861 -0.2594 -0.2197
 6653TIP3    H141450   1.862   4.700  13.955 -1.2350  0.9537  0.1797
 6653TIP3    H241451   1.826   4.621  13.830 -0.2734 -0.6241  0.8945
 6654TIP3   OH241452   0.448   1.142   5.890 -0.1719  0.4589 -0.3725
 6654TIP3    H141453   0.354   1.148   5.875 -0.5966 -1.1728  1.4918
 6654TIP3    H241454   0.469   1.220   5.942 -1.0029 -0.6035  1.5851
 6655TIP3   OH241455   1.542   4.577   3.753 -0.1636 -0.2867 -0.7993
 6655TIP3    H141456   1.581   4.629   3.683  1.7723  0.8940  1.0596
 6655TIP3    H241457   1.501   4.641   3.811 -0.6171 -1.1179 -0.1883
 6656TIP3   OH241458   2.939   6.237   0.653 -0.1124 -0.1945  0.2486
 6656TIP3    H141459   2.937   6.192   0.738  0.9406 -0.0446  0.3634
 6656TIP3    H241460   3.008   6.193   0.604  1.5453  1.8077  0.6729
 6657TIP3   OH241461   2.801   1.743  15.510 -0.0053  0.1948  0.3613
 6657TIP3    H141462   2.715   1.785  15.518  0.2304  0.7016  0.2937
 6657TIP3    H241463   2.858   1.795  15.566  0.4948  0.5506 -0.4570
 6658TIP3   OH241464   2.802   4.202  14.424 -0.1955 -0.8633 -0.0130
 6658TIP3    H141465   2.709   4.200  14.399 -0.4830 -2.0297  1.0813
 6658TIP3    H241466   2.811   4.283  14.474 -0.8942 -1.2693  0.7985
 6659TIP3   OH241467   1.499   6.266   2.926 -0.0643  0.2984 -0.0271
 6659TIP3    H141468   1.420   6.302   2.886  0.0673 -1.1657 -1.6564
 6659TIP3    H241469   1.560   6.340   2.930 -0.6749  0.8643 -1.0067
 6660TIP3   OH241470   1.550   0.974  15.085  0.3176  0.2719 -0.1638
 6660TIP3    H141471   1.587   1.059  15.109  0.2332  0.0939  0.6041
 6660TIP3    H241472   1.474   0.996  15.031 -0.4287  0.7304  1.0443
 6661TIP3   OH241473   4.993   1.781   4.663 -0.1825  0.1232  0.3195
 6661TIP3    H141474   4.978   1.793   4.757 -1.3101  1.7749 -0.0569
 6661TIP3    H241475   4.916   1.819   4.621  1.5173  1.7656 -1.3814
 6662TIP3   OH241476   1.504   2.541  15.214 -0.0994  0.0371 -0.1860
 6662TIP3    H141477   1.584   2.589  15.233  0.3141 -0.4886 -0.5953
 6662TIP3    H241478   1.529   2.449  15.218 -0.8352 -0.1472  0.3513
 6663TIP3   OH241479   1.557   1.781  13.743  0.3882 -0.3813  0.2461
 6663TIP3    H141480   1.594   1.762  13.829  1.6920 -1.1889 -0.4648
 6663TIP3    H241481   1.525   1.697  13.711 -1.2968  0.1493  0.4743
 6664TIP3   OH241482   1.793   6.428   0.182 -0.3626 -0.0376 -0.6368
 6664TIP3    H141483   1.705   6.411   0.149 -0.7296  1.5736 -0.5136
 6664TIP3    H241484   1.813   6.517   0.153  0.6332  0.1623  0.6340
 6665TIP3   OH241485   1.237   5.952   3.911  0.2265  0.0819  0.2786
 6665TIP3    H141486   1.224   5.985   3.822 -1.9285  0.6045  0.7724
 6665TIP3    H241487   1.151   5.955   3.951  0.9548 -1.2889  2.0197
 6666TIP3   OH241488   3.429   1.447   1.067  0.1264  0.0053 -0.0617
 6666TIP3    H141489   3.516   1.484   1.079 -0.2187  1.0907 -0.8582
 6666TIP3    H241490   3.441   1.373   1.007  1.0463 -2.1728  2.6775
 6667TIP3   OH241491   4.934   4.544   1.705  0.4674  0.0914  0.2450
 6667TIP3    H141492   4.998   4.495   1.655 -0.0256 -0.9345  0.5975
 6667TIP3    H241493   4.929   4.498   1.789 -0.5541  0.2969  0.3042
 6668TIP3   OH241494   5.882   0.130   3.470 -0.0355 -0.0846  0.0224
 6668TIP3    H141495   5.934   0.112   3.392  1.7413  0.7712  0.9830
 6668TIP3    H241496   5.940   0.109   3.543 -1.4462 -0.2339  1.1179
 6669TIP3   OH241497   2.027   1.123  14.197  0.2779 -0.2023 -0.1556
 6669TIP3    H141498   2.103   1.093  14.246 -1.2450 -0.9418  1.8318
 6669TIP3    H241499   1.969   1.046  14.193 -0.8778  0.6657 -0.5807
 6670TIP3   OH241500   0.882   4.307   3.046  0.6317  0.0819 -0.2964
 6670TIP3    H141501   0.910   4.290   2.956 -0.7251 -1.1238 -0.5156
 6670TIP3    H241502   0.833   4.389   3.040  0.9236  0.2349 -0.5912
 6671TIP3   OH241503   3.589   4.092   3.527  0.1990  0.4409 -0.5142
 6671TIP3    H141504   3.615   4.183   3.509 -0.3862  0.4884 -1.1402
 6671TIP3    H241505   3.511   4.100   3.582  1.4183  0.2974  1.2567
 6672TIP3   OH241506   4.611   5.447  10.856  0.1612 -0.1841 -0.5368
 6672TIP3    H141507   4.632   5.530  10.899  0.8830  0.7819 -2.7270
 6672TIP3    H241508   4.538   5.468  10.798 -1.3026 -1.6586  0.7093
 6673TIP3   OH241509   0.762   4.872   6.146  0.0160 -0.3928 -0.1637
 6673TIP3    H141510   0.739   4.782   6.120 -1.1090 -0.1329 -0.1089
 6673TIP3    H241511   0.682   4.923   6.128  0.7847  0.6824 -0.5933
 6674TIP3   OH241512   5.373   2.679  13.824 -0.4191  0.0067 -0.2669
 6674TIP3    H141513   5.306   2.611  13.822 -0.2077 -0.2481  0.9742
 6674TIP3    H241514   5.358   2.730  13.744 -0.5217 -1.5520 -1.2669
 6675TIP3   OH241515   2.706   2.056  13.924 -0.1813 -0.5286 -0.4914
 6675TIP3    H141516   2.799   2.049  13.945 -0.6949  0.8610  2.7140
 6675TIP3    H241517   2.701   2.124  13.857  1.1156 -0.3471 -0.4096
 6676TIP3   OH241518   4.755   5.008  13.576 -0.0706 -0.4139  0.2961
 6676TIP3    H141519   4.704   5.071  13.627  1.3604  0.5531  0.5613
 6676TIP3    H241520   4.766   4.933  13.635 -1.4723 -0.7699  0.1105
 6677TIP3   OH241521   5.019   3.126  15.898 -0.1800  0.4491  0.1513
 6677TIP3    H141522   5.044   3.202  15.846  0.5830 -1.1351 -1.8679
 6677TIP3    H241523   4.934   3.100  15.862 -0.1402 -0.0244  0.4023
 6678TIP3   OH241524   4.544   4.607  10.127  0.1035  0.4021 -0.1675
 6678TIP3    H141525   4.611   4.549  10.090  2.3381  1.7703  1.5553
 6678TIP3    H241526   4.509   4.558  10.202 -1.7190 -0.8040 -1.7696
 6679TIP3   OH241527   3.066   1.084   3.582  0.4938 -0.4292  0.1274
 6679TIP3    H141528   3.082   1.099   3.675 -1.0774  1.0624  0.1927
 6679TIP3    H241529   3.124   1.146   3.538  1.6907 -1.5636  0.0717
 6680TIP3   OH241530   5.591   3.109  16.318  0.3767 -0.3447  0.4414
 6680TIP3    H141531   5.640   3.173  16.369  1.2384 -1.5097  1.1134
 6680TIP3    H241532   5.649   3.033  16.313 -0.7183 -1.1668 -0.1263
 6681TIP3   OH241533   0.300   4.535   2.548 -0.1080  0.0395 -0.5986
 6681TIP3    H141534   0.329   4.449   2.517  0.4568  0.5548 -1.5041
 6681TIP3    H241535   0.207   4.523   2.566  0.1995 -1.0544  0.3320
 6682TIP3   OH241536   6.061   2.604   5.975  0.1759  0.6720 -0.5675
 6682TIP3    H141537   6.122   2.560   6.034  0.6455  2.3582  0.2387
 6682TIP3    H241538   5.978   2.558   5.988  0.5947  0.1799  0.4284
 6683TIP3   OH241539   0.598   6.460  12.931  0.6377  0.2445  0.5050
 6683TIP3    H141540   0.504   6.467  12.948  0.7148 -1.0767  1.6127
 6683TIP3    H241541   0.604   6.433  12.840 -0.0403  0.9274  0.2542
 6684TIP3   OH241542   2.644   1.777   0.757  0.0966  0.2059  0.7586
 6684TIP3    H141543   2.716   1.793   0.696 -1.6596 -0.5946 -1.6289
 6684TIP3    H241544   2.641   1.682   0.766 -0.1484  0.2816  1.4957
 6685TIP3   OH241545   3.642   6.345   1.506 -0.2412  0.1416 -0.1477
 6685TIP3    H141546   3.666   6.272   1.449 -0.4869 -0.9863  1.1731
 6685TIP3    H241547   3.548   6.357   1.491  0.2497  1.8378 -2.2044
 6686TIP3   OH241548   4.709   4.876   2.146 -0.1025 -0.3704 -0.0147
 6686TIP3    H141549   4.630   4.828   2.119 -0.5430  0.4891 -0.2822
 6686TIP3    H241550   4.779   4.840   2.092 -0.8160  0.7302 -1.7323
 6687TIP3   OH241551   3.125   0.962  10.970 -0.2380  0.0858  0.1075
 6687TIP3    H141552   3.191   1.005  10.915 -2.3507  0.6034 -2.1194
 6687TIP3    H241553   3.090   1.032  11.025  0.7173 -0.0939  0.9561
 6688TIP3   OH241554   0.466   4.117  13.673  0.1073  0.3885  0.2109
 6688TIP3    H141555   0.489   4.048  13.735  1.1806 -0.2284 -0.8479
 6688TIP3    H241556   0.536   4.114  13.607 -1.3765  0.5412 -1.4168
 6689TIP3   OH241557   3.233   0.348  16.969  0.2394 -0.1306 -0.1795
 6689TIP3    H141558   3.265   0.259  16.983 -0.4372 -0.3757 -0.1429
 6689TIP3    H241559   3.181   0.343  16.889  0.7378  0.3788 -0.5377
 6690TIP3   OH241560   4.316   3.616  11.700 -0.3301  0.1988 -0.0781
 6690TIP3    H141561   4.303   3.636  11.607 -0.9868 -1.9096 -0.4724
 6690TIP3    H241562   4.341   3.524  11.701  3.6363  1.2206  1.5597
 6691TIP3   OH241563   4.227   3.418   2.379  0.2476  0.2378 -0.0068
 6691TIP3    H141564   4.274   3.342   2.345 -0.3774 -0.2508  0.2155
 6691TIP3    H241565   4.135   3.398   2.363  0.0332  0.6210  0.7171
 6692TIP3   OH241566   2.445   2.030   5.324 -0.6567 -0.3023  0.2085
 6692TIP3    H141567   2.361   2.027   5.371 -0.3158 -0.5228  0.8217
 6692TIP3    H241568   2.486   1.945   5.344 -1.1590 -1.0225 -1.7353
 6693TIP3   OH241569   1.916   4.801  16.217  0.6813 -0.6281 -0.2021
 6693TIP3    H141570   2.007   4.821  16.197  0.6139 -0.3219 -0.2045
 6693TIP3    H241571   1.919   4.719  16.266  0.9398 -0.7296 -0.3926
 6694TIP3   OH241572   4.141   0.739   0.182 -0.0674  0.1705 -0.0203
 6694TIP3    H141573   4.217   0.722   0.239  0.4622 -1.2304 -1.1049
 6694TIP3    H241574   4.068   0.750   0.242  0.9083  1.0356  1.0268
 6695TIP3   OH241575   3.060   4.218  11.432 -0.2336 -0.3326  0.1963
 6695TIP3    H141576   3.073   4.309  11.459  0.1387 -0.2880 -0.1291
 6695TIP3    H241577   3.106   4.166  11.497 -0.1375 -0.2721  0.1770
 6696TIP3   OH241578   3.197   1.290  13.602 -0.7697  0.7483 -0.2654
 6696TIP3    H141579   3.261   1.229  13.640 -0.3315  0.8000 -0.9015
 6696TIP3    H241580   3.159   1.335  13.677 -1.7441 -0.9379  0.2697
 6697TIP3   OH241581   2.968   1.588  11.632 -0.0155 -0.1434  0.1705
 6697TIP3    H141582   2.929   1.524  11.691 -1.2933  2.3086  2.0738
 6697TIP3    H241583   2.896   1.617  11.576  0.4068  0.1133 -0.2481
 6698TIP3   OH241584   1.351   4.685  10.734  0.3273  0.7895 -0.0104
 6698TIP3    H141585   1.391   4.606  10.770 -1.4982 -0.6920 -1.1476
 6698TIP3    H241586   1.271   4.697  10.786 -1.3957 -0.3361 -2.2938
 6699TIP3   OH241587   4.869   0.420   0.473 -0.1130  0.4683 -0.2405
 6699TIP3    H141588   4.956   0.433   0.435  0.6387 -1.4614  0.7639
 6699TIP3    H241589   4.870   0.470   0.554 -0.1214  0.8367 -0.4648
 6700TIP3   OH241590   3.587   3.459   2.394 -0.7220  0.2633 -0.1209
 6700TIP3    H141591   3.572   3.523   2.464  0.1292  0.4068 -0.0619
 6700TIP3    H241592   3.559   3.504   2.314 -1.8930  0.0249  0.1390
 6701TIP3   OH241593   0.747   0.225  15.239 -0.2988  0.0986  0.2054
 6701TIP3    H141594   0.841   0.222  15.257 -0.7918 -1.0793  2.8068
 6701TIP3    H241595   0.707   0.179  15.313 -2.9061  0.3084 -1.0273
 6702TIP3   OH241596   1.732   0.850   2.416  0.1923  0.1996 -0.2276
 6702TIP3    H141597   1.823   0.878   2.422 -0.0461  1.0271 -0.2934
 6702TIP3    H241598   1.723   0.782   2.483  0.6299  0.7576  0.4155
 6703TIP3   OH241599   2.748   2.458   1.023  0.2162  0.0328 -0.1054
 6703TIP3    H141600   2.799   2.536   1.046 -0.3342  0.6486 -0.9332
 6703TIP3    H241601   2.694   2.486   0.950 -0.1113 -1.0908 -0.2989
 6704TIP3   OH241602   2.867   3.077   0.557  0.3239 -0.0003 -0.5979
 6704TIP3    H141603   2.936   3.019   0.588  0.0805  0.6723  1.2602
 6704TIP3    H241604   2.822   3.026   0.489  1.4283 -1.1728 -0.4743
 6705TIP3   OH241605   6.462   6.278  12.202 -0.0754  0.0539 -0.3007
 6705TIP3    H141606   6.411   6.265  12.282 -0.3106  0.0783 -0.4503
 6705TIP3    H241607   6.504   6.192  12.187 -0.7792 -0.2229 -0.6787
 6706TIP3   OH241608   4.179   5.708   1.651 -0.2936  0.5120 -0.1346
 6706TIP3    H141609   4.231   5.731   1.728  0.4397  1.8051 -0.9934
 6706TIP3    H241610   4.119   5.782   1.640 -0.0840  0.5459 -1.0673
 6707TIP3   OH241611   4.422   6.801   0.461  0.2874  0.0777  0.5901
 6707TIP3    H141612   4.410   6.853   0.381  0.6441  0.2261  0.6328
 6707TIP3    H241613   4.475   6.727   0.434  0.1898 -0.0083  0.6345
 6708TIP3   OH241614   3.744   3.273   4.160  0.2738 -0.1125 -0.4345
 6708TIP3    H141615   3.701   3.188   4.171  0.2085  0.1449  1.4731
 6708TIP3    H241616   3.692   3.333   4.213 -0.4713  1.4236 -2.8226
 6709TIP3   OH241617   2.876   1.123   1.442  0.0062  0.0475  0.1979
 6709TIP3    H141618   2.920   1.139   1.358 -0.0840  2.0358  0.5021
 6709TIP3    H241619   2.939   1.071   1.492  0.4211 -0.4128 -0.7841
 6710TIP3   OH241620   3.521   0.050  12.060 -0.1845  0.2821  0.0982
 6710TIP3    H141621   3.435   0.048  12.103 -1.1475 -0.2674 -1.7925
 6710TIP3    H241622   3.568  -0.025  12.098 -1.3561 -0.7534 -0.4639
 6711TIP3   OH241623   0.141   6.077  14.748  0.3130  0.0905 -0.2608
 6711TIP3    H141624   0.135   6.077  14.652  0.8897 -0.2766 -0.3009
 6711TIP3    H241625   0.186   6.159  14.769  2.3265 -0.9387 -0.4580
 6712TIP3   OH241626   5.013   6.578  13.270  0.7501  0.4257 -0.0189
 6712TIP3    H141627   5.080   6.511  13.287  0.5174  1.0046  3.4509
 6712TIP3    H241628   5.061   6.660  13.263  0.7678  0.2947 -1.5406
 6713TIP3   OH241629   2.760   5.122  16.576  0.9253 -0.1839  0.4717
 6713TIP3    H141630   2.674   5.120  16.620  1.7022 -1.3874  2.0113
 6713TIP3    H241631   2.741   5.098  16.486 -0.2101 -1.8612  1.1215
 6714TIP3   OH241632   2.616   3.170   3.392 -0.5182  0.2417 -0.0504
 6714TIP3    H141633   2.704   3.142   3.370 -0.1010  0.8933  0.7615
 6714TIP3    H241634   2.565   3.153   3.313  0.3899  0.1018 -0.6112
 6715TIP3   OH241635   1.257   5.485   0.807 -0.2075  0.8619  0.1466
 6715TIP3    H141636   1.249   5.498   0.901  1.5250 -1.3038  0.6352
 6715TIP3    H241637   1.166   5.477   0.776 -0.7713  1.1290  1.6886
 6716TIP3   OH241638   2.271   1.839   3.249 -0.0527 -0.1130  0.5293
 6716TIP3    H141639   2.237   1.811   3.163  0.9422 -1.4636  0.5707
 6716TIP3    H241640   2.271   1.759   3.302  2.2672  0.0812  0.8374
 6717TIP3   OH241641   0.475   6.396   3.556  0.7943  0.2134  0.0551
 6717TIP3    H141642   0.535   6.365   3.623  1.2268 -0.3536 -0.5885
 6717TIP3    H241643   0.526   6.460   3.506  0.2141  1.2448  0.7744
 6718TIP3   OH241644   5.809   4.330  15.483  0.0377  0.0261 -0.7681
 6718TIP3    H141645   5.763   4.255  15.445 -2.4256 -0.1426  2.3483
 6718TIP3    H241646   5.782   4.405  15.430 -1.9819 -0.4465 -0.4161
 6719TIP3   OH241647   0.877   4.772  12.171 -0.3706  0.1978  0.3045
 6719TIP3    H141648   0.969   4.768  12.198 -0.8707  0.1932  2.0295
 6719TIP3    H241649   0.878   4.825  12.091  1.2535 -0.6391 -0.2699
 6720TIP3   OH241650   3.716   3.508  13.168  0.2980 -0.3622 -0.3142
 6720TIP3    H141651   3.643   3.446  13.166  0.1760 -0.2585  0.4538
 6720TIP3    H241652   3.785   3.467  13.117  0.5469 -1.5561  0.9692
 6721TIP3   OH241653   0.415   4.637  16.268  0.2962  0.5387  0.0797
 6721TIP3    H141654   0.432   4.545  16.290  0.5679  0.1977 -1.5342
 6721TIP3    H241655   0.358   4.634  16.192  0.3550  1.7122 -0.0169
 6722TIP3   OH241656   6.284   1.764   4.476 -0.5282  0.1491  0.4477
 6722TIP3    H141657   6.233   1.835   4.516 -1.4494  0.7737 -1.7703
 6722TIP3    H241658   6.242   1.684   4.509  0.8591  0.5594  3.4017
 6723TIP3   OH241659   0.812   2.771   5.538 -0.0052 -0.4570 -0.4479
 6723TIP3    H141660   0.738   2.817   5.497 -0.5654 -0.5700  0.4269
 6723TIP3    H241661   0.776   2.687   5.565  0.7977 -1.0649 -1.2493
 6724TIP3   OH241662   3.598   1.087   5.094  0.6940  0.2350 -1.1001
 6724TIP3    H141663   3.652   1.149   5.141  2.0902 -0.9989 -1.0317
 6724TIP3    H241664   3.557   1.139   5.024  0.8841  1.4579 -0.3132
 6725TIP3   OH241665   5.251   1.927  11.322  0.8519 -0.5939  0.4799
 6725TIP3    H141666   5.248   1.942  11.228 -0.5067  1.7588  0.8522
 6725TIP3    H241667   5.190   1.991  11.358 -0.7502 -3.2965  2.7460
 6726TIP3   OH241668   2.977   5.210  12.807  0.4517 -0.5060 -0.2813
 6726TIP3    H141669   2.955   5.263  12.883  1.2954 -1.1999  0.4648
 6726TIP3    H241670   2.897   5.162  12.787  0.3788 -0.7167  0.4988
 6727TIP3   OH241671   1.236   3.262  16.995 -0.2667 -0.1099 -0.0762
 6727TIP3    H141672   1.238   3.355  16.974 -1.4178  0.3147  1.5910
 6727TIP3    H241673   1.318   3.227  16.959 -0.6067  1.2065 -2.1503
 6728TIP3   OH241674   2.723   0.189  13.188 -0.0512  0.2752 -0.6908
 6728TIP3    H141675   2.719   0.285  13.188 -0.5410  0.2612 -0.1481
 6728TIP3    H241676   2.636   0.162  13.158 -0.7314 -0.0002  1.4145
 6729TIP3   OH241677   5.799   4.623  11.177  0.4405 -0.9522 -0.8469
 6729TIP3    H141678   5.734   4.552  11.179 -0.7058  0.1344  1.8493
 6729TIP3    H241679   5.755   4.694  11.130  1.5346 -1.8717 -3.4069
 6730TIP3   OH241680   3.801   0.330   5.434 -0.1062 -0.1108 -0.0161
 6730TIP3    H141681   3.861   0.359   5.365  1.4047  1.2627  1.8305
 6730TIP3    H241682   3.733   0.398   5.436  0.2029  0.1903  0.2848
 6731TIP3   OH241683   5.375   2.237  12.670 -0.6530  0.1667 -0.1322
 6731TIP3    H141684   5.356   2.222  12.578 -3.0855 -0.1148  0.3810
 6731TIP3    H241685   5.412   2.154  12.701 -2.6416 -0.7579 -0.1727
 6732TIP3   OH241686   6.384   2.191   4.223 -0.0624 -0.5445 -0.2783
 6732TIP3    H141687   6.386   2.098   4.248  0.0907 -0.4537  0.0419
 6732TIP3    H241688   6.405   2.190   4.129 -2.6682 -1.0504 -0.8853
 6733TIP3   OH241689   3.338   1.887  13.413 -0.3888  0.4984 -0.9860
 6733TIP3    H141690   3.419   1.843  13.437  0.0491  1.0813 -1.4040
 6733TIP3    H241691   3.331   1.877  13.318 -0.4880  0.9939 -1.0324
 6734TIP3   OH241692   2.895   6.346   3.755  0.2047 -0.4445 -0.2166
 6734TIP3    H141693   2.985   6.374   3.739  0.2575 -1.4527 -1.7943
 6734TIP3    H241694   2.864   6.403   3.825  2.8004 -1.6207  1.9662
 6735TIP3   OH241695   1.804   3.529   2.193 -0.1007  0.2770  0.1977
 6735TIP3    H141696   1.808   3.624   2.199 -0.7675  0.2591  1.0415
 6735TIP3    H241697   1.884   3.498   2.235  0.0291  0.4648  0.0839
 6736TIP3   OH241698   2.124   2.418  17.175  0.0955 -0.6327 -0.4375
 6736TIP3    H141699   2.142   2.329  17.146 -1.2824 -0.5310 -1.6607
 6736TIP3    H241700   2.090   2.462  17.097 -1.4761  0.3085  0.7382
 6737TIP3   OH241701   2.799   3.377  12.315 -0.0839 -0.3674  0.4605
 6737TIP3    H141702   2.775   3.384  12.223 -0.4833 -0.6349  0.5415
 6737TIP3    H241703   2.810   3.467  12.344 -1.9649 -0.1912  0.6791
 6738TIP3   OH241704   0.042   2.412   4.602 -0.4085  0.2870  0.2567
 6738TIP3    H141705  -0.008   2.493   4.608 -2.5112 -0.8751 -0.8809
 6738TIP3    H241706  -0.025   2.343   4.607  1.1534 -1.3281 -0.6883
 6739TIP3   OH241707   3.396   2.620  11.889 -0.0256  0.2192 -0.3609
 6739TIP3    H141708   3.415   2.554  11.955 -0.4459  1.2884  0.8302
 6739TIP3    H241709   3.477   2.672  11.883  0.0573  0.0478 -0.7914
 6740TIP3   OH241710   0.271   1.503   0.602  0.1488  0.2540  0.4696
 6740TIP3    H141711   0.237   1.590   0.620 -0.6358 -0.2353  1.3836
 6740TIP3    H241712   0.360   1.518   0.568 -0.6859  1.5032 -1.2619
 6741TIP3   OH241713   2.095   2.097   3.142  0.1720  0.0856 -0.2437
 6741TIP3    H141714   2.036   2.074   3.213 -0.0443 -0.1061 -0.4843
 6741TIP3    H241715   2.182   2.073   3.174  0.4274  2.6632  1.0991
 6742TIP3   OH241716   2.015   1.124   5.278  0.6837  0.3857  0.4202
 6742TIP3    H141717   1.981   1.206   5.313 -1.7813 -0.1243 -0.6163
 6742TIP3    H241718   2.004   1.132   5.183  2.1647 -0.4130  0.1583
 6743TIP3   OH241719   5.647   5.248   1.231  0.0531  0.2720 -0.2615
 6743TIP3    H141720   5.606   5.177   1.182  0.9428  0.5847 -1.4790
 6743TIP3    H241721   5.575   5.306   1.253 -0.6230 -0.8002  0.4006
 6744TIP3   OH241722   2.769   2.671  13.489  0.1032 -0.0758  0.1263
 6744TIP3    H141723   2.830   2.687  13.561 -0.4781  0.8336  0.4247
 6744TIP3    H241724   2.823   2.676  13.410  0.4434  0.5274  0.3961
 6745TIP3   OH241725   1.394   6.558   5.946 -0.2022 -0.2401  0.3383
 6745TIP3    H141726   1.389   6.474   5.991  0.5225  0.3272  1.4926
 6745TIP3    H241727   1.372   6.623   6.012 -2.8656  0.3646 -1.0629
 6746TIP3   OH241728   1.649   4.827   5.565 -0.2302  0.0474  0.0201
 6746TIP3    H141729   1.663   4.751   5.508  2.1747  1.4982 -1.3826
 6746TIP3    H241730   1.637   4.900   5.505 -0.9558  1.0693  1.3817
 6747TIP3   OH241731   1.890   0.135  14.123 -0.2713 -0.2354 -0.6600
 6747TIP3    H141732   1.918   0.155  14.213 -1.5011 -1.7213  0.0772
 6747TIP3    H241733   1.881   0.040  14.121 -2.7264 -0.0293 -1.5982
 6748TIP3   OH241734   2.178   2.216  11.494 -0.5044 -0.7462 -0.2810
 6748TIP3    H141735   2.184   2.125  11.524  0.9779 -0.5617  0.0145
 6748TIP3    H241736   2.187   2.268  11.573  2.1154 -0.2886 -0.8309
 6749TIP3   OH241737   0.959   0.190  15.573  0.1213 -0.0580 -0.5357
 6749TIP3    H141738   0.868   0.209  15.597 -0.4839 -0.9718 -2.0062
 6749TIP3    H241739   0.989   0.268  15.528  0.2213  0.4148  0.3344
 6750TIP3   OH241740   6.004   6.630  12.799  0.2313  0.2515  0.2386
 6750TIP3    H141741   6.045   6.544  12.788 -0.8880 -0.3109  0.2766
 6750TIP3    H241742   5.984   6.634  12.892  0.6089  0.7088  0.2966
 6751TIP3   OH241743   0.561   3.154  15.082 -0.5850 -0.3944 -0.3050
 6751TIP3    H141744   0.539   3.128  15.172 -0.6890 -1.5475 -0.6617
 6751TIP3    H241745   0.616   3.232  15.093  1.8931 -2.2477  0.8708
 6752TIP3   OH241746   1.021   1.046   5.741 -0.0909 -0.3236  0.0697
 6752TIP3    H141747   1.100   1.041   5.687 -0.8481  0.8934 -1.1954
 6752TIP3    H241748   0.954   1.080   5.682 -1.0168  0.7884  1.7282
 6753TIP3   OH241749   6.173   3.681  13.923 -0.3903  0.6166 -1.3551
 6753TIP3    H141750   6.142   3.719  14.005 -0.7626 -3.3283  0.4613
 6753TIP3    H241751   6.264   3.711  13.915 -0.2290  0.7449  0.7176
 6754TIP3   OH241752   1.863   2.321  11.889 -0.3393 -0.3025  0.2107
 6754TIP3    H141753   1.932   2.279  11.940  1.0359  2.5589  0.8636
 6754TIP3    H241754   1.881   2.415  11.898 -2.8547  0.4272 -1.6933
 6755TIP3   OH241755   2.552   0.390   4.081  0.3472 -0.0622 -0.7198
 6755TIP3    H141756   2.554   0.319   4.145  0.3609  0.4426 -0.1536
 6755TIP3    H241757   2.642   0.421   4.076  0.0851  0.8784  0.1349
 6756TIP3   OH241758   4.152   5.722   0.236 -0.0495  0.4167 -0.0986
 6756TIP3    H141759   4.162   5.644   0.290 -0.1337  0.1201 -0.5037
 6756TIP3    H241760   4.073   5.706   0.184  0.7455  0.1149 -1.2480
 6757TIP3   OH241761   1.065   0.699   2.450 -0.7320 -0.0831 -0.0624
 6757TIP3    H141762   1.108   0.781   2.426 -1.2901  0.2891  0.1875
 6757TIP3    H241763   1.102   0.634   2.390  0.4374  0.1520  0.3894
 6758TIP3   OH241764   2.795   0.864  11.799 -0.1586 -0.3153  0.3305
 6758TIP3    H141765   2.861   0.820  11.746  0.3202  1.8979 -0.9758
 6758TIP3    H241766   2.773   0.801  11.868  2.3149 -1.6000 -0.0092
 6759TIP3   OH241767   0.601   4.372  13.996  0.1631 -0.2446  0.3968
 6759TIP3    H141768   0.507   4.373  13.979  0.1398  0.3301  0.5507
 6759TIP3    H241769   0.617   4.290  14.041  0.0813 -1.4160 -1.6215
 6760TIP3   OH241770   2.626   3.316  13.958  0.5161  0.7524 -0.4891
 6760TIP3    H141771   2.716   3.304  13.988  0.3214  2.0690  0.6425
 6760TIP3    H241772   2.572   3.278  14.027  0.1793  0.5263 -0.8753
 6761TIP3   OH241773   4.531   1.301  14.168 -0.0711 -0.0659 -0.9867
 6761TIP3    H141774   4.546   1.286  14.075 -0.7529  1.1121 -1.2977
 6761TIP3    H241775   4.512   1.394  14.175  2.7189  0.4266  0.7082
 6762TIP3   OH241776   6.123   5.980  13.082 -0.0568 -0.2392  0.1384
 6762TIP3    H141777   6.148   6.066  13.116  0.3876 -0.4672  0.3825
 6762TIP3    H241778   6.043   5.958  13.130 -0.3586  0.1850 -0.1637
 6763TIP3   OH241779   0.745   2.455   5.449 -0.2167 -0.3566 -0.0599
 6763TIP3    H141780   0.704   2.438   5.533 -0.0460 -0.8328 -0.0743
 6763TIP3    H241781   0.832   2.417   5.456 -0.1160 -0.1903 -0.3707
 6764TIP3   OH241782   1.458   4.742   5.010 -0.7286 -0.2437  0.4083
 6764TIP3    H141783   1.538   4.690   5.019  0.4061  1.3574 -0.0725
 6764TIP3    H241784   1.394   4.683   4.972  0.0976 -1.6761  1.2042
 6765TIP3   OH241785   5.554   5.317  12.162  0.3401  0.2847  0.4212
 6765TIP3    H141786   5.505   5.399  12.158 -1.0963 -0.5889 -0.2104
 6765TIP3    H241787   5.643   5.343  12.186 -0.0156  2.0490 -0.1453
 6766TIP3   OH241788   2.472   3.680   2.616 -0.6586 -0.9352 -0.7379
 6766TIP3    H141789   2.402   3.642   2.563 -0.5046 -1.7122 -0.3897
 6766TIP3    H241790   2.433   3.687   2.704  0.0264 -2.3341 -0.3018
 6767TIP3   OH241791   0.925   2.974  14.149  0.1633  0.1765  0.5356
 6767TIP3    H141792   0.864   3.027  14.098 -0.7697  0.1094  1.5443
 6767TIP3    H241793   0.905   2.883  14.125 -0.2256  0.1489  0.9506
 6768TIP3   OH241794   5.537   1.901   4.414  0.2650  0.0346 -0.0709
 6768TIP3    H141795   5.451   1.922   4.379  0.3504 -0.5752 -0.6684
 6768TIP3    H241796   5.519   1.868   4.502  0.0582  1.6378  0.4998
 6769TIP3   OH241797   1.988   0.342  11.339 -0.2330  0.1434  0.4581
 6769TIP3    H141798   1.908   0.387  11.364 -0.8362 -0.2009 -0.8113
 6769TIP3    H241799   1.976   0.320  11.247  1.2816  0.0051  0.2712
 6770TIP3   OH241800   0.935   5.348  11.672 -0.3492 -0.2546  0.7547
 6770TIP3    H141801   0.958   5.417  11.734  0.5539 -0.8575  1.0899
 6770TIP3    H241802   0.848   5.374  11.640  0.5723  1.7794 -0.1928
 6771TIP3   OH241803   0.952   5.671  11.372  0.0896 -0.8531 -0.0181
 6771TIP3    H141804   0.865   5.645  11.405 -0.3353 -0.3416 -0.7180
 6771TIP3    H241805   0.935   5.706  11.284  0.9791 -0.5520 -0.0762
 6772TIP3   OH241806   5.401   4.050  15.104  0.4637  0.1910  0.2355
 6772TIP3    H141807   5.468   4.111  15.073 -0.3187  0.7741 -0.3444
 6772TIP3    H241808   5.372   4.004  15.025  0.5051 -0.3848  0.5533
 6773TIP3   OH241809   3.134   1.520   4.679 -0.2567  0.1129 -0.1925
 6773TIP3    H141810   3.103   1.586   4.742  0.1976  1.1624 -1.0455
 6773TIP3    H241811   3.229   1.520   4.689 -0.2331 -0.2017 -0.4044
 6774TIP3   OH241812   2.142   6.374   5.319 -0.1354 -0.2273  0.0246
 6774TIP3    H141813   2.054   6.408   5.302  0.0961  0.8721  0.9282
 6774TIP3    H241814   2.200   6.433   5.270  0.1083 -0.8486 -0.4349
 6775TIP3   OH241815   4.466   1.456   6.773  0.2226  1.1644  0.4765
 6775TIP3    H141816   4.401   1.427   6.838 -0.3559  1.4778  0.0492
 6775TIP3    H241817   4.550   1.443   6.816 -0.1419  1.1415  1.2044
 6776TIP3   OH241818   1.960   4.044  14.743  0.1313  0.6154 -0.0595
 6776TIP3    H141819   2.048   4.064  14.710  0.6509  0.7681  1.3924
 6776TIP3    H241820   1.973   3.971  14.803 -0.6570  0.9991  0.5912
 6777TIP3   OH241821   2.039   4.636  12.880 -0.1546  0.4986  0.1464
 6777TIP3    H141822   2.078   4.633  12.967  0.7554  0.7133 -0.2440
 6777TIP3    H241823   1.945   4.644  12.896 -0.3160 -2.6523  1.1286
 6778TIP3   OH241824   4.761   3.485  11.932  0.1269  0.2113  0.8034
 6778TIP3    H141825   4.672   3.456  11.912  0.1665  0.8526 -0.3465
 6778TIP3    H241826   4.806   3.407  11.963 -0.9719 -0.0164  1.8328
 6779TIP3   OH241827   6.403   3.023  17.037  0.8721  0.2221  0.7547
 6779TIP3    H141828   6.389   3.117  17.052  0.6765  0.1937  0.7530
 6779TIP3    H241829   6.384   2.982  17.121  2.5059  0.3379  1.1925
 6780TIP3   OH241830   4.413   4.263   1.845  0.1661 -0.1830 -0.9597
 6780TIP3    H141831   4.363   4.188   1.814  0.0781 -0.6193  0.2055
 6780TIP3    H241832   4.352   4.337   1.841 -0.2770 -0.5193 -0.4809
 6781TIP3   OH241833   4.434   5.089   0.532  0.1959 -0.0308 -0.0138
 6781TIP3    H141834   4.527   5.113   0.538  0.6335 -1.3416 -1.0557
 6781TIP3    H241835   4.419   5.076   0.438 -0.8895 -0.3706  0.2018
 6782TIP3   OH241836   1.185   4.934   4.116  0.3824 -0.3750 -0.3372
 6782TIP3    H141837   1.245   4.881   4.168 -0.0738 -1.2479 -0.6968
 6782TIP3    H241838   1.099   4.894   4.129 -0.2455  1.2651  0.6995
 6783TIP3   OH241839   2.401   6.326  11.561 -0.2411 -0.6105  0.7382
 6783TIP3    H141840   2.462   6.295  11.628 -0.4091 -0.9102  0.7523
 6783TIP3    H241841   2.403   6.421  11.569 -0.8637 -0.6807  1.7026
 6784TIP3   OH241842   6.072   4.806  13.808  0.1527 -0.4068  0.0240
 6784TIP3    H141843   6.143   4.789  13.747  0.8189  0.2384  0.5969
 6784TIP3    H241844   6.071   4.730  13.866  0.6832 -0.2221  0.2887
 6785TIP3   OH241845   3.569   3.699  16.778  0.3986 -0.5490  0.7134
 6785TIP3    H141846   3.589   3.790  16.759  0.3476 -0.5529  0.6407
 6785TIP3    H241847   3.545   3.698  16.870  1.8063 -0.7179  1.0913
 6786TIP3   OH241848   3.033   1.684   4.494  0.0647  0.4562 -0.3437
 6786TIP3    H141849   3.099   1.749   4.469 -0.5515  2.6025  3.1856
 6786TIP3    H241850   3.073   1.637   4.567 -1.2250 -0.1110  0.0034
 6787TIP3   OH241851   0.650   4.346  12.038 -0.4342  0.0316  0.0134
 6787TIP3    H141852   0.618   4.256  12.043 -0.3623  0.0042 -0.0148
 6787TIP3    H241853   0.726   4.341  11.979 -1.1356  0.3130 -0.9271
 6788TIP3   OH241854   0.639   0.125  15.617 -0.1075 -0.4773  0.6518
 6788TIP3    H141855   0.646   0.054  15.681 -2.3546 -0.8564  0.4993
 6788TIP3    H241856   0.623   0.081  15.534 -2.5231  0.2195  0.7148
 6789TIP3   OH241857   4.804   3.358  14.566  0.1092 -0.0855  0.3342
 6789TIP3    H141858   4.821   3.370  14.659  0.5784 -1.5222  0.4406
 6789TIP3    H241859   4.807   3.263  14.553  0.2994  0.1172 -1.1825
 6790TIP3   OH241860   4.556   6.033   5.113 -0.4859 -0.0809  0.3408
 6790TIP3    H141861   4.504   6.042   5.034  0.9391 -0.7440 -0.6979
 6790TIP3    H241862   4.585   5.941   5.112 -0.0692  0.0369  1.3821
 6791TIP3   OH241863   3.287   4.867   6.450 -0.2384 -0.4058  0.1632
 6791TIP3    H141864   3.232   4.917   6.510  1.1700  1.0332  0.2993
 6791TIP3    H241865   3.331   4.802   6.506 -0.5386 -0.4729  0.3234
 6792TIP3   OH241866   3.427   2.007   4.498 -0.1484  0.0761  0.6706
 6792TIP3    H141867   3.442   1.922   4.541 -0.1827  0.1204  0.7715
 6792TIP3    H241868   3.397   2.064   4.569 -1.8260 -0.2967  0.2947
 6793TIP3   OH241869   0.770   2.832  11.085  0.2344  0.1903 -0.2702
 6793TIP3    H141870   0.769   2.772  11.159  0.8092  0.0191 -0.3927
 6793TIP3    H241871   0.685   2.876  11.088  0.8042  1.2237  1.3316
 6794TIP3   OH241872   0.332   6.225   2.221  0.3500 -0.1401  0.6708
 6794TIP3    H141873   0.267   6.259   2.283  0.7635  0.8413  0.5695
 6794TIP3    H241874   0.342   6.295   2.157  0.7171 -0.7289  0.0859
 6795TIP3   OH241875   0.750   6.720  14.034  0.3316 -0.2963 -0.3986
 6795TIP3    H141876   0.798   6.708  13.951  0.6984 -1.1658 -0.0674
 6795TIP3    H241877   0.676   6.660  14.027 -0.0147  0.1227 -0.3690
 6796TIP3   OH241878   2.451   3.680  15.780  0.4156  0.6897  0.0705
 6796TIP3    H141879   2.530   3.731  15.764  0.0597  1.3466  0.3537
 6796TIP3    H241880   2.481   3.602  15.827  0.6764  1.8710  1.9279
 6797TIP3   OH241881   3.176   0.105   3.840  0.2407 -0.1185 -0.1073
 6797TIP3    H141882   3.252   0.064   3.881  0.2626 -0.2488 -0.2818
 6797TIP3    H241883   3.134   0.153   3.912  1.1521  0.9341 -0.2575
 6798TIP3   OH241884   0.527   2.508   4.094  0.2988 -0.5080  0.3260
 6798TIP3    H141885   0.449   2.501   4.148 -0.3070  2.2189 -0.1428
 6798TIP3    H241886   0.599   2.514   4.156  0.0047 -1.4937  0.7696
 6799TIP3   OH241887   2.472   1.124   2.267 -0.5519  0.2383 -0.8452
 6799TIP3    H141888   2.469   1.030   2.250  0.2400  0.4391 -2.1265
 6799TIP3    H241889   2.555   1.153   2.232 -1.2652  1.6150 -1.4406
 6800TIP3   OH241890   1.815   4.331  15.387  0.3596 -0.2606  0.0573
 6800TIP3    H141891   1.794   4.255  15.332  0.2396 -1.3294  1.5577
 6800TIP3    H241892   1.910   4.327  15.397  0.5736  0.8447 -1.3497
 6801TIP3   OH241893   3.687   1.240   3.712  0.6960 -0.0238  0.5981
 6801TIP3    H141894   3.745   1.291   3.656  0.3723  0.3851  0.6316
 6801TIP3    H241895   3.708   1.149   3.692  0.1818  0.1166 -0.6067
 6802TIP3   OH241896   0.037   4.192   0.634  0.2325  0.0061 -0.4617
 6802TIP3    H141897  -0.044   4.142   0.629 -0.2793  0.7884 -0.2113
 6802TIP3    H241898   0.066   4.182   0.725  1.5130 -1.9270 -1.0461
 6803TIP3   OH241899   4.514   4.835   5.330  0.5498 -0.5937  0.2239
 6803TIP3    H141900   4.488   4.860   5.419  0.5387  1.4197 -0.3265
 6803TIP3    H241901   4.442   4.864   5.275  0.8647 -1.2181 -0.5228
 6804TIP3   OH241902   0.758   2.171   2.099  0.0768 -0.3688  0.2088
 6804TIP3    H141903   0.675   2.151   2.143 -0.4587 -1.0946 -1.1157
 6804TIP3    H241904   0.745   2.141   2.009  0.6490  2.3884 -0.8295
 6805TIP3   OH241905   6.031   0.701  16.033  0.1907 -0.6764  0.8713
 6805TIP3    H141906   6.123   0.681  16.021  0.2940  0.7658 -1.1285
 6805TIP3    H241907   5.998   0.714  15.944 -1.6216  0.0845  1.6259
 6806TIP3   OH241908   3.817   3.840  13.678  0.0104  0.4617 -0.6613
 6806TIP3    H141909   3.765   3.916  13.650  1.3370  0.6733 -2.6558
 6806TIP3    H241910   3.899   3.848  13.628  0.3305 -2.0572 -0.5745
 6807TIP3   OH241911   3.429   5.409  10.585 -0.2437  0.0048 -0.1983
 6807TIP3    H141912   3.437   5.420  10.490  0.5695 -1.0877 -0.2692
 6807TIP3    H241913   3.358   5.345  10.595  0.3730 -0.6672 -0.1118
 6808TIP3   OH241914   2.272   6.565  11.319 -0.1253 -0.0661 -0.1582
 6808TIP3    H141915   2.234   6.608  11.243  1.3244  0.1406 -0.7932
 6808TIP3    H241916   2.295   6.637  11.379  0.8693 -0.0424 -0.5492
 6809TIP3   OH241917   0.405   5.853  15.561  0.0612  0.0437 -0.0851
 6809TIP3    H141918   0.316   5.880  15.582  0.2799  1.9110 -1.4215
 6809TIP3    H241919   0.433   5.914  15.492  1.7172 -1.6493 -0.9602
 6810TIP3   OH241920   0.998   5.887  13.866 -0.0898 -0.1900 -0.3207
 6810TIP3    H141921   0.922   5.849  13.822  1.4742 -2.0898 -1.4940
 6810TIP3    H241922   1.054   5.917  13.794  0.1602  1.4273  0.5372
 6811TIP3   OH241923   0.430   4.697  15.351 -0.1932 -0.0124  0.2458
 6811TIP3    H141924   0.520   4.706  15.320 -0.5832 -0.9036 -1.2389
 6811TIP3    H241925   0.428   4.613  15.397 -1.2589 -2.3495 -3.7315
 6812TIP3   OH241926   1.816   2.299  16.642  0.2892 -0.0575 -0.0415
 6812TIP3    H141927   1.742   2.266  16.591  1.2272 -0.7158 -0.9812
 6812TIP3    H241928   1.851   2.371  16.590  0.4447  0.1273  0.3142
 6813TIP3   OH241929   5.212   5.078   0.231  0.2543 -0.4087  0.3383
 6813TIP3    H141930   5.236   5.168   0.211 -1.7081 -0.2483 -1.5286
 6813TIP3    H241931   5.180   5.043   0.147  1.5464 -3.0290  0.8736
 6814TIP3   OH241932   1.948   0.255   2.509 -0.2812  0.6268 -0.5702
 6814TIP3    H141933   1.883   0.228   2.574  1.1218  0.2903  0.7164
 6814TIP3    H241934   2.019   0.191   2.518  2.0610  3.3053  0.9197
 6815TIP3   OH241935   1.232   5.680   5.331 -0.0147 -0.0737 -0.2127
 6815TIP3    H141936   1.269   5.766   5.311  1.8606 -0.4005  1.6084
 6815TIP3    H241937   1.252   5.666   5.424 -1.3829 -1.9454 -0.1577
 6816TIP3   OH241938   5.890   2.687   3.456 -0.3784  0.0736  0.3967
 6816TIP3    H141939   5.893   2.605   3.505  0.1301  1.3878  2.6469
 6816TIP3    H241940   5.885   2.755   3.524  0.5451  1.9563 -1.3734
 6817TIP3   OH241941   1.973   5.692  14.560 -0.1255  0.0377  0.3636
 6817TIP3    H141942   2.057   5.648  14.577  0.3407  0.5281 -0.5862
 6817TIP3    H241943   1.972   5.702  14.465 -1.0529  0.4663  0.4249
 6818TIP3   OH241944   3.973   3.395   0.976 -0.1190 -0.1476 -0.0508
 6818TIP3    H141945   3.930   3.331   1.033 -1.0422  0.8131  0.3481
 6818TIP3    H241946   3.904   3.422   0.915  0.1341  0.8354  0.0964
 6819TIP3   OH241947   4.932   0.474   0.917  0.4147  0.6398 -0.2890
 6819TIP3    H141948   4.844   0.509   0.931  0.0234 -0.3425 -0.2520
 6819TIP3    H241949   4.991   0.543   0.947 -0.3646  0.7166  1.1019
 6820TIP3   OH241950   0.702   4.163   5.222 -0.6678  0.3735  0.5238
 6820TIP3    H141951   0.731   4.224   5.290  0.5398 -1.8047  2.0327
 6820TIP3    H241952   0.733   4.078   5.252  0.2889 -0.6142 -2.9943
 6821TIP3   OH241953   1.101   5.590  15.191  0.9598 -0.1202 -0.2127
 6821TIP3    H141954   1.128   5.534  15.118  0.1577  0.5725 -1.0397
 6821TIP3    H241955   1.183   5.626  15.224  1.1884  0.8382 -1.8007
 6822TIP3   OH241956   0.603   2.693  14.000 -0.1786 -0.3218  0.6079
 6822TIP3    H141957   0.523   2.745  13.990  1.4872  1.8793 -1.6253
 6822TIP3    H241958   0.630   2.707  14.090 -2.2044 -0.9833  1.3523
 6823TIP3   OH241959   2.881   2.806   1.946 -0.6495 -0.3423  0.5807
 6823TIP3    H141960   2.800   2.794   1.995 -0.3321  0.5267  1.3204
 6823TIP3    H241961   2.866   2.759   1.863 -1.4228 -1.2461  1.2270
 6824TIP3   OH241962   1.780   3.520  12.456 -0.3666  0.2989 -0.3755
 6824TIP3    H141963   1.690   3.529  12.424 -0.1094  0.0421 -1.1923
 6824TIP3    H241964   1.815   3.446  12.406  0.1770  0.1611  0.2142
 6825TIP3   OH241965   1.468   1.508   1.183 -0.7450  0.5340  0.2448
 6825TIP3    H141966   1.559   1.534   1.192 -0.4945 -0.3013  0.1999
 6825TIP3    H241967   1.449   1.460   1.264 -0.7796 -0.3330 -0.2699
 6826TIP3   OH241968   0.672   4.583  13.836 -0.3221  0.3579 -0.6225
 6826TIP3    H141969   0.685   4.496  13.875 -1.3499  0.6616  0.4071
 6826TIP3    H241970   0.760   4.619  13.827 -0.1269  0.9548  2.9314
 6827TIP3   OH241971   0.438   2.144  16.594  0.3763  0.5587 -0.0901
 6827TIP3    H141972   0.376   2.199  16.642  0.9596  1.2632 -0.1490
 6827TIP3    H241973   0.524   2.181  16.613  0.5779  1.2921 -2.2287
 6828TIP3   OH241974   6.739   6.129   2.882 -0.2236  0.2606 -0.2554
 6828TIP3    H141975   6.753   6.035   2.874 -0.6450  0.0706  1.1485
 6828TIP3    H241976   6.700   6.155   2.798 -0.2161 -0.8255 -0.6001
 6829TIP3   OH241977   1.198   3.869  12.514  0.3474  0.0793 -0.2400
 6829TIP3    H141978   1.291   3.876  12.490  0.2488 -0.5091 -0.8083
 6829TIP3    H241979   1.169   3.788  12.473 -0.3116  0.0322  0.3113
 6830TIP3   OH241980   0.307   2.514   3.749 -0.6561  0.8321 -1.2303
 6830TIP3    H141981   0.396   2.488   3.770 -1.2115 -0.2535 -0.1175
 6830TIP3    H241982   0.266   2.434   3.716 -1.5364  1.0213 -0.6266
 6831TIP3   OH241983   4.994   0.650  15.755 -0.7227  0.0296  0.2308
 6831TIP3    H141984   5.082   0.621  15.779 -0.2719 -0.4038 -1.8116
 6831TIP3    H241985   4.977   0.726  15.810  0.7078 -0.2125  1.0241
 6832TIP3   OH241986   3.497   3.828  15.206 -0.2941 -0.2678 -0.2137
 6832TIP3    H141987   3.489   3.899  15.270  0.0582  0.2174 -0.7025
 6832TIP3    H241988   3.590   3.828  15.182 -0.5874  0.1071 -1.3555
 6833TIP3   OH241989   5.369   0.085   4.921  1.0503  0.0604  0.0512
 6833TIP3    H141990   5.379   0.022   4.850 -0.2399  2.7770 -2.6678
 6833TIP3    H241991   5.455   0.086   4.964  2.8048  0.3342 -3.2543
 6834TIP3   OH241992   3.186   3.723   0.779 -0.2928 -0.0831 -0.6703
 6834TIP3    H141993   3.110   3.704   0.724 -0.9958 -1.6369  0.8259
 6834TIP3    H241994   3.157   3.703   0.868  1.4747  0.5159  0.0523
 6835TIP3   OH241995   0.223   2.713   4.724 -0.2780  0.5202  0.1196
 6835TIP3    H141996   0.148   2.655   4.714 -0.6202  0.3685  3.2135
 6835TIP3    H241997   0.293   2.671   4.675 -1.6301 -0.3966 -1.0588
 6836TIP3   OH241998   3.125   3.008  14.532 -1.1972 -0.0228 -0.1213
 6836TIP3    H141999   3.112   3.091  14.486 -0.8783  0.4720  0.6865
 6836TIP3    H242000   3.038   2.984  14.562 -1.2327  0.1904 -0.0521
 6837TIP3   OH242001   5.998   0.069   3.217 -0.7010  0.6203  0.3454
 6837TIP3    H142002   6.091   0.071   3.196 -0.7648 -0.6650 -0.1582
 6837TIP3    H242003   5.960   0.138   3.164  0.0954  1.8230  1.3080
 6838TIP3   OH242004   6.496   5.561   3.147 -0.3534 -0.7220 -0.1269
 6838TIP3    H142005   6.428   5.508   3.187  1.4703 -1.6884  1.7509
 6838TIP3    H242006   6.571   5.502   3.138  0.9004  0.8582 -0.2774
 6839TIP3   OH242007   0.213   3.210  16.385  0.0481  0.4499  0.3637
 6839TIP3    H142008   0.163   3.274  16.435  0.2491  2.1529 -1.5360
 6839TIP3    H242009   0.147   3.151  16.348 -0.1802 -0.1134  1.6595
 6840TIP3   OH242010   2.974   4.902   4.393  0.0495 -0.1441 -0.3520
 6840TIP3    H142011   2.974   4.995   4.372 -1.5873 -0.1046 -0.2647
 6840TIP3    H242012   2.946   4.859   4.312 -0.5899 -0.4350  0.0167
 6841TIP3   OH242013   5.224   6.223  11.731  0.1880 -0.1815  0.1004
 6841TIP3    H142014   5.263   6.167  11.663 -0.5555  0.4885 -0.8940
 6841TIP3    H242015   5.171   6.286  11.682  0.1241  0.6863  1.2790
 6842TIP3   OH242016   2.927   5.521   1.808 -0.2060  0.3559  0.0992
 6842TIP3    H142017   2.850   5.463   1.812  0.1510 -0.0742  1.0188
 6842TIP3    H242018   2.997   5.470   1.849 -0.1719  1.8673  2.0340
 6843TIP3   OH242019   3.085   0.958   1.043  0.2113  0.2108 -0.7700
 6843TIP3    H142020   3.110   0.973   1.134  1.5702 -0.2490 -1.0505
 6843TIP3    H242021   3.146   0.892   1.012 -0.3101  0.2819 -1.9905
 6844TIP3   OH242022   6.266   5.089   5.047 -0.0986  0.3973 -0.2140
 6844TIP3    H142023   6.276   5.126   5.135 -0.3392  0.1055 -0.0609
 6844TIP3    H242024   6.354   5.095   5.009 -0.0633  0.8159 -0.0711
 6845TIP3   OH242025   5.799   5.651  13.909  0.0792  0.3938  0.4896
 6845TIP3    H142026   5.823   5.700  13.830  2.2555 -0.2721  0.7036
 6845TIP3    H242027   5.718   5.692  13.939 -0.8496  0.5919 -2.1397
 6846TIP3   OH242028   4.433   5.184   1.665  0.0895  0.4776  0.2956
 6846TIP3    H142029   4.398   5.255   1.720 -1.7626  0.4134 -0.7622
 6846TIP3    H242030   4.437   5.108   1.724  0.3766  0.9993  0.9608
 6847TIP3   OH242031   4.680   3.851   2.756 -0.2828 -0.2823 -0.0577
 6847TIP3    H142032   4.700   3.796   2.681  1.4839 -0.5518  0.5985
 6847TIP3    H242033   4.596   3.817   2.789 -0.2413 -1.2106 -0.9160
 6848TIP3   OH242034   5.681   4.379   1.924  0.5562  0.1241 -0.0605
 6848TIP3    H142035   5.729   4.307   1.884 -0.1489  1.1396 -2.8169
 6848TIP3    H242036   5.741   4.453   1.921  1.1518 -0.1960  2.4512
 6849TIP3   OH242037   3.679   6.219  11.016 -0.0017  0.1215  0.2443
 6849TIP3    H142038   3.593   6.235  11.056  0.2741 -0.0902  0.9256
 6849TIP3    H242039   3.730   6.297  11.038  0.4504 -0.4179  1.1320
 6850TIP3   OH242040   0.296   6.129   5.815 -0.3705 -0.1249  0.1624
 6850TIP3    H142041   0.388   6.158   5.819  0.3558 -2.2239 -0.8486
 6850TIP3    H242042   0.246   6.209   5.832  1.6508  0.8805  1.6412
 6851TIP3   OH242043   1.445   6.685   2.228 -0.2027  0.7417  0.2442
 6851TIP3    H142044   1.396   6.749   2.178  0.5856  0.2247 -1.2049
 6851TIP3    H242045   1.510   6.649   2.167 -0.2716 -1.0389  1.1536
 6852TIP3   OH242046   4.111   4.365   1.647  0.8235  0.1611  0.2267
 6852TIP3    H142047   4.048   4.389   1.579  0.9478  2.0586  0.7697
 6852TIP3    H242048   4.167   4.300   1.604  0.3345  0.6438 -1.1883
 6853TIP3   OH242049   3.779   0.636   5.984 -0.2275 -0.1218 -0.2015
 6853TIP3    H142050   3.863   0.591   5.974  0.2207  0.6337  0.1568
 6853TIP3    H242051   3.719   0.568   6.014  0.4977 -0.4426  0.5548
 6854TIP3   OH242052   4.694   2.529  15.682 -0.0791  0.8880 -0.2672
 6854TIP3    H142053   4.752   2.531  15.607  0.5005  0.0894  0.1596
 6854TIP3    H242054   4.720   2.604  15.735  1.1010  0.0755  0.3186
 6855TIP3   OH242055   2.436   6.027   5.715  0.1942 -0.2694  0.8092
 6855TIP3    H142056   2.514   5.994   5.671 -1.9050 -1.1846 -2.4177
 6855TIP3    H242057   2.430   6.118   5.688 -1.2341 -0.8979 -1.0338
 6856TIP3   OH242058   4.891   3.841  11.136  0.2503 -0.0780 -0.2907
 6856TIP3    H142059   4.897   3.916  11.077 -0.5331  2.2181  2.4350
 6856TIP3    H242060   4.799   3.816  11.134  0.1835  0.1263  0.0499
 6857TIP3   OH242061   0.032   0.550  12.484 -0.2774  0.5938 -0.4870
 6857TIP3    H142062   0.012   0.609  12.556 -0.3865 -1.9887  1.6633
 6857TIP3    H242063   0.128   0.546  12.481 -0.2650  1.1593 -0.8783
 6858TIP3   OH242064   4.740   3.192   5.891  0.0730 -0.0267 -0.4141
 6858TIP3    H142065   4.762   3.128   5.960 -0.2302 -1.5693 -1.7257
 6858TIP3    H242066   4.820   3.243   5.881  0.5451 -0.6164  0.2081
 6859TIP3   OH242067   6.428   2.386   5.852 -0.4499 -0.0762  0.5768
 6859TIP3    H142068   6.365   2.325   5.813  1.1032 -1.1170 -0.3402
 6859TIP3    H242069   6.387   2.472   5.842 -1.4124 -0.6607 -0.6489
 6860TIP3   OH242070   5.721   6.625   0.729 -0.7760  0.4119  0.0453
 6860TIP3    H142071   5.767   6.702   0.762  0.6964 -0.6070  0.4258
 6860TIP3    H242072   5.645   6.615   0.786  0.7081 -0.2168  1.9467
 6861TIP3   OH242073   6.275   3.370  16.222  0.4946  0.1818 -0.2059
 6861TIP3    H142074   6.290   3.340  16.312  0.4137 -1.7224 -0.8258
 6861TIP3    H242075   6.359   3.356  16.178  0.4930  0.9852 -0.4758
 6862TIP3   OH242076   2.823   3.338   0.202 -0.2233  0.4592  0.5069
 6862TIP3    H142077   2.841   3.245   0.186 -1.2314  0.2855  0.3534
 6862TIP3    H242078   2.729   3.342   0.217  0.1135  1.1258  2.7679
 6863TIP3   OH242079   5.467   1.392  12.471  0.7307  0.2904 -0.4276
 6863TIP3    H142080   5.437   1.415  12.559  0.4301 -1.1983 -0.1173
 6863TIP3    H242081   5.547   1.442  12.458 -0.1721  1.8640  0.0060
 6864TIP3   OH242082   4.515   3.661   3.975  0.8989 -0.6549  0.1990
 6864TIP3    H142083   4.578   3.727   3.946  0.9433 -0.6949  0.2033
 6864TIP3    H242084   4.459   3.645   3.899  1.0370 -0.7840  0.1241
 6865TIP3   OH242085   4.320   3.210   2.244 -0.0974  0.1495 -0.2149
 6865TIP3    H142086   4.334   3.145   2.313  1.5912  0.2190 -0.4834
 6865TIP3    H242087   4.259   3.167   2.183 -1.4154 -0.0002  1.1715
 6866TIP3   OH242088   0.076   3.736   3.252 -0.1120  0.3995 -0.0996
 6866TIP3    H142089  -0.009   3.779   3.258 -0.4003 -0.3474  1.5249
 6866TIP3    H242090   0.061   3.660   3.195 -0.4520  0.4608 -0.0887
 6867TIP3   OH242091   1.336   6.529   3.296 -0.6371 -0.0696 -0.0028
 6867TIP3    H142092   1.403   6.538   3.230 -1.7754 -0.8047 -1.2916
 6867TIP3    H242093   1.284   6.609   3.290 -0.9180 -0.2650 -0.2050
 6868TIP3   OH242094   5.386   1.903   2.081 -0.0624  0.6705  0.2963
 6868TIP3    H142095   5.333   1.850   2.140 -1.3780  2.1572  0.4675
 6868TIP3    H242096   5.457   1.937   2.136  0.9930 -1.1320  0.1139
 6869TIP3   OH242097   3.352   3.218   6.105  0.3089  0.0031  0.8194
 6869TIP3    H142098   3.413   3.149   6.132  1.7337  0.5439 -0.9722
 6869TIP3    H242099   3.406   3.296   6.097 -0.8745  0.7932  0.4806
 6870TIP3   OH242100   5.857   6.789   5.582  0.2624  0.3895  0.4684
 6870TIP3    H142101   5.952   6.782   5.586  0.1521 -0.2739  2.2682
 6870TIP3    H242102   5.841   6.851   5.511  1.9194 -1.8885 -2.0056
 6871TIP3   OH242103   1.848   0.940   6.209 -0.1268 -0.3823 -0.1243
 6871TIP3    H142104   1.940   0.921   6.224 -0.0924  0.8404  1.2720
 6871TIP3    H242105   1.801   0.864   6.242  0.2126  0.3680  2.1570
 6872TIP3   OH242106   2.442   3.953  14.042  0.2406 -0.0068 -0.4006
 6872TIP3    H142107   2.517   3.914  13.997  0.9015  0.5272  0.2236
 6872TIP3    H242108   2.370   3.946  13.979  0.8640 -0.3416 -1.0845
 6873TIP3   OH242109   4.632   0.713   4.592 -0.5986 -0.6804  0.1510
 6873TIP3    H142110   4.613   0.640   4.534  2.2097  0.1258 -1.8866
 6873TIP3    H242111   4.551   0.763   4.596 -1.1101 -1.2588 -2.3620
 6874TIP3   OH242112   2.365   4.695  15.044 -0.0822  0.3006  0.3259
 6874TIP3    H142113   2.451   4.733  15.022  0.9818 -1.4153  1.4122
 6874TIP3    H242114   2.358   4.618  14.988 -1.2393  0.8223 -0.2530
 6875TIP3   OH242115   2.611   0.756  17.037 -0.7895  0.2167 -0.2785
 6875TIP3    H142116   2.556   0.710  17.101  0.3042  0.6602  0.9854
 6875TIP3    H242117   2.555   0.827  17.005  0.0022  2.5482  3.2339
 6876TIP3   OH242118   4.666   0.359  14.715  0.1080 -0.1814  0.4264
 6876TIP3    H142119   4.623   0.298  14.776 -1.8661 -0.0334 -0.7565
 6876TIP3    H242120   4.618   0.441  14.727 -0.3426 -0.1720 -1.3568
 6877TIP3   OH242121   0.301   6.584   2.563  0.1916  0.0067  0.0690
 6877TIP3    H142122   0.323   6.641   2.490 -2.1373 -0.3943 -0.9825
 6877TIP3    H242123   0.384   6.574   2.611  1.3189  1.7746 -1.4325
 6878TIP3   OH242124   0.423   1.995   2.556  0.5615 -0.0097  0.3600
 6878TIP3    H142125   0.412   2.019   2.648 -0.5716 -2.6899  0.9899
 6878TIP3    H242126   0.362   2.051   2.509 -1.5398 -1.0828  1.6985
 6879TIP3   OH242127   6.334   4.140  14.512  0.0983  0.3319  0.2035
 6879TIP3    H142128   6.409   4.081  14.499  0.9566  1.4310  0.0826
 6879TIP3    H242129   6.304   4.121  14.601  1.1923  0.6351  0.6449
 6880TIP3   OH242130   5.353   4.874   4.777 -0.4100  0.1944 -0.4207
 6880TIP3    H142131   5.345   4.958   4.731  0.8606  1.0677  0.9027
 6880TIP3    H242132   5.267   4.860   4.818  0.3748  2.5441  2.1488
 6881TIP3   OH242133   6.598   3.908  13.064  0.1591  0.3380  0.4510
 6881TIP3    H142134   6.591   3.952  12.979  0.3089 -0.1048  0.2088
 6881TIP3    H242135   6.512   3.922  13.105 -0.5948 -1.0951 -0.5870
 6882TIP3   OH242136   3.412   3.446   5.812  0.0155 -0.2603  0.0752
 6882TIP3    H142137   3.449   3.427   5.898  0.4697  1.3215  0.2421
 6882TIP3    H242138   3.329   3.397   5.811  0.2260 -0.6636  1.2162
 6883TIP3   OH242139   0.904   3.180  16.631 -0.0580  0.0787 -0.0595
 6883TIP3    H142140   0.844   3.252  16.611 -0.4038  0.2102  1.3992
 6883TIP3    H242141   0.982   3.223  16.665 -0.9583 -0.2610  2.6022
 6884TIP3   OH242142   0.366   5.269  14.382  0.2758 -0.0919  0.3743
 6884TIP3    H142143   0.328   5.281  14.469 -0.5402 -2.4904  0.4039
 6884TIP3    H242144   0.336   5.345  14.332 -2.1189 -0.4206  1.2457
 6885TIP3   OH242145   6.332   1.568   3.080 -0.2322  0.3974  0.1716
 6885TIP3    H142146   6.407   1.627   3.080  0.4337 -0.4234  1.3851
 6885TIP3    H242147   6.358   1.497   3.138 -1.7347 -0.1760  0.1578
 6886TIP3   OH242148   2.381   3.852   1.215 -0.3701  0.1131 -0.4670
 6886TIP3    H142149   2.335   3.785   1.265  0.5552  0.6073  1.0779
 6886TIP3    H242150   2.473   3.836   1.232 -0.1459  2.0328  0.3032
 6887TIP3   OH242151   1.838   6.060   3.977 -0.3522  0.1185 -0.5031
 6887TIP3    H142152   1.780   6.097   3.911 -0.2299  2.1172  0.4734
 6887TIP3    H242153   1.851   5.969   3.950 -2.2379  0.2417 -1.8878
 6888TIP3   OH242154   3.904   5.448  16.649 -0.1792  0.4379 -0.3222
 6888TIP3    H142155   3.825   5.451  16.594 -0.3942  0.1910 -0.0266
 6888TIP3    H242156   3.970   5.407  16.593 -0.7288 -0.9263  0.0087
 6889TIP3   OH242157   6.532   6.742  14.436  0.1756  0.2034  0.6355
 6889TIP3    H142158   6.582   6.817  14.404 -2.0023  1.6642  0.5489
 6889TIP3    H242159   6.466   6.727  14.368 -0.3098 -0.8940  1.3434
 6890TIP3   OH242160   1.125   0.752   3.199  0.1096 -0.0835 -0.0200
 6890TIP3    H142161   1.059   0.704   3.149  1.7575 -1.6844 -0.7466
 6890TIP3    H242162   1.076   0.794   3.270 -1.8376 -0.2175 -1.2483
 6891TIP3   OH242163   0.121   6.714  17.012 -0.3887 -0.3109 -0.3890
 6891TIP3    H142164   0.212   6.742  17.024 -0.8360  0.6159  0.9492
 6891TIP3    H242165   0.120   6.623  17.042 -0.3253  0.3222  1.6250
 6892TIP3   OH242166   4.177   6.157  11.451 -0.4667 -0.1156 -0.6424
 6892TIP3    H142167   4.148   6.245  11.477  1.8832  0.0247  1.7681
 6892TIP3    H242168   4.247   6.173  11.387 -0.4466 -0.2317 -0.6489
 6893TIP3   OH242169   5.324   0.918  15.189 -0.2258 -0.0173 -0.0274
 6893TIP3    H142170   5.371   0.962  15.260  0.9160 -0.1753 -0.6820
 6893TIP3    H242171   5.380   0.930  15.112 -2.0281  1.2349 -1.1874
 6894TIP3   OH242172   4.010   0.340  15.443  0.1637  0.2272 -0.1013
 6894TIP3    H142173   3.998   0.299  15.528  0.6483  0.8581  0.2711
 6894TIP3    H242174   3.921   0.365  15.416  0.0624  0.4461  0.4281
 6895TIP3   OH242175   0.441   5.034  12.289  0.2334  0.0984 -0.4033
 6895TIP3    H142176   0.478   4.946  12.300 -2.1183 -0.7864  0.7817
 6895TIP3    H242177   0.455   5.054  12.197  2.9381 -0.4913 -0.1706
 6896TIP3   OH242178   6.445   1.097   1.150 -0.3922 -0.1945 -0.0888
 6896TIP3    H142179   6.394   1.079   1.229  0.0483  0.0328  0.2426
 6896TIP3    H242180   6.523   1.143   1.181 -2.1363  3.6054 -1.0415
 6897TIP3   OH242181   0.687   1.940   4.243 -0.3179 -0.2608 -0.2469
 6897TIP3    H142182   0.740   1.952   4.164  2.1706 -1.5102  1.1561
 6897TIP3    H242183   0.618   1.879   4.217  0.1664 -0.2389 -1.5985
 6898TIP3   OH242184   4.991   6.553  14.708  0.0664 -0.0995  0.8771
 6898TIP3    H142185   5.081   6.541  14.679 -0.5078 -1.2481 -0.4778
 6898TIP3    H242186   4.983   6.497  14.786  0.3085 -0.6083  0.5380
 6899TIP3   OH242187   2.051   3.370   4.372 -0.2295 -0.2277  0.3890
 6899TIP3    H142188   2.061   3.370   4.277 -2.4984 -0.5643  0.1243
 6899TIP3    H242189   2.092   3.289   4.401  0.3816 -0.1726 -0.3210
 6900TIP3   OH242190   1.748   1.853  13.258 -0.1226 -0.0095 -0.6014
 6900TIP3    H142191   1.717   1.941  13.241 -1.2013 -0.8283 -3.1428
 6900TIP3    H242192   1.700   1.825  13.335  0.4355  1.7072  0.3876
 6901TIP3   OH242193   1.386   5.587   4.491  0.0436  0.2109 -0.0757
 6901TIP3    H142194   1.305   5.572   4.443 -0.0133  1.0271 -0.2540
 6901TIP3    H242195   1.381   5.529   4.566  0.0583 -0.9711 -0.9739
 6902TIP3   OH242196   1.221   4.303   2.554  0.2253  0.2339 -0.3437
 6902TIP3    H142197   1.166   4.380   2.564 -0.4370 -0.1530 -0.9509
 6902TIP3    H242198   1.201   4.248   2.630 -0.9029 -0.3082 -1.0085
 6903TIP3   OH242199   3.296   3.792  13.736 -0.1650 -0.2116 -0.2601
 6903TIP3    H142200   3.346   3.861  13.693 -0.8051 -0.9013 -2.1642
 6903TIP3    H242201   3.224   3.838  13.779  0.8868  0.5557  0.7177
 6904TIP3   OH242202   6.708   1.451  11.274 -0.0224 -0.2556  0.0200
 6904TIP3    H142203   6.638   1.401  11.233 -1.0034 -0.1116  1.5007
 6904TIP3    H242204   6.705   1.426  11.366  2.0618 -0.4644  0.0508
 6905TIP3   OH242205   5.947   3.780   3.339  0.2184 -0.1405  0.1791
 6905TIP3    H142206   6.008   3.729   3.393  0.8074  0.2028 -0.1548
 6905TIP3    H242207   6.003   3.840   3.290 -0.4007  0.2412 -0.0666
 6906TIP3   OH242208   3.164   1.054  14.798 -0.7343 -0.2009 -0.3290
 6906TIP3    H142209   3.228   0.984  14.786  1.5960  2.0964 -1.7706
 6906TIP3    H242210   3.163   1.070  14.893  0.8345 -0.2603 -0.3021
 6907TIP3   OH242211   1.044   1.653  16.766  0.1961  0.4495  0.1323
 6907TIP3    H142212   1.112   1.649  16.698 -0.4617 -0.4732 -0.4915
 6907TIP3    H242213   1.003   1.738  16.753  1.1546  0.9686  0.4378
 6908TIP3   OH242214   4.856   1.100  15.593  0.1303  0.0500 -0.0310
 6908TIP3    H142215   4.912   1.161  15.544 -0.4022 -0.0905 -0.8292
 6908TIP3    H242216   4.917   1.045  15.641  0.6214  1.2067  0.7030
 6909TIP3   OH242217   2.826   1.232  11.406 -0.2450  0.3012 -0.5015
 6909TIP3    H142218   2.900   1.293  11.401 -1.3511  1.5910 -1.5413
 6909TIP3    H242219   2.763   1.276  11.464 -1.3811  0.5436 -1.8778
 6910TIP3   OH242220   1.591   5.798  12.440 -0.3363  0.0557  0.1133
 6910TIP3    H142221   1.526   5.833  12.379 -0.1810 -0.2254 -0.2204
 6910TIP3    H242222   1.639   5.733  12.388 -0.0213  0.0142  0.4570
 6911TIP3   OH242223   1.010   2.769  14.672 -0.3479 -0.0925 -0.3925
 6911TIP3    H142224   0.918   2.753  14.651 -0.5203 -0.7843  0.8760
 6911TIP3    H242225   1.026   2.858  14.640 -1.7359  0.4141  0.2860
 6912TIP3   OH242226   4.858   2.417   0.546 -0.5852 -0.1500 -0.3037
 6912TIP3    H142227   4.797   2.428   0.619 -1.0551  0.5629 -0.7907
 6912TIP3    H242228   4.835   2.333   0.507 -1.9711  0.5983 -1.1328
 6913TIP3   OH242229   5.543   5.995   0.003  0.8588 -0.3864  0.2395
 6913TIP3    H142230   5.549   5.971   0.096 -0.3784 -1.6724  0.0030
 6913TIP3    H242231   5.450   6.010  -0.012  1.3082  2.2668 -0.2346
 6914TIP3   OH242232   5.911   3.911  16.292 -0.2237 -0.0337  0.6121
 6914TIP3    H142233   5.971   3.983  16.275 -0.4186  0.3241  1.4269
 6914TIP3    H242234   5.910   3.861  16.210  1.3294 -0.1490  0.6419
 6915TIP3   OH242235   4.844   4.578   6.356  0.0184  0.3272 -0.6955
 6915TIP3    H142236   4.811   4.492   6.381 -1.0148  0.5011 -1.4337
 6915TIP3    H242237   4.938   4.564   6.340  0.0223 -0.4743  0.0137
 6916TIP3   OH242238   1.814   3.794   2.241  0.5375  0.6300  0.2968
 6916TIP3    H142239   1.813   3.886   2.268  0.3447  0.5764  0.4782
 6916TIP3    H242240   1.772   3.794   2.155 -1.9380  0.3668  1.4568
 6917TIP3   OH242241   6.564   3.386   3.489  0.5148  0.1053 -0.4033
 6917TIP3    H142242   6.608   3.454   3.437  0.3799  0.5740  0.0925
 6917TIP3    H242243   6.613   3.306   3.469 -1.0658 -0.2317 -3.1789
 6918TIP3   OH242244   0.008   5.348  16.166  0.3981 -0.4341  0.6254
 6918TIP3    H142245  -0.041   5.284  16.219  0.9934 -0.4773  1.1305
 6918TIP3    H242246   0.092   5.356  16.210  0.5703  0.2135  0.1903
 6919TIP3   OH242247   0.037   2.715  11.560  0.0462  0.0393  0.1312
 6919TIP3    H142248   0.120   2.761  11.547 -0.2281  0.4610 -0.1265
 6919TIP3    H242249   0.035   2.695  11.653  0.6884 -0.4490  0.0460
 6920TIP3   OH242250   1.467   5.388  12.876  0.1194 -0.4925  0.6656
 6920TIP3    H142251   1.429   5.363  12.792  0.2481 -1.4064  0.8750
 6920TIP3    H242252   1.543   5.442  12.853 -0.3948  0.0498  0.2184
 6921TIP3   OH242253   5.034   4.095  13.756  0.1653 -0.2866  0.5802
 6921TIP3    H142254   5.117   4.117  13.798 -1.2005  0.2775  3.0912
 6921TIP3    H242255   5.010   4.010  13.794  0.3452 -1.1943 -1.3030
 6922TIP3   OH242256   4.997   4.638   3.037 -0.1961 -0.0831  0.4559
 6922TIP3    H142257   5.086   4.655   3.066 -0.7421  1.8951  1.0475
 6922TIP3    H242258   4.956   4.592   3.110  0.6001 -1.8692 -0.1985
 6923TIP3   OH242259   4.341   2.888   4.464  0.0496  0.0184  0.6470
 6923TIP3    H142260   4.256   2.930   4.453  0.9585  1.9862  0.9384
 6923TIP3    H242261   4.404   2.951   4.430  1.3171 -1.9285 -0.7301
 6924TIP3   OH242262   0.853   2.244  13.686  0.3584  0.2541  0.1067
 6924TIP3    H142263   0.871   2.155  13.656 -0.7736 -0.2416  0.8436
 6924TIP3    H242264   0.761   2.259  13.663  0.5391  1.2265 -0.0012
 6925TIP3   OH242265   5.455   6.572   6.099  0.2777 -0.2589 -0.7059
 6925TIP3    H142266   5.488   6.491   6.138 -0.3319 -0.6107 -0.9135
 6925TIP3    H242267   5.489   6.571   6.009  0.0720 -0.4107 -0.7847
 6926TIP3   OH242268   2.690   0.402  13.542  0.6593 -0.2753 -0.3521
 6926TIP3    H142269   2.734   0.328  13.584  1.0726  0.1969  0.0473
 6926TIP3    H242270   2.633   0.438  13.610 -0.1718 -0.7301 -0.7912
 6927TIP3   OH242271   0.660   0.244   5.479  0.8591 -0.1921  0.7501
 6927TIP3    H142272   0.723   0.286   5.538  0.6962  0.2813  0.5945
 6927TIP3    H242273   0.681   0.151   5.483  0.7668 -0.1724  1.6442
 6928TIP3   OH242274   0.801   5.627   5.340 -0.1708 -0.1331  0.4564
 6928TIP3    H142275   0.787   5.535   5.319 -0.8144  0.4904 -1.9443
 6928TIP3    H242276   0.868   5.656   5.278 -0.7446  1.2985  0.4890
 6929TIP3   OH242277   1.013   5.407   3.788 -0.3590  0.3860  0.1074
 6929TIP3    H142278   1.081   5.348   3.756  0.2290  1.0472  0.1390
 6929TIP3    H242279   0.932   5.370   3.752  0.2861  1.1713 -2.2595
 6930TIP3   OH242280   6.484   4.010  11.729  0.0262  0.2212  0.4462
 6930TIP3    H142281   6.521   3.936  11.776  0.2675 -0.0774 -0.2082
 6930TIP3    H242282   6.501   4.086  11.784 -1.6514 -0.4267  1.9008
 6931TIP3   OH242283   5.077   1.753  12.119  0.4515  0.3578  0.7423
 6931TIP3    H142284   5.099   1.842  12.091 -0.1469  0.5305  0.8227
 6931TIP3    H242285   5.093   1.699  12.041 -1.1386  0.8282  0.0758
 6932TIP3   OH242286   0.263   2.882   2.386  0.5218 -0.0909 -0.2414
 6932TIP3    H142287   0.322   2.894   2.461  0.2903  0.7851 -0.1948
 6932TIP3    H242288   0.177   2.865   2.425  0.4765 -0.0153 -0.3078
 6933TIP3   OH242289   3.458   2.656  11.292 -0.2331  0.2079 -1.0381
 6933TIP3    H142290   3.489   2.724  11.233 -0.6429  0.3150 -1.1286
 6933TIP3    H242291   3.395   2.606  11.241 -0.6883  0.3808 -0.6549
 6934TIP3   OH242292   4.424   6.267   2.969  0.7331  0.2834  0.3754
 6934TIP3    H142293   4.402   6.208   2.897 -0.6294 -1.9775  2.5561
 6934TIP3    H242294   4.341   6.304   2.997  1.3228  1.5946  0.4031
 6935TIP3   OH242295   3.207   4.573   0.107  0.5043  0.3291 -0.1666
 6935TIP3    H142296   3.206   4.531   0.021  1.2181  1.4726 -0.7564
 6935TIP3    H242297   3.115   4.577   0.133  0.4154 -1.3677 -0.2028
 6936TIP3   OH242298   6.697   1.348  16.091  0.2415 -0.0327 -0.3517
 6936TIP3    H142299   6.738   1.400  16.160 -1.0601  1.8877 -1.0099
 6936TIP3    H242300   6.606   1.339  16.118 -0.1529  0.2702 -1.5328
 6937TIP3   OH242301   3.769   4.734  16.105  0.1687  0.2667  0.2010
 6937TIP3    H142302   3.745   4.646  16.134  1.3231 -0.4268 -0.8784
 6937TIP3    H242303   3.850   4.721  16.055  0.5532  1.9960  0.3569
 6938TIP3   OH242304   3.532   4.684  12.911 -0.0295 -0.3739 -0.4061
 6938TIP3    H142305   3.504   4.775  12.905 -0.2838 -0.4731 -0.7037
 6938TIP3    H242306   3.626   4.690  12.929  0.3153 -0.0612 -2.2334
 6939TIP3   OH242307   5.513   5.559   3.971  0.2863  0.2876 -0.2829
 6939TIP3    H142308   5.467   5.581   4.052  0.7147 -1.1679  0.3812
 6939TIP3    H242309   5.443   5.537   3.909  0.0154 -3.4864  1.1811
 6940TIP3   OH242310   0.398   2.151  13.473  0.2274 -0.4017 -0.7112
 6940TIP3    H142311   0.415   2.061  13.447 -0.5442 -0.6324 -0.4047
 6940TIP3    H242312   0.327   2.180  13.417 -1.4372 -0.8978  1.0892
 6941TIP3   OH242313   4.136   2.146   4.864  0.3940  0.1225  0.1602
 6941TIP3    H142314   4.061   2.177   4.813  0.6621 -1.1139 -1.0252
 6941TIP3    H242315   4.209   2.147   4.803  0.8498 -0.8206  0.6763
 6942TIP3   OH242316   4.081   3.266  12.853 -0.2931  0.3549 -0.4040
 6942TIP3    H142317   4.135   3.196  12.888 -1.7203 -1.3550 -1.5632
 6942TIP3    H242318   4.076   3.248  12.759 -1.1226  1.7038 -0.6403
 6943TIP3   OH242319   2.233   5.894   1.234 -0.4164  0.0571 -0.2834
 6943TIP3    H142320   2.315   5.892   1.185 -0.5771  0.8911 -0.5883
 6943TIP3    H242321   2.235   5.814   1.287  1.4700  1.0186  1.1489
 6944TIP3   OH242322   3.771   6.284   4.384  0.5517  0.1937  0.5793
 6944TIP3    H142323   3.723   6.207   4.354 -0.0151  0.0529  1.8318
 6944TIP3    H242324   3.863   6.257   4.380  0.4246 -0.1587 -0.0749
 6945TIP3   OH242325   0.303   6.131   4.391 -0.4505 -0.0379  0.3513
 6945TIP3    H142326   0.338   6.097   4.474 -2.4239 -1.3856  0.6695
 6945TIP3    H242327   0.211   6.147   4.409 -0.2517  2.5802 -0.7421
 6946TIP3   OH242328   3.644   0.453   3.958 -0.1536 -0.2583  0.0981
 6946TIP3    H142329   3.566   0.420   4.002  0.0348  0.1144  0.7319
 6946TIP3    H242330   3.696   0.375   3.939 -0.1424 -0.4066  0.7293
 6947TIP3   OH242331   0.858   2.620  13.353 -0.2704 -0.6359 -0.0739
 6947TIP3    H142332   0.947   2.592  13.371  0.2382  0.9182 -0.0713
 6947TIP3    H242333   0.811   2.606  13.436  0.8735  1.9045  1.0788
 6948TIP3   OH242334   0.019   1.084   3.678 -0.2415 -0.3878 -0.0040
 6948TIP3    H142335  -0.022   1.013   3.627 -1.5002 -1.2059  2.0789
 6948TIP3    H242336  -0.031   1.162   3.654  0.1415 -0.4893 -1.1469
 6949TIP3   OH242337   2.016   1.509   5.188  0.5398  0.3757  0.2202
 6949TIP3    H142338   2.001   1.441   5.254  0.8145 -0.2996 -0.4120
 6949TIP3    H242339   2.109   1.502   5.168  0.6598  1.2296  0.4684
 6950TIP3   OH242340   5.388   3.355   1.535 -0.5085 -0.3375  0.4922
 6950TIP3    H142341   5.440   3.339   1.614 -0.1726 -1.0786  0.1276
 6950TIP3    H242342   5.421   3.438   1.501  0.7110 -0.9850  0.0639
 6951TIP3   OH242343   4.142   0.697  15.458  0.2035 -0.0383  0.0856
 6951TIP3    H142344   4.165   0.608  15.432 -1.8082 -0.1865 -1.3051
 6951TIP3    H242345   4.220   0.730  15.502  1.4662 -1.9968 -0.6205
 6952TIP3   OH242346   0.640   1.442   5.358 -0.0115 -0.2931  0.1225
 6952TIP3    H142347   0.724   1.400   5.337  0.4486  0.0020  1.3104
 6952TIP3    H242348   0.663   1.511   5.420 -1.0188  0.4361 -0.2977
 6953TIP3   OH242349   4.176   0.473   0.718  0.5228  0.0464  0.4704
 6953TIP3    H142350   4.082   0.479   0.734  0.4244 -1.9997  0.7919
 6953TIP3    H242351   4.211   0.430   0.797  1.4550 -0.9288 -0.4555
 6954TIP3   OH242352   1.019   5.272   1.031 -0.5781 -0.1641  0.2270
 6954TIP3    H142353   0.924   5.287   1.029 -0.4330  0.7166  0.0317
 6954TIP3    H242354   1.041   5.245   0.942 -0.7332 -0.9384  0.4173
 6955TIP3   OH242355   3.533   0.698   4.777  0.1167 -0.0765 -0.4939
 6955TIP3    H142356   3.594   0.658   4.715  1.0732  0.3832  0.1316
 6955TIP3    H242357   3.584   0.767   4.819 -0.9634  0.5794 -0.2377
 6956TIP3   OH242358   1.035   3.228  13.963  0.5063 -0.0062  0.1630
 6956TIP3    H142359   1.037   3.207  13.870 -0.1917 -0.3399  0.2151
 6956TIP3    H242360   0.944   3.253  13.979  0.2611 -1.4115  1.0725
 6957TIP3   OH242361   2.842   3.218   5.510  0.3738 -0.1635 -0.0261
 6957TIP3    H142362   2.783   3.181   5.444 -0.2966  1.3218 -0.2668
 6957TIP3    H242363   2.859   3.145   5.570 -2.1349 -0.4812  0.3553
 6958TIP3   OH242364   1.913   5.698  16.780 -0.6056  0.6550  0.4648
 6958TIP3    H142365   1.833   5.646  16.784 -1.5962  1.9466 -1.6559
 6958TIP3    H242366   1.905   5.760  16.852 -1.6585  0.9380  0.1226
 6959TIP3   OH242367   3.449   5.506  15.547  0.1740 -0.6502 -0.1850
 6959TIP3    H142368   3.365   5.548  15.566  0.5745 -0.0935  0.3589
 6959TIP3    H242369   3.452   5.430  15.605  1.6186  1.3240  2.3928
 6960TIP3   OH242370   6.447   4.987  16.770 -0.1019  0.7419 -0.7572
 6960TIP3    H142371   6.369   5.037  16.796  0.1231  1.4164 -1.3459
 6960TIP3    H242372   6.413   4.911  16.723 -0.3542  2.2593 -3.0954
 6961TIP3   OH242373   5.897   5.175  15.674 -0.5984 -0.2377 -0.0555
 6961TIP3    H142374   5.844   5.253  15.657 -0.1300  0.3451  1.1094
 6961TIP3    H242375   5.969   5.181  15.611 -2.1105 -1.2732 -1.9731
 6962TIP3   OH242376   4.463   5.560   1.760 -0.0650 -0.5723  0.7662
 6962TIP3    H142377   4.555   5.577   1.779  0.1817  0.1757 -0.9854
 6962TIP3    H242378   4.416   5.636   1.794  0.1108 -0.3562  0.5257
 6963TIP3   OH242379   3.398   3.712   2.331  0.4582 -0.1475  0.1121
 6963TIP3    H142380   3.303   3.703   2.324  0.5086 -0.2075 -0.5616
 6963TIP3    H242381   3.424   3.755   2.249  0.8701  1.0138  0.8411
 6964TIP3   OH242382   6.418   5.989   2.216  0.4300 -0.2148 -1.1801
 6964TIP3    H142383   6.490   6.012   2.158  0.2079  0.8654 -1.0335
 6964TIP3    H242384   6.340   6.025   2.174  0.2976  0.7953 -0.0983
 6965TIP3   OH242385   4.138   1.032   5.741 -0.5176 -0.2012  0.0464
 6965TIP3    H142386   4.075   1.090   5.783  0.7362  0.5198  0.9762
 6965TIP3    H242387   4.127   0.948   5.786  1.1143  0.6777  2.1877
 6966TIP3   OH242388   4.195   2.244   3.425 -0.4328 -0.3127  0.3643
 6966TIP3    H142389   4.125   2.298   3.463 -0.1107  0.1626  0.2794
 6966TIP3    H242390   4.275   2.278   3.464 -0.1103  0.1128 -0.6716
 6967TIP3   OH242391   1.440   6.214  11.662  0.1171  0.0088  0.3560
 6967TIP3    H142392   1.437   6.237  11.755 -0.1078 -0.4792  0.4716
 6967TIP3    H242393   1.427   6.297  11.616 -2.2236 -0.0959  0.7729
 6968TIP3   OH242394   1.903   5.948   3.476 -0.3936 -0.5037  0.3008
 6968TIP3    H142395   1.927   6.041   3.477 -1.0687 -0.3216  0.0468
 6968TIP3    H242396   1.844   5.940   3.401 -0.4398 -1.1134  0.4006
 6969TIP3   OH242397   1.806   2.758   1.867 -0.5817 -0.2720 -0.4240
 6969TIP3    H142398   1.753   2.838   1.871 -0.2603 -0.0905  0.0965
 6969TIP3    H242399   1.887   2.780   1.911 -0.6852 -1.0404  0.1506
 6970TIP3   OH242400   5.645   6.539   3.191 -0.2580  0.2497  0.4830
 6970TIP3    H142401   5.668   6.490   3.270 -2.0009  0.7833  1.3466
 6970TIP3    H242402   5.730   6.564   3.153  0.6826 -3.1175  0.1762
 6971TIP3   OH242403   0.059   6.242  10.749  0.8126 -0.0103 -0.4390
 6971TIP3    H142404   0.153   6.259  10.744  0.6988  0.8869  0.4667
 6971TIP3    H242405   0.020   6.311  10.696  0.6190  0.0414 -0.2289
 6972TIP3   OH242406   5.881   4.164  13.535  0.0306  0.2727  0.1002
 6972TIP3    H142407   5.810   4.161  13.600 -1.6539 -3.0741 -1.7543
 6972TIP3    H242408   5.950   4.111  13.574  0.4500  1.2722  0.7258
 6973TIP3   OH242409   5.398   2.017   5.791  0.1780 -0.1217  0.2220
 6973TIP3    H142410   5.448   2.093   5.823  0.9192 -0.4954 -0.0411
 6973TIP3    H242411   5.314   2.024   5.835  1.3003 -0.8317  2.5602
 6974TIP3   OH242412   2.219   2.873  11.518 -0.7737  0.4079  0.0754
 6974TIP3    H142413   2.250   2.882  11.428  0.9568  1.5597  0.7689
 6974TIP3    H242414   2.126   2.893  11.514 -0.2511  2.6819 -1.0898
 6975TIP3   OH242415   6.657   5.674  15.761 -0.0311  0.3322  0.8090
 6975TIP3    H142416   6.628   5.758  15.797 -0.1804  0.2056  0.9814
 6975TIP3    H242417   6.583   5.642  15.710  0.1610  0.4862  0.4254
 6976TIP3   OH242418   5.918   0.547  13.321  0.3546  0.3613 -0.4040
 6976TIP3    H142419   5.988   0.528  13.258  0.8223  1.0910 -0.1214
 6976TIP3    H242420   5.964   0.587  13.395 -0.5094  2.0105 -0.7452
 6977TIP3   OH242421   1.715   1.338   0.104 -0.7768  0.4280 -0.4680
 6977TIP3    H142422   1.713   1.354   0.198 -1.0500  1.3772 -0.6352
 6977TIP3    H242423   1.764   1.256   0.095  0.3210  0.9829  0.4067
 6978TIP3   OH242424   3.564   3.382   1.619 -0.2638  0.2257 -0.2054
 6978TIP3    H142425   3.479   3.423   1.640 -0.1301 -0.1221  1.0304
 6978TIP3    H242426   3.619   3.455   1.591 -1.2407  0.3363 -1.9392
 6979TIP3   OH242427   6.513   6.533  16.523  0.5409 -0.4629  0.1887
 6979TIP3    H142428   6.606   6.518  16.506  0.9471  2.1818 -0.2943
 6979TIP3    H242429   6.511   6.619  16.567 -1.6134 -0.8515  0.9122
 6980TIP3   OH242430   1.459   4.545   1.868  0.6375 -0.1608 -0.8049
 6980TIP3    H142431   1.456   4.634   1.904  1.9475 -0.2242 -0.5412
 6980TIP3    H242432   1.371   4.510   1.886  1.3747 -0.3587  2.7725
 6981TIP3   OH242433   6.819   1.002  15.754 -0.0541 -0.3343 -0.0801
 6981TIP3    H142434   6.781   0.956  15.679 -0.5551 -0.9316  0.5275
 6981TIP3    H242435   6.897   1.045  15.719 -1.2177  0.8161 -1.3207
 6982TIP3   OH242436   0.097   4.893  12.069  0.0379 -0.1612 -0.0972
 6982TIP3    H142437   0.030   4.852  12.124 -0.4725 -0.8203 -1.2008
 6982TIP3    H242438   0.110   4.980  12.108 -0.1170 -0.7227  1.2253
 6983TIP3   OH242439   6.471   2.920   3.564  0.4782 -0.2766 -0.0352
 6983TIP3    H142440   6.415   2.944   3.638  0.5202  0.4745 -0.2465
 6983TIP3    H242441   6.412   2.875   3.503 -0.0529  1.1141 -0.5671
 6984TIP3   OH242442   5.273   6.768   0.416 -0.6522 -0.5052 -0.0442
 6984TIP3    H142443   5.325   6.786   0.338  0.2509 -1.5462  0.2916
 6984TIP3    H242444   5.213   6.842   0.424  1.4211  1.1824  0.0783
 6985TIP3   OH242445   4.473   4.405   4.908 -0.0031  0.1444 -0.0402
 6985TIP3    H142446   4.478   4.375   4.999  0.3725 -1.1861 -0.4952
 6985TIP3    H242447   4.388   4.374   4.877 -1.9460  4.0064  1.0276
 6986TIP3   OH242448   6.067   1.492  13.437 -0.0019 -0.2785 -0.0777
 6986TIP3    H142449   6.077   1.535  13.353 -1.1363  0.8860  0.3729
 6986TIP3    H242450   5.972   1.480  13.447  0.2248 -1.9302  0.2769
 6987TIP3   OH242451   5.805   4.032   2.651  0.4602 -0.0327  0.4352
 6987TIP3    H142452   5.711   4.018   2.662  0.0170  3.1928  1.4481
 6987TIP3    H242453   5.836   3.955   2.603 -2.5903 -1.3883  0.5417
 6988TIP3   OH242454   2.131   5.489   3.629 -0.1499 -0.1446  0.2874
 6988TIP3    H142455   2.137   5.582   3.610  0.9181 -0.3008 -0.1540
 6988TIP3    H242456   2.221   5.458   3.626 -0.5404 -1.2688  0.0617
 6989TIP3   OH242457   0.629   1.292   1.476 -0.3398  0.1016 -0.3044
 6989TIP3    H142458   0.566   1.296   1.548 -0.1051 -1.3806 -0.0075
 6989TIP3    H242459   0.596   1.222   1.420  1.8643 -1.7328  0.6396
 6990TIP3   OH242460   3.927   6.230  14.831  0.3091 -0.1167 -0.7029
 6990TIP3    H142461   3.836   6.200  14.826 -0.3718  1.5087  1.1397
 6990TIP3    H242462   3.969   6.171  14.893  0.5075 -0.8392 -1.5188
 6991TIP3   OH242463   3.626   0.067  11.824  0.1862  0.5137 -0.5351
 6991TIP3    H142464   3.596   0.057  11.915  1.0986 -2.4608 -0.5114
 6991TIP3    H242465   3.556   0.116  11.781 -0.9199  0.7356  1.4395
 6992TIP3   OH242466   3.264   2.726   5.442 -0.0263  0.5434  0.0949
 6992TIP3    H142467   3.313   2.703   5.363 -1.3405 -1.5536 -0.1387
 6992TIP3    H242468   3.173   2.714   5.417 -0.4160 -0.8783  2.1701
 6993TIP3   OH242469   5.660   6.350  12.089 -0.3478  0.4214  0.7138
 6993TIP3    H142470   5.591   6.288  12.066  1.7710 -2.8673  2.6578
 6993TIP3    H242471   5.723   6.344  12.017 -0.6823  1.1632  0.3623
 6994TIP3   OH242472   4.726   4.527  10.753  0.2832  0.3037 -0.6688
 6994TIP3    H142473   4.734   4.488  10.840 -0.8694  0.4591 -0.4883
 6994TIP3    H242474   4.801   4.493  10.705 -1.1081 -2.7786 -0.7781
 6995TIP3   OH242475   2.371   5.253  13.292 -0.5531 -0.0988  0.2129
 6995TIP3    H142476   2.300   5.191  13.276 -1.2794  0.6625  0.4479
 6995TIP3    H242477   2.421   5.254  13.210  1.1434 -3.1047  1.1407
 6996TIP3   OH242478   1.330   1.955  17.078  0.4265 -0.1285 -0.4350
 6996TIP3    H142479   1.404   1.921  17.029  1.8887  1.5289  0.5823
 6996TIP3    H242480   1.316   1.891  17.148  2.4340  0.7221  0.7926
 6997TIP3   OH242481   0.842   0.968   0.194  0.0736  0.0039 -0.5737
 6997TIP3    H142482   0.788   0.905   0.242  0.4007  1.1132  1.3023
 6997TIP3    H242483   0.930   0.929   0.194 -0.2904 -0.8703 -1.9254
 6998TIP3   OH242484   4.606   2.264   3.688  0.4857  0.2200 -0.4843
 6998TIP3    H142485   4.666   2.200   3.651  0.2765 -1.3194  1.7182
 6998TIP3    H242486   4.602   2.242   3.781 -1.5542  1.8603 -0.1407
 6999TIP3   OH242487   2.615   3.851   4.710  0.1215  0.7608  0.0583
 6999TIP3    H142488   2.654   3.905   4.641 -1.8161  0.1798 -1.5508
 6999TIP3    H242489   2.676   3.778   4.720  0.2616  0.6779 -1.3099
 7000TIP3   OH242490   2.337   3.151   2.954  0.5131 -0.0468  0.2590
 7000TIP3    H142491   2.327   3.241   2.921  0.6513 -0.5226 -1.1236
 7000TIP3    H242492   2.270   3.142   3.021  1.6215  1.6573  1.6615
 7001TIP3   OH242493   1.761   2.711   5.824 -0.4435  0.5863 -0.3436
 7001TIP3    H142494   1.695   2.725   5.891 -0.7583 -2.0565 -0.0518
 7001TIP3    H242495   1.832   2.666   5.869 -0.8672 -1.6549 -1.8691
 7002TIP3   OH242496   1.230   5.325  13.791 -0.0047 -0.1642  0.1239
 7002TIP3    H142497   1.249   5.412  13.827 -0.9707  0.3676 -0.6172
 7002TIP3    H242498   1.280   5.265  13.846  0.0404  0.7932  1.1527
 7003TIP3   OH242499   4.550   0.782  13.345 -0.2784  0.2824 -0.2838
 7003TIP3    H142500   4.642   0.765  13.368  0.0033  1.8694 -0.2181
 7003TIP3    H242501   4.543   0.754  13.253  0.4472  0.8072 -0.5021
 7004TIP3   OH242502   0.557   0.951  13.748 -0.2009  0.4706 -0.6344
 7004TIP3    H142503   0.564   0.967  13.653  0.9074 -1.3230 -0.8675
 7004TIP3    H242504   0.540   0.857  13.756 -1.8970  0.8724  0.9111
 7005TIP3   OH242505   2.301   5.697   6.432 -0.1573  0.2102  0.0950
 7005TIP3    H142506   2.363   5.656   6.492 -1.2778 -1.6325  0.0481
 7005TIP3    H242507   2.340   5.782   6.411  1.3828 -0.1024  1.5765
 7006TIP3   OH242508   1.348   1.607  12.136  0.2365 -0.2429 -0.3948
 7006TIP3    H142509   1.325   1.515  12.121 -0.3759  0.1170 -1.8329
 7006TIP3    H242510   1.433   1.604  12.181 -0.7753 -1.5329  1.4681
 7007TIP3   OH242511   3.776   3.555  14.560  0.2596 -0.3333  0.1995
 7007TIP3    H142512   3.826   3.613  14.502 -0.4659  1.4683  1.3340
 7007TIP3    H242513   3.698   3.532  14.510  1.7525 -2.4472 -1.2423
 7008TIP3   OH242514   3.707   3.807   5.227  0.0992 -0.1464  0.1871
 7008TIP3    H142515   3.697   3.727   5.278  2.6494 -1.2841 -1.0158
 7008TIP3    H242516   3.710   3.777   5.136  0.5107  1.3778 -0.3151
 7009TIP3   OH242517   1.520   4.068   3.092  0.1262  0.2024 -0.2135
 7009TIP3    H142518   1.510   4.044   3.000 -1.3854 -0.8820  0.2143
 7009TIP3    H242519   1.539   3.986   3.137  2.1002  0.8981  0.3052
 7010TIP3   OH242520   5.425   1.756   5.323 -0.1482  0.4690 -0.1709
 7010TIP3    H142521   5.394   1.702   5.395  1.7675 -0.4861 -0.0196
 7010TIP3    H242522   5.346   1.787   5.280 -1.2981 -1.3889  0.5417
 7011TIP3   OH242523   4.328   4.912   3.214  0.1672 -0.1735 -0.1373
 7011TIP3    H142524   4.292   4.995   3.181  0.8507  0.6592  1.1538
 7011TIP3    H242525   4.337   4.857   3.136  2.1004  1.8820 -1.4359
 7012TIP3   OH242526   0.573   3.581  15.295  0.3106 -0.7688 -0.4857
 7012TIP3    H142527   0.503   3.516  15.307 -0.0931  0.0456  1.8408
 7012TIP3    H242528   0.651   3.529  15.274 -0.5178 -1.8287 -0.9761
 7013TIP3   OH242529   6.221   2.942  10.716 -0.1648  0.4507 -0.2524
 7013TIP3    H142530   6.221   2.961  10.622  1.5760 -0.8518 -0.5317
 7013TIP3    H242531   6.307   2.970  10.747  0.1527 -1.2728  0.4903
 7014TIP3   OH242532   4.117   6.738   4.213 -0.3145  0.0491  0.1060
 7014TIP3    H142533   4.128   6.698   4.127  0.6743  0.1015  0.2063
 7014TIP3    H242534   4.126   6.666   4.275  0.7667  0.3041  0.2514
 7015TIP3   OH242535   1.387   4.870  11.242 -0.2263  0.4622  0.0885
 7015TIP3    H142536   1.320   4.937  11.251 -0.2014  0.5593 -0.4053
 7015TIP3    H242537   1.435   4.895  11.163 -1.4876 -1.2287 -1.2497
 7016TIP3   OH242538   4.612   2.896   6.396 -0.3942 -0.5601  0.4187
 7016TIP3    H142539   4.605   2.983   6.435  0.5768 -1.2713  2.2431
 7016TIP3    H242540   4.628   2.913   6.303  1.2565  1.2431  0.9894
 7017TIP3   OH242541   6.311   0.239   0.600  0.0809 -0.0460 -0.2915
 7017TIP3    H142542   6.239   0.246   0.663 -0.6880  1.9607 -1.3355
 7017TIP3    H242543   6.272   0.198   0.523  1.0389 -2.5696  0.5189
 7018TIP3   OH242544   5.495   5.104   3.225 -0.3929 -0.5078  0.1683
 7018TIP3    H142545   5.516   5.037   3.160  0.5508  0.0725 -0.1418
 7018TIP3    H242546   5.429   5.064   3.281  0.6018 -1.9355  0.3536
 7019TIP3   OH242547   3.237   0.864   3.380 -0.3603 -0.0907  0.0656
 7019TIP3    H142548   3.291   0.815   3.318 -0.0905  0.0006  0.2262
 7019TIP3    H242549   3.272   0.953   3.377 -0.9373  0.1235 -0.3254
 7020TIP3   OH242550   3.386   3.137  12.784 -0.3930  1.0638 -0.4362
 7020TIP3    H142551   3.342   3.197  12.725 -0.9823  3.1510  2.0317
 7020TIP3    H242552   3.334   3.140  12.864  1.5034 -0.1430  0.8883
 7021TIP3   OH242553   1.804   2.650   0.889 -0.4955  0.6213 -0.2164
 7021TIP3    H142554   1.728   2.644   0.946  0.3639 -4.0743  0.6305
 7021TIP3    H242555   1.783   2.595   0.814  2.1139 -1.1607  0.2510
 7022TIP3   OH242556   5.504   4.544  10.628  0.2692 -0.0149 -0.8427
 7022TIP3    H142557   5.456   4.468  10.660 -0.1558  0.3230 -0.6811
 7022TIP3    H242558   5.596   4.527  10.652  0.0264  0.0175  0.1253
 7023TIP3   OH242559   5.150   4.037  10.545 -0.0404  0.4043  0.9282
 7023TIP3    H142560   5.229   4.043  10.600  0.8501 -1.1225 -0.1524
 7023TIP3    H242561   5.124   3.945  10.551  1.0158 -0.1903 -2.4567
 7024TIP3   OH242562   3.285   1.684  12.703  0.1910 -0.0418  0.1737
 7024TIP3    H142563   3.328   1.606  12.668 -0.0469 -0.5908  1.0905
 7024TIP3    H242564   3.193   1.661  12.707 -0.0387  0.6875 -0.5852
 7025TIP3   OH242565   0.966   3.045  12.872 -0.2802 -0.6340  0.1404
 7025TIP3    H142566   0.909   3.115  12.904  0.2628  0.1198 -0.5026
 7025TIP3    H242567   1.027   3.028  12.944  0.7235  0.8144 -0.3457
 7026TIP3   OH242568   5.890   2.544   3.845  0.6653  0.1727 -0.0989
 7026TIP3    H142569   5.985   2.558   3.852  0.7742  1.0832 -2.7095
 7026TIP3    H242570   5.856   2.628   3.814 -0.7485 -0.6694 -0.8572
 7027TIP3   OH242571   1.556   0.596   1.226 -0.5457  0.8597 -0.5747
 7027TIP3    H142572   1.526   0.522   1.280 -0.7666 -0.2781 -2.2406
 7027TIP3    H242573   1.622   0.558   1.168 -1.2735  1.7884 -2.0304
 7028TIP3   OH242574   4.230   3.253   4.647  0.0206  0.1949  0.0526
 7028TIP3    H142575   4.270   3.320   4.591  2.1870 -1.2788 -0.2390
 7028TIP3    H242576   4.195   3.188   4.586  0.7911 -0.5239  0.3673
 7029TIP3   OH242577   5.340   5.398   0.860  0.7849  0.4825 -0.2374
 7029TIP3    H142578   5.357   5.457   0.933  0.4754  0.6950 -0.3383
 7029TIP3    H242579   5.246   5.408   0.842  0.8593  0.4189 -0.6561
 7030TIP3   OH242580   0.360   3.719   4.338 -0.4407  0.2595  0.0686
 7030TIP3    H142581   0.292   3.694   4.275  0.4681  1.0677 -1.2473
 7030TIP3    H242582   0.442   3.713   4.289  0.5278 -1.3289  1.8285
 7031TIP3   OH242583   2.430   4.446   3.390  0.4432  0.2928 -0.1211
 7031TIP3    H142584   2.460   4.394   3.315  0.8450  0.7915 -0.3092
 7031TIP3    H242585   2.353   4.492   3.358 -0.1109 -0.4389  0.1463
 7032TIP3   OH242586   0.084   0.963  16.768 -0.0440 -0.2749 -0.3662
 7032TIP3    H142587   0.057   0.993  16.855  1.6153 -2.0068  0.7794
 7032TIP3    H242588   0.007   0.919  16.732  0.0243 -1.7980  1.2974
 7033TIP3   OH242589   1.963   2.672  12.438 -0.0381 -0.5427 -0.1409
 7033TIP3    H142590   2.009   2.589  12.426  0.9715 -0.1902  1.1279
 7033TIP3    H242591   1.888   2.650  12.492  0.1730 -0.6514  0.1096
 7034TIP3   OH242592   6.103   3.229  16.567 -0.4429 -0.0689  0.1452
 7034TIP3    H142593   6.101   3.302  16.629  2.4949  0.2154 -0.0531
 7034TIP3    H242594   6.010   3.207  16.553 -1.2532  1.7503  2.3715
 7035TIP3   OH242595   0.109   5.079  15.656  0.3216 -0.1828 -0.0735
 7035TIP3    H142596   0.112   5.168  15.621  1.8521 -0.5106 -0.8623
 7035TIP3    H242597   0.091   5.090  15.749  0.6970  0.9700 -0.1280
 7036TIP3   OH242598   5.519   0.655   1.421  0.0452  0.0964  0.3435
 7036TIP3    H142599   5.532   0.743   1.386  1.9380 -0.5038 -0.5772
 7036TIP3    H242600   5.514   0.599   1.343 -0.1586 -0.7251  0.9365
 7037TIP3   OH242601   6.370   4.133  16.849  0.7166 -0.2409 -0.2942
 7037TIP3    H142602   6.340   4.166  16.765 -0.4900 -1.5595 -0.3963
 7037TIP3    H242603   6.292   4.096  16.890  1.9131 -2.4582  0.0548
 7038TIP3   OH242604   3.597   2.543   3.736  0.4054 -0.4490 -0.0259
 7038TIP3    H142605   3.635   2.618   3.781 -0.9002 -0.7798  1.6685
 7038TIP3    H242606   3.618   2.468   3.791  0.6250 -1.1594 -1.0655
 7039TIP3   OH242607   2.444   6.747   3.809 -0.0147 -0.9291 -0.2364
 7039TIP3    H142608   2.436   6.740   3.904  2.8094 -1.2404  0.0475
 7039TIP3    H242609   2.375   6.692   3.774 -2.7780  1.2616  1.5815
 7040TIP3   OH242610   3.168   1.346  10.521  0.6244 -0.6278  0.8509
 7040TIP3    H142611   3.232   1.412  10.548 -0.3929  0.3488  0.9129
 7040TIP3    H242612   3.220   1.278  10.478  1.4701  1.1410 -0.9684
 7041TIP3   OH242613   0.403   6.364  15.344 -0.1942 -0.4158  0.0636
 7041TIP3    H142614   0.432   6.394  15.258 -0.4242  2.1379  0.8339
 7041TIP3    H242615   0.313   6.395  15.351 -0.5704 -1.6216  0.7773
 7042TIP3   OH242616   3.249   3.453   1.049 -0.2983  0.2755  0.5977
 7042TIP3    H142617   3.288   3.407   1.123  1.6509 -0.4110 -0.8077
 7042TIP3    H242618   3.302   3.426   0.974  0.2208  3.9679 -0.4441
 7043TIP3   OH242619   2.549   0.076   2.859 -0.2201  0.1777 -0.0170
 7043TIP3    H142620   2.626   0.020   2.847 -0.3152  0.0069  0.1846
 7043TIP3    H242621   2.521   0.061   2.949 -0.5549  0.1594 -0.1229
 7044TIP3   OH242622   4.809   4.680  14.952  0.4620  0.2546  0.0879
 7044TIP3    H142623   4.771   4.737  15.019 -0.8057  0.4527 -0.7801
 7044TIP3    H242624   4.839   4.603  15.000 -0.5438  0.3463  0.8788
 7045TIP3   OH242625   1.025   0.754   0.591  0.8358  0.9070 -0.2777
 7045TIP3    H142626   1.107   0.723   0.629  0.7050  0.1220 -0.6218
 7045TIP3    H242627   0.985   0.807   0.660  0.2992 -1.0075  0.9478
 7046TIP3   OH242628   4.430   6.758   5.187 -0.1051 -0.5146  0.3499
 7046TIP3    H142629   4.404   6.786   5.274  2.4926  0.0484  0.9672
 7046TIP3    H242630   4.457   6.667   5.197 -1.6789 -1.0759 -0.2786
 7047TIP3   OH242631   2.184   0.030   2.130  0.7781  0.5353  0.1718
 7047TIP3    H142632   2.211  -0.006   2.215  1.1659  1.8881  0.6360
 7047TIP3    H242633   2.160   0.120   2.149 -3.0047 -0.2803 -0.4653
 7048TIP3   OH242634   0.163   4.656   6.398 -0.3132 -0.2558  0.6887
 7048TIP3    H142635   0.201   4.586   6.452  2.7532  0.1611 -0.8269
 7048TIP3    H242636   0.178   4.736   6.447  1.8125  0.0323 -0.3513
 7049TIP3   OH242637   0.978   4.605  16.590 -0.4968 -0.0299  0.0440
 7049TIP3    H142638   1.069   4.627  16.610 -0.4293  0.9875 -1.2716
 7049TIP3    H242639   0.981   4.570  16.501 -1.5259  1.0390 -0.4240
 7050TIP3   OH242640   4.100   0.776   1.928 -0.4521 -0.3144 -0.4293
 7050TIP3    H142641   4.066   0.752   1.841 -2.3262 -1.1275  0.4933
 7050TIP3    H242642   4.125   0.693   1.968 -1.4253 -0.1507  0.5416
 7051TIP3   OH242643   4.366   4.361   0.299  0.2115 -0.7745  0.3877
 7051TIP3    H142644   4.441   4.411   0.332 -0.2992  0.1651  0.1288
 7051TIP3    H242645   4.295   4.381   0.360 -0.6455  0.7157 -1.0557
 7052TIP3   OH242646   0.603   3.501  12.068 -0.2221 -0.3410 -0.3341
 7052TIP3    H142647   0.587   3.424  12.014  0.5285 -0.6266 -0.1510
 7052TIP3    H242648   0.643   3.467  12.148  1.3743  0.3712 -0.8193
 7053TIP3   OH242649   0.217   0.248   1.540 -0.3062 -0.2528 -0.0471
 7053TIP3    H142650   0.173   0.330   1.520 -2.2226 -0.9828  1.0154
 7053TIP3    H242651   0.150   0.195   1.585  1.3741 -1.7557  0.7553
 7054TIP3   OH242652   0.055   6.033   4.381  0.1556 -0.7067 -0.1952
 7054TIP3    H142653   0.016   6.004   4.298  0.6913  1.1256 -1.1124
 7054TIP3    H242654  -0.019   6.041   4.441 -0.7920  1.7996 -1.6347
 7055TIP3   OH242655   0.154   3.146   5.123 -0.2965 -0.5397 -0.4638
 7055TIP3    H142656   0.211   3.095   5.180 -1.4985  0.0517  1.3053
 7055TIP3    H242657   0.090   3.083   5.091 -0.3524 -0.6218 -0.1902
 7056TIP3   OH242658   5.399   4.802  16.056 -0.0557  0.7889 -0.5097
 7056TIP3    H142659   5.410   4.761  16.141 -1.3244  2.1668  0.3499
 7056TIP3    H242660   5.404   4.896  16.074  3.0193  1.0651 -2.4612
 7057TIP3   OH242661   1.994   0.685   3.059  0.1726  0.0904 -0.6864
 7057TIP3    H142662   1.905   0.707   3.084 -0.2746 -1.4014 -0.9281
 7057TIP3    H242663   2.006   0.594   3.087  2.0666  0.6868  0.5774
 7058TIP3   OH242664   3.070   1.668  16.659 -0.0517 -0.3992  0.0872
 7058TIP3    H142665   2.989   1.694  16.703  1.0928  0.6301  1.6378
 7058TIP3    H242666   3.051   1.581  16.624 -2.5940  0.8245 -1.6494
 7059TIP3   OH242667   3.055   0.811   5.105  0.2987 -0.0730  0.4939
 7059TIP3    H142668   2.988   0.806   5.037 -0.8143  2.1517  1.3852
 7059TIP3    H242669   3.095   0.724   5.105 -1.2574 -0.8378 -1.3798
 7060TIP3   OH242670   4.396   2.892   2.679 -0.4305 -0.0796 -0.0946
 7060TIP3    H142671   4.357   2.805   2.665 -0.3363 -0.2317  0.5630
 7060TIP3    H242672   4.335   2.935   2.739 -0.5534  0.3657 -0.5386
 7061TIP3   OH242673   0.759   4.568  13.332 -0.6171  0.0788  0.3414
 7061TIP3    H142674   0.850   4.597  13.335 -0.7436  0.5693 -0.3768
 7061TIP3    H242675   0.760   4.482  13.372  0.2283 -0.0673  0.0279
 7062TIP3   OH242676   2.338   2.674   3.287 -0.1908  0.1826 -0.2351
 7062TIP3    H142677   2.391   2.645   3.361  0.5684  0.7830 -0.5378
 7062TIP3    H242678   2.389   2.649   3.210 -1.4966 -1.4443 -0.5852
 7063TIP3   OH242679   2.379   2.901   2.445 -0.2016  0.3007 -0.0952
 7063TIP3    H142680   2.457   2.934   2.490  1.6498 -2.5626 -1.0937
 7063TIP3    H242681   2.317   2.883   2.516  0.3969  1.6128  0.7929
 7064TIP3   OH242682   5.814   5.763  14.664  0.1280 -0.4690  0.7877
 7064TIP3    H142683   5.904   5.783  14.690  1.0360 -1.8956 -1.1521
 7064TIP3    H242684   5.780   5.846  14.631  1.7492 -0.6074 -1.3053
 7065TIP3   OH242685   5.975   0.979   3.285 -0.3539 -0.2562 -0.3917
 7065TIP3    H142686   5.922   1.057   3.304  2.1642  1.6650 -1.0403
 7065TIP3    H242687   5.984   0.936   3.370 -1.9503  0.0209 -0.0609
 7066TIP3   OH242688   5.462   4.346   0.850  0.0647 -0.2041 -0.6099
 7066TIP3    H142689   5.495   4.380   0.767  2.2137 -0.8109 -0.0410
 7066TIP3    H242690   5.529   4.369   0.914 -1.9456  0.9517  1.1187
 7067TIP3   OH242691   2.906   1.138  12.876  0.3218 -0.0954 -0.5526
 7067TIP3    H142692   2.977   1.201  12.870 -0.0788  0.2531 -1.7645
 7067TIP3    H242693   2.928   1.084  12.952  1.0910  0.9702 -0.0067
 7068TIP3   OH242694   2.318   5.044   1.850  0.1567 -0.2446 -0.0360
 7068TIP3    H142695   2.270   4.974   1.805 -0.0540  1.0635 -1.8884
 7068TIP3    H242696   2.260   5.069   1.923 -0.4728 -0.9464 -0.2882
 7069TIP3   OH242697   6.520   6.608  13.169 -0.1605 -0.1624 -0.2634
 7069TIP3    H142698   6.466   6.648  13.236 -0.5485 -0.7652 -0.2094
 7069TIP3    H242699   6.610   6.625  13.197 -0.3196  0.8331 -0.3497
 7070TIP3   OH242700   6.550   0.273   6.375  0.6420  0.1184 -0.2321
 7070TIP3    H142701   6.637   0.301   6.348  0.2722  1.8758  0.3521
 7070TIP3    H242702   6.509   0.352   6.411 -0.2834 -1.2587  1.8430
 7071TIP3   OH242703   4.478   0.154   5.937  0.1631  0.3355  0.1287
 7071TIP3    H142704   4.396   0.137   5.985 -1.3065 -0.3750 -2.5727
 7071TIP3    H242705   4.470   0.245   5.907 -0.8001 -0.5166 -2.2924
 7072TIP3   OH242706   4.627   3.535   3.055 -0.4931 -0.5605 -0.3848
 7072TIP3    H142707   4.587   3.547   2.969 -0.2114  0.1902 -0.4205
 7072TIP3    H242708   4.648   3.442   3.060  1.4844 -0.2464 -2.0449
 7073TIP3   OH242709   0.312   0.056   3.803  0.2286  0.1285  0.2062
 7073TIP3    H142710   0.394   0.018   3.769  1.6592  0.1254  3.4639
 7073TIP3    H242711   0.265  -0.019   3.840  0.4226  0.6670  1.5561
 7074TIP3   OH242712   1.943   3.321  16.507 -0.1078  0.1680 -0.3535
 7074TIP3    H142713   1.961   3.230  16.526 -1.8336 -0.1364 -0.0703
 7074TIP3    H242714   2.015   3.370  16.547 -0.3582 -0.9034  1.4286
 7075TIP3   OH242715   6.349   0.510   4.419 -0.1974 -0.0087  0.0391
 7075TIP3    H142716   6.282   0.574   4.441 -0.4715 -0.5867  0.9212
 7075TIP3    H242717   6.431   0.553   4.440 -0.3713  0.0990  0.4999
 7076TIP3   OH242718   5.106   1.808  11.654  0.1281  0.0140 -0.4077
 7076TIP3    H142719   5.105   1.748  11.580 -0.6714 -1.0423  0.4391
 7076TIP3    H242720   5.030   1.865  11.640  0.0877 -0.0605 -0.4882
 7077TIP3   OH242721   0.400   5.023  10.683 -0.7643 -1.1261 -0.6109
 7077TIP3    H142722   0.313   5.029  10.642 -2.1995 -3.1820  2.0450
 7077TIP3    H242723   0.395   5.084  10.757  0.3261 -0.6940 -0.8921
 7078TIP3   OH242724   3.007   5.848   3.516 -0.0119  0.3543 -0.5993
 7078TIP3    H142725   2.988   5.917   3.580 -0.0264  0.5513 -0.8140
 7078TIP3    H242726   2.981   5.767   3.559  0.0361  0.4811 -0.3320
 7079TIP3   OH242727   1.831   3.881   2.979 -0.3757  0.0223  0.3034
 7079TIP3    H142728   1.917   3.849   2.951 -0.0973  2.4366 -1.6864
 7079TIP3    H242729   1.780   3.888   2.899 -2.0047 -0.0294  1.2989
 7080TIP3   OH242730   4.604   1.021  16.477  0.0796 -0.4948 -0.0466
 7080TIP3    H142731   4.523   1.051  16.517  0.1871  0.1024 -0.2774
 7080TIP3    H242732   4.638   1.097  16.430 -0.4554 -1.3983 -1.9366
 7081TIP3   OH242733   5.097   2.446   2.517 -0.2212  0.0909 -0.4624
 7081TIP3    H142734   5.006   2.418   2.502 -0.0995 -0.8339  0.4973
 7081TIP3    H242735   5.105   2.527   2.467 -2.3221  1.5368  1.4152
 7082TIP3   OH242736   6.467   5.749  11.137  0.2572 -0.1559 -0.3064
 7082TIP3    H142737   6.437   5.783  11.053 -0.6463  0.1967  0.1467
 7082TIP3    H242738   6.529   5.814  11.169  0.7185 -0.3674 -0.7715
 7083TIP3   OH242739   0.471   5.249  15.716 -0.7717 -0.1521 -0.0369
 7083TIP3    H142740   0.534   5.316  15.690 -0.6110  0.2480  1.3255
 7083TIP3    H242741   0.485   5.177  15.655 -0.1944  0.6210 -0.8274
 7084TIP3   OH242742   1.516   1.319  14.007  0.4545 -0.4342  0.0232
 7084TIP3    H142743   1.528   1.410  14.034 -0.4803 -0.6538  1.2260
 7084TIP3    H242744   1.605   1.286  13.993  0.8319  0.4180  0.4008
 7085TIP3   OH242745   0.890   3.714   2.728  0.2671  0.3958  0.5397
 7085TIP3    H142746   0.848   3.725   2.813  2.7794 -0.1821  1.9169
 7085TIP3    H242747   0.818   3.706   2.666 -1.6060  1.4748  2.5213
 7086TIP3   OH242748   3.968   1.585  11.573 -0.0191 -0.4092 -0.2320
 7086TIP3    H142749   3.934   1.651  11.633  2.0253  3.0569 -2.6325
 7086TIP3    H242750   4.024   1.529  11.627 -1.1062  0.3629  1.7303
 7087TIP3   OH242751   0.474   2.028   3.115  0.5937 -0.2568  0.5033
 7087TIP3    H142752   0.529   2.044   3.039  0.9429 -0.5734  0.6836
 7087TIP3    H242753   0.526   2.058   3.189 -0.3728  1.4925  0.4913
 7088TIP3   OH242754   4.138   1.867  11.687 -0.4570 -0.0992 -0.5126
 7088TIP3    H142755   4.172   1.817  11.612 -0.6014  0.1334 -0.7321
 7088TIP3    H242756   4.089   1.802  11.738  2.1027 -0.9437  0.9616
 7089TIP3   OH242757   6.694   0.835   4.057 -0.5247  0.1586  0.2281
 7089TIP3    H142758   6.779   0.791   4.059 -0.1081  0.9628  0.0298
 7089TIP3    H242759   6.632   0.766   4.083  0.2280 -0.3031  0.8317
 7090TIP3   OH242760   0.164   5.407   1.042  0.4421  0.1727 -0.3004
 7090TIP3    H142761   0.186   5.462   1.117 -0.9496 -0.6261  0.7102
 7090TIP3    H242762   0.078   5.372   1.062  1.2300 -2.2604 -1.0080
 7091TIP3   OH242763   3.783   3.394  11.791  0.1806  0.1606 -0.1501
 7091TIP3    H142764   3.732   3.376  11.713 -1.4815  0.0612  0.9441
 7091TIP3    H242765   3.791   3.309  11.835 -0.4663  0.5354  0.7171
 7092TIP3   OH242766   2.663   1.466   0.763  0.6091 -0.3343 -0.5869
 7092TIP3    H142767   2.727   1.397   0.745  0.6448 -0.4301 -0.1020
 7092TIP3    H242768   2.632   1.494   0.677 -1.4137 -2.8298 -0.7477
 7093TIP3   OH242769   2.075   3.381   6.506 -0.2110  0.1175  0.6058
 7093TIP3    H142770   2.035   3.421   6.583 -2.6306  0.4803 -0.7895
 7093TIP3    H242771   2.167   3.368   6.530 -1.0275 -0.2113  3.6865
 7094TIP3   OH242772   4.360   5.928  11.461  0.1535 -0.1450  0.3083
 7094TIP3    H142773   4.345   5.840  11.427  0.1834  0.7949 -2.2669
 7094TIP3    H242774   4.279   5.976  11.443  1.8011  1.6541 -2.8319
 7095TIP3   OH242775   3.063   6.475  11.582  0.3873  0.0802  0.0775
 7095TIP3    H142776   3.158   6.469  11.581  0.4137  0.5181 -0.0976
 7095TIP3    H242777   3.043   6.529  11.659  0.3535  1.2310 -0.7329
 7096TIP3   OH242778   0.352   3.562   0.838 -0.6100  0.2560 -0.2312
 7096TIP3    H142779   0.412   3.490   0.822  0.2460  1.3350 -2.0631
 7096TIP3    H242780   0.305   3.537   0.918  1.2942 -1.2203  0.4661
 7097TIP3   OH242781   3.046   2.045   3.213 -0.0088  0.2480  0.2434
 7097TIP3    H142782   3.082   2.128   3.245 -0.4708  0.1115  1.1358
 7097TIP3    H242783   3.021   1.998   3.292 -2.0922  0.3107 -0.3312
 7098TIP3   OH242784   6.047   1.724   3.855 -0.4425  0.4678 -0.6736
 7098TIP3    H142785   6.053   1.639   3.813 -0.0294  0.4953 -0.6741
 7098TIP3    H242786   6.138   1.749   3.871 -0.6164  0.1517  0.8606
 7099TIP3   OH242787   5.723   1.800   0.284 -0.4210 -0.2083  0.0414
 7099TIP3    H142788   5.713   1.712   0.321 -0.5570 -0.2948 -0.2012
 7099TIP3    H242789   5.659   1.804   0.213 -0.4729  0.1173  0.1077
 7100TIP3   OH242790   3.389   4.093  13.056  0.7724 -0.9018  0.3787
 7100TIP3    H142791   3.483   4.107  13.062  0.5921 -0.2947  2.0447
 7100TIP3    H242792   3.350   4.172  13.093 -0.4079 -0.7998 -1.0475
 7101TIP3   OH242793   4.523   3.371  15.190 -0.1359  0.7922 -0.6585
 7101TIP3    H142794   4.537   3.454  15.234 -0.1464 -0.2051  1.2648
 7101TIP3    H242795   4.611   3.339  15.171 -0.0177 -0.3850  1.7414
 7102TIP3   OH242796   5.074   2.131   1.449  0.4539 -0.2848  0.2778
 7102TIP3    H142797   5.072   2.192   1.522 -0.9476  0.3861 -0.3007
 7102TIP3    H242798   5.043   2.182   1.374  0.1215 -1.4562 -0.3973
 7103TIP3   OH242799   5.960   2.024  15.239  0.1154  0.0965 -0.2953
 7103TIP3    H142800   5.981   2.001  15.149 -0.5661 -0.0715 -0.4123
 7103TIP3    H242801   6.024   1.975  15.292  1.5985  1.4997 -0.7563
 7104TIP3   OH242802   2.499   0.190   3.427 -0.2139 -0.6221  0.2372
 7104TIP3    H142803   2.521   0.104   3.391  2.7092  0.2095 -0.0173
 7104TIP3    H242804   2.467   0.171   3.515  1.1914 -1.9002  0.4816
 7105TIP3   OH242805   2.715   1.749   2.531 -0.3209  0.2176  0.3356
 7105TIP3    H142806   2.671   1.672   2.495  0.6396  0.1751 -0.8008
 7105TIP3    H242807   2.710   1.814   2.461  1.4806  0.1746  0.1339
 7106TIP3   OH242808   0.485   3.312  11.318  0.0946  0.1915 -0.1259
 7106TIP3    H142809   0.581   3.313  11.326  0.2316 -1.0794 -1.5343
 7106TIP3    H242810   0.468   3.353  11.234 -0.5111 -1.1816 -0.6759
 7107TIP3   OH242811   6.031   0.044  11.135 -0.2140 -0.0541  0.0056
 7107TIP3    H142812   6.107   0.053  11.076  0.8983  0.4307  1.4864
 7107TIP3    H242813   5.986   0.128  11.129  1.2923  0.9276  1.6949
 7108TIP3   OH242814   5.583   6.570  11.813 -0.2163  0.1370 -0.1925
 7108TIP3    H142815   5.628   6.642  11.769  0.6926  0.0032  0.4970
 7108TIP3    H242816   5.586   6.498  11.751 -1.1312  0.6882 -0.8886
 7109TIP3   OH242817   1.972   1.788  13.100  0.1315 -0.0508  0.0752
 7109TIP3    H142818   1.888   1.794  13.146  0.2785 -0.7521  0.4456
 7109TIP3    H242819   1.950   1.749  13.015  0.0491  0.0032  0.0716
 7110TIP3   OH242820   0.353   5.223  16.987  0.1401 -0.6184  0.3758
 7110TIP3    H142821   0.350   5.318  16.977  2.4587 -0.4608  0.7440
 7110TIP3    H242822   0.276   5.191  16.941 -0.5755  1.4299  0.1109
 7111TIP3   OH242823   1.006   3.485   0.714  0.1596  0.3126 -0.4149
 7111TIP3    H142824   1.100   3.467   0.710 -0.2645 -1.8062 -1.4145
 7111TIP3    H242825   0.991   3.513   0.804  1.5875 -0.3422  0.0374
 7112TIP3   OH242826   4.580   3.310  16.113 -0.0064  0.1856 -0.1515
 7112TIP3    H142827   4.539   3.331  16.029  1.6212  3.1878 -0.2524
 7112TIP3    H242828   4.545   3.376  16.174 -0.7576 -1.6310  1.4508
 7113TIP3   OH242829   1.217   5.131   3.152  0.1915  0.4044  0.0624
 7113TIP3    H142830   1.211   5.036   3.146 -0.9863  0.5031 -0.4866
 7113TIP3    H242831   1.166   5.154   3.230 -0.4999  0.6742 -0.4647
 7114TIP3   OH242832   4.584   5.227   4.353  0.2348 -0.1029 -0.1429
 7114TIP3    H142833   4.511   5.213   4.292  2.5361  0.1791 -3.0685
 7114TIP3    H242834   4.552   5.193   4.436 -2.8642 -0.9310 -1.5913
 7115TIP3   OH242835   1.873   3.468  16.189 -0.0982 -0.1699  0.3837
 7115TIP3    H142836   1.791   3.516  16.193  0.2554  0.7626 -2.3347
 7115TIP3    H242837   1.937   3.524  16.233 -0.5735 -0.1648  1.0692
 7116TIP3   OH242838   5.811   5.748   5.938 -0.0568 -0.6617  0.2486
 7116TIP3    H142839   5.775   5.688   6.003  0.3751 -1.1400  0.0420
 7116TIP3    H242840   5.812   5.698   5.856 -0.4974 -0.0988 -0.1087
 7117TIP3   OH242841   1.434   6.594  15.351 -0.6045 -0.6443 -0.4100
 7117TIP3    H142842   1.383   6.519  15.321  2.2963 -2.3937 -1.1708
 7117TIP3    H242843   1.464   6.570  15.438  0.8128 -0.6360 -0.8841
 7118TIP3   OH242844   4.834   1.772  16.092  0.0226  0.1520 -0.1982
 7118TIP3    H142845   4.846   1.678  16.100  1.0161  0.4357  1.7753
 7118TIP3    H242846   4.787   1.783  16.009  0.5974 -2.0037 -0.8308
 7119TIP3   OH242847   5.737   4.811  13.298 -0.3535  0.6529  0.0733
 7119TIP3    H142848   5.680   4.794  13.373  1.8019 -0.9337  1.4139
 7119TIP3    H242849   5.704   4.754  13.229 -1.2094  0.7602  0.3880
 7120TIP3   OH242850   2.001   3.576   4.541 -0.3754 -0.1658  0.2825
 7120TIP3    H142851   2.018   3.490   4.504  0.8901  0.7295 -1.2630
 7120TIP3    H242852   2.006   3.563   4.636  3.4617 -1.0831  0.0197
 7121TIP3   OH242853   3.348   5.772  14.983  0.4159 -0.2379 -0.3951
 7121TIP3    H142854   3.377   5.691  15.024 -0.8450  0.4786  2.0213
 7121TIP3    H242855   3.268   5.795  15.030  0.8190  2.4654 -0.9599
 7122TIP3   OH242856   4.697   1.709   3.559  0.1615  0.5184  0.9014
 7122TIP3    H142857   4.719   1.710   3.465 -0.1955 -1.9743  0.7672
 7122TIP3    H242858   4.605   1.683   3.562  0.4412 -0.3740  1.9824
 7123TIP3   OH242859   2.674   4.639  13.088 -0.2796  0.0807 -0.5069
 7123TIP3    H142860   2.670   4.622  13.182  2.5427 -0.5687 -0.4723
 7123TIP3    H242861   2.764   4.621  13.064 -0.6641  1.4336 -3.1342
 7124TIP3   OH242862   0.663   6.427  14.272 -0.1690  0.3149  0.4158
 7124TIP3    H142863   0.657   6.374  14.351 -1.1728  1.8716  1.4053
 7124TIP3    H242864   0.585   6.404  14.222  0.0148 -0.0311  0.2911
 7125TIP3   OH242865   5.634   1.692  11.462  0.8878 -0.4957 -0.3062
 7125TIP3    H142866   5.545   1.724  11.478  1.4387 -0.0019  1.9245
 7125TIP3    H242867   5.626   1.596  11.468  0.4777 -0.4567 -0.1720
 7126TIP3   OH242868   1.306   1.034   2.731  0.1298  0.2809  0.4312
 7126TIP3    H142869   1.301   0.952   2.779 -1.1847 -0.0941 -0.3084
 7126TIP3    H242870   1.218   1.045   2.694  0.8063  1.1351 -0.9419
 7127TIP3   OH242871   0.391   3.708   5.419  0.1373  0.4723  0.2482
 7127TIP3    H142872   0.321   3.644   5.434 -0.6778  0.6989 -2.2474
 7127TIP3    H242873   0.465   3.676   5.470 -0.0524 -2.8303 -1.4276
 7128TIP3   OH242874   3.635   6.078   0.303 -0.7651  0.3389 -0.0523
 7128TIP3    H142875   3.633   6.006   0.240  0.4030  1.1474 -1.0312
 7128TIP3    H242876   3.669   6.153   0.254 -1.1070  1.3359  1.1857
 7129TIP3   OH242877   2.940   3.339   3.953  0.3786 -0.4507  0.0189
 7129TIP3    H142878   2.867   3.314   4.010 -0.8752 -2.5847 -2.3997
 7129TIP3    H242879   2.963   3.258   3.908  2.1733  0.9018 -1.5682
 7130TIP3   OH242880   1.187   1.345   1.175  0.1889  0.2405 -0.2191
 7130TIP3    H142881   1.222   1.427   1.210  1.7504 -0.4787 -0.0440
 7130TIP3    H242882   1.197   1.282   1.247 -1.1348 -0.0736 -0.3007
 7131TIP3   OH242883   0.645   6.659  13.473 -0.1978  0.1666  0.0097
 7131TIP3    H142884   0.609   6.628  13.390  0.4961  0.5016 -0.4234
 7131TIP3    H242885   0.730   6.696  13.450 -0.2743  0.8366  0.7816
 7132TIP3   OH242886   2.670   6.759  14.294 -0.0498  0.3021  1.0220
 7132TIP3    H142887   2.746   6.760  14.236  0.5010 -1.3401  1.6517
 7132TIP3    H242888   2.598   6.727  14.240  0.4924 -1.3598  1.2449
 7133TIP3   OH242889   1.794   2.374  15.124 -0.9646 -0.2656  0.4360
 7133TIP3    H142890   1.798   2.416  15.210  1.6576 -0.0240  0.2677
 7133TIP3    H242891   1.849   2.296  15.132 -2.1347 -1.2091 -0.5265
 7134TIP3   OH242892   1.499   5.820  17.050  0.6381 -0.4835  0.2334
 7134TIP3    H142893   1.497   5.809  17.145  1.8111 -0.5197  0.2620
 7134TIP3    H242894   1.542   5.740  17.018  3.8330  1.2484 -0.0193
 7135TIP3   OH242895   0.440   6.156  14.160 -0.6919  0.0555  0.5782
 7135TIP3    H142896   0.420   6.063  14.166 -0.5757  0.0696  1.2504
 7135TIP3    H242897   0.533   6.159  14.138 -1.0879  0.0022 -1.1581
 7136TIP3   OH242898   0.779   3.616  16.635 -0.4657  0.0680 -0.2337
 7136TIP3    H142899   0.874   3.605  16.630 -0.6421 -3.3512  2.0891
 7136TIP3    H242900   0.766   3.686  16.700  0.4427  0.2433 -0.2410
 7137TIP3   OH242901   6.621   5.894   6.426 -0.2072  0.1142 -0.4453
 7137TIP3    H142902   6.688   5.829   6.447  0.6191  0.2211 -2.6226
 7137TIP3    H242903   6.626   5.957   6.498  0.7708 -0.8396  0.3532
 7138TIP3   OH242904   0.985   6.494   3.082 -0.0371  0.1364 -0.1957
 7138TIP3    H142905   0.902   6.472   3.124 -0.0501  1.3667  0.4482
 7138TIP3    H242906   0.971   6.474   2.990 -0.7625 -0.4692  0.0376
 7139TIP3   OH242907   3.223   3.215   2.887  0.8154 -0.5226 -0.5050
 7139TIP3    H142908   3.194   3.233   2.976 -0.8027 -0.6351 -0.9983
 7139TIP3    H242909   3.318   3.227   2.890  0.4856  1.9319  0.6389
 7140TIP3   OH242910   5.376   0.416   5.141 -0.0752 -0.3600 -0.2846
 7140TIP3    H142911   5.402   0.345   5.200  0.2730 -0.0198 -0.0300
 7140TIP3    H242912   5.284   0.431   5.162  0.1487  0.0270  0.4547
 7141TIP3   OH242913   4.369   2.200  16.127  0.4041  0.0749 -0.2370
 7141TIP3    H142914   4.371   2.144  16.050 -0.4020  0.7640 -0.7747
 7141TIP3    H242915   4.452   2.182  16.173 -0.9088 -3.3336  0.9206
 7142TIP3   OH242916   4.398   0.163   4.232 -0.0184  0.9929 -0.5395
 7142TIP3    H142917   4.321   0.168   4.175 -0.2502  1.0044 -0.2221
 7142TIP3    H242918   4.462   0.221   4.190  1.1476 -1.8475 -2.8701
 7143TIP3   OH242919   3.070   3.877  12.356  0.5410 -0.2151 -0.1717
 7143TIP3    H142920   3.059   3.950  12.296  2.0803 -1.3194 -1.8649
 7143TIP3    H242921   3.145   3.901  12.410 -0.0163  0.1898  0.4314
 7144TIP3   OH242922   2.074   6.564   1.393 -0.5857  0.3836 -0.1402
 7144TIP3    H142923   2.077   6.596   1.303  1.3885  2.1779  0.5280
 7144TIP3    H242924   2.068   6.643   1.446 -1.3584 -0.6456  1.3202
 7145TIP3   OH242925   4.793   4.792  10.435  0.8589 -0.1034  0.3072
 7145TIP3    H142926   4.842   4.712  10.417 -0.0066 -0.6771  0.4872
 7145TIP3    H242927   4.757   4.817  10.350  1.5315  0.3692  0.1556
 7146TIP3   OH242928   1.119   1.339  16.560  0.1256  0.1257  0.1718
 7146TIP3    H142929   1.137   1.340  16.466  1.5908 -0.7778  0.4330
 7146TIP3    H242930   1.039   1.286  16.569 -0.5195  0.9466 -0.6343
 7147TIP3   OH242931   1.236   4.572  14.986  0.2920  0.3243  0.2998
 7147TIP3    H142932   1.178   4.640  14.952  0.7456  0.6271  0.1335
 7147TIP3    H242933   1.183   4.527  15.052 -0.1813  0.5067  0.0478
 7148TIP3   OH242934   4.082   3.088   0.653  0.3365 -0.3353 -0.1405
 7148TIP3    H142935   4.167   3.099   0.694  0.2903  3.0459 -0.8342
 7148TIP3    H242936   4.097   3.104   0.560 -0.9877  0.0158 -0.3057
 7149TIP3   OH242937   0.996   0.521   3.938 -0.3271  0.5281  0.4074
 7149TIP3    H142938   0.902   0.525   3.918 -0.4286  0.2611  0.8226
 7149TIP3    H242939   1.013   0.428   3.955 -0.1385  0.6737  1.0403
 7150TIP3   OH242940   6.130   5.022   4.485 -0.2257  0.0663 -0.0007
 7150TIP3    H142941   6.190   4.956   4.518 -2.0217 -1.0190  1.2131
 7150TIP3    H242942   6.046   4.977   4.479 -0.8125  1.3706 -2.2630
 7151TIP3   OH242943   2.406   6.710   0.693 -0.6471 -0.2741 -0.2359
 7151TIP3    H142944   2.379   6.783   0.638 -0.4954  0.3582  0.5239
 7151TIP3    H242945   2.325   6.679   0.733 -0.5990  0.0056  0.0795
 7152TIP3   OH242946   1.178   3.592  12.700 -0.5590 -0.5470  0.0785
 7152TIP3    H142947   1.133   3.632  12.625  0.2848  1.0351  0.3882
 7152TIP3    H242948   1.253   3.547  12.660 -0.5721 -0.4068 -0.1081
 7153TIP3   OH242949   4.941   5.118   5.085  0.2443 -0.2904 -0.4130
 7153TIP3    H142950   4.886   5.060   5.139  0.9516 -1.6149 -1.0736
 7153TIP3    H242951   4.971   5.185   5.146  0.0583 -1.0867  0.5845
 7154TIP3   OH242952   4.279   0.984   1.897  0.0252  0.2839 -0.4306
 7154TIP3    H142953   4.230   0.905   1.920  0.1859 -0.3463 -2.1659
 7154TIP3    H242954   4.212   1.048   1.874 -0.0553  0.1987 -0.4337
 7155TIP3   OH242955   2.571   4.624   3.548 -0.3068 -0.6482 -0.2453
 7155TIP3    H142956   2.657   4.603   3.511 -0.5536 -0.5975 -0.8649
 7155TIP3    H242957   2.517   4.548   3.526 -1.2246  0.6143 -2.5535
 7156TIP3   OH242958   5.306   5.637   1.075  0.3005 -0.1837  0.3320
 7156TIP3    H142959   5.218   5.665   1.048  1.0856  1.3993 -0.6371
 7156TIP3    H242960   5.351   5.718   1.098  1.5964 -0.9637  0.5665
 7157TIP3   OH242961   0.275   1.309  14.182 -0.0616  0.7116  0.2523
 7157TIP3    H142962   0.304   1.231  14.229  1.0609  0.9008 -0.1301
 7157TIP3    H242963   0.353   1.363  14.173 -0.6094  1.4071 -0.4126
 7158TIP3   OH242964   1.896   1.974  15.577 -0.4490  0.3732  0.0919
 7158TIP3    H142965   1.933   1.999  15.662 -3.6018  2.2206  1.0169
 7158TIP3    H242966   1.854   1.889  15.594  0.7713 -0.2908 -0.1879
 7159TIP3   OH242967   0.050   2.056  14.939 -0.2130 -0.1017 -0.1609
 7159TIP3    H142968   0.043   2.136  14.991  2.0944 -0.0209  0.0908
 7159TIP3    H242969   0.058   1.986  15.004  1.4668 -0.1262 -0.3671
 7160TIP3   OH242970   6.777   1.500  16.318 -0.0079  0.5691 -0.2947
 7160TIP3    H142971   6.851   1.535  16.368  0.4803  1.0026 -1.3062
 7160TIP3    H242972   6.734   1.439  16.378  2.3681 -1.2428 -0.3819
 7161TIP3   OH242973   2.649   1.537   4.634  0.4399  0.4331 -0.2328
 7161TIP3    H142974   2.598   1.611   4.668  0.2216 -0.4963  1.5186
 7161TIP3    H242975   2.710   1.515   4.704 -0.3594 -1.8461 -0.1897
 7162TIP3   OH242976   5.997   6.178  17.205  0.0246 -0.0443 -0.2015
 7162TIP3    H142977   5.913   6.137  17.185  0.5552 -0.3629 -1.8060
 7162TIP3    H242978   6.051   6.162  17.128  1.7628 -0.3688  1.0617
 7163TIP3   OH242979   1.940   4.285   5.105 -0.3329 -0.5906 -0.5945
 7163TIP3    H142980   1.904   4.206   5.144 -0.3350 -1.3990 -2.1901
 7163TIP3    H242981   1.997   4.253   5.035  2.4847  0.6986  1.0192
 7164TIP3   OH242982   6.425   6.270   0.571  0.1552  0.3648 -0.2619
 7164TIP3    H142983   6.482   6.347   0.569 -0.2352  0.6933  0.8787
 7164TIP3    H242984   6.402   6.254   0.479  0.3725  1.5001 -0.5203
 7165TIP3   OH242985   1.798   1.234  14.074 -0.0395 -0.2982  0.0594
 7165TIP3    H142986   1.835   1.249  13.987 -0.2081  4.4601  0.7145
 7165TIP3    H242987   1.872   1.206  14.128  0.5256 -0.8381 -0.9898
 7166TIP3   OH242988   2.772   3.661   2.080  0.6400 -0.1060 -0.4437
 7166TIP3    H142989   2.825   3.589   2.044  0.9227  0.8001 -1.8771
 7166TIP3    H242990   2.682   3.640   2.054  0.7932  0.3376 -1.3560
 7167TIP3   OH242991   4.136   1.559   1.407 -0.4774  0.0228  0.0628
 7167TIP3    H142992   4.208   1.598   1.357  0.1639 -2.0127 -0.6543
 7167TIP3    H242993   4.169   1.554   1.497 -0.1289  0.1030 -0.0607
 7168TIP3   OH242994   4.395   5.547   5.227  0.2790  0.3386  0.2312
 7168TIP3    H142995   4.453   5.475   5.201 -0.5709  0.5243 -2.3003
 7168TIP3    H242996   4.450   5.625   5.221  0.1115  0.3708 -0.9868
 7169TIP3   OH242997   0.752   2.329   5.848  0.7121  0.6798 -0.0276
 7169TIP3    H142998   0.711   2.244   5.864  1.9398 -0.2796 -1.7818
 7169TIP3    H242999   0.699   2.369   5.780  0.3601  1.1526  0.5247
 7170TIP3   OH243000   3.489   2.214  13.214 -0.2118 -0.1886 -0.2054
 7170TIP3    H143001   3.523   2.127  13.192 -1.1443 -1.0791  1.7988
 7170TIP3    H243002   3.395   2.207  13.199 -0.3015  0.4457  0.0942
 7171TIP3   OH243003   2.551   2.206   6.192 -0.0433 -0.2926  0.0965
 7171TIP3    H143004   2.539   2.279   6.253 -0.4866 -1.1705  1.0840
 7171TIP3    H243005   2.503   2.134   6.232  1.0446 -1.3483 -0.4705
 7172TIP3   OH243006   3.240   2.776  15.153  0.1615  0.2969  0.5185
 7172TIP3    H143007   3.264   2.786  15.245 -0.8669 -0.8631  0.9128
 7172TIP3    H243008   3.256   2.684  15.133  0.5469  0.5795 -0.5149
 7173TIP3   OH243009   4.701   3.742  13.469 -0.1195 -0.3280  0.1742
 7173TIP3    H143010   4.761   3.765  13.398  0.4859 -1.6225  0.2619
 7173TIP3    H243011   4.614   3.741  13.428  0.3513 -2.2283 -0.8300
 7174TIP3   OH243012   1.875   0.402   6.679  0.1973 -0.4549 -0.4021
 7174TIP3    H143013   1.886   0.480   6.625 -0.3975  1.1891  1.7700
 7174TIP3    H243014   1.935   0.415   6.753 -1.0825 -1.2489  0.8195
 7175TIP3   OH243015   0.772   2.272   5.209 -0.1971  0.5371 -0.6878
 7175TIP3    H143016   0.790   2.178   5.212 -0.3320  0.5457  0.5820
 7175TIP3    H243017   0.686   2.282   5.251  1.7061  1.6727  3.1315
 7176TIP3   OH243018   3.065   0.713   5.561  0.2171 -0.1109  0.0428
 7176TIP3    H143019   3.091   0.625   5.533  1.6433  0.2255  0.2870
 7176TIP3    H243020   3.006   0.744   5.492 -0.9168 -1.5517  0.3380
 7177TIP3   OH243021   6.392   5.215   1.905  0.7069 -0.2081 -0.1258
 7177TIP3    H143022   6.386   5.276   1.979  2.0928 -1.6304  1.2025
 7177TIP3    H243023   6.304   5.177   1.899  1.1821 -1.8278  2.3739
 7178TIP3   OH243024   2.733   5.131   1.818  0.2789 -0.2574 -0.6077
 7178TIP3    H143025   2.764   5.210   1.773 -0.1012  0.4908  0.4368
 7178TIP3    H243026   2.814   5.086   1.843  0.5429  0.8172  0.5626
 7179TIP3   OH243027   1.659   6.377   5.190 -0.2844  0.1233 -0.0968
 7179TIP3    H143028   1.604   6.301   5.212  0.1124  0.2248  1.3217
 7179TIP3    H243029   1.710   6.393   5.270  2.0620 -0.1964 -1.4914
 7180TIP3   OH243030   5.351   4.407  14.242 -0.4130 -0.0505  0.3426
 7180TIP3    H143031   5.374   4.315  14.251  0.6117 -0.2213 -3.3667
 7180TIP3    H243032   5.271   4.417  14.294 -0.7189 -3.0855  0.5255
 7181TIP3   OH243033   4.357   2.727  16.501 -0.6059 -0.1147  0.6323
 7181TIP3    H143034   4.300   2.790  16.458  0.3225  0.4740  0.2594
 7181TIP3    H243035   4.391   2.773  16.578  0.7396  0.1329 -0.1051
 7182TIP3   OH243036   0.059   4.945  15.416 -0.4859  0.3108  0.1447
 7182TIP3    H143037   0.060   4.977  15.507  0.2623 -0.9403  0.5914
 7182TIP3    H243038   0.151   4.941  15.391 -0.6790  0.3297 -0.5601
 7183TIP3   OH243039   0.979   6.354  14.635  0.4007  0.1354  0.2218
 7183TIP3    H143040   0.998   6.278  14.691  1.2845  0.5963  0.5728
 7183TIP3    H243041   0.947   6.316  14.553  1.7101 -0.6736  0.0528
 7184TIP3   OH243042   2.851   2.372  11.556  0.3791  0.6508 -0.4488
 7184TIP3    H143043   2.860   2.445  11.618  1.1986  0.0392  0.1572
 7184TIP3    H243044   2.796   2.408  11.485 -1.2453  1.0959  1.0045
 7185TIP3   OH243045   0.253   3.462   3.968 -0.2319  0.5333  0.1609
 7185TIP3    H143046   0.230   3.389   3.911  0.8841  0.2399  0.0671
 7185TIP3    H243047   0.318   3.426   4.029 -0.2301  1.2491  0.5870
 7186TIP3   OH243048   5.724   5.720  13.239  0.1854 -0.1334 -0.2774
 7186TIP3    H143049   5.756   5.666  13.167 -0.2836  0.7558 -1.1704
 7186TIP3    H243050   5.675   5.660  13.295 -1.0209 -0.4740 -1.6917
 7187TIP3   OH243051   3.906   6.465  15.105  0.1048 -0.3975 -0.1614
 7187TIP3    H143052   3.980   6.432  15.155 -1.3334 -0.7630  1.7659
 7187TIP3    H243053   3.863   6.528  15.163 -0.9051  0.0765 -1.3830
 7188TIP3   OH243054   6.216   1.623   6.041  0.9971 -0.2255  0.6322
 7188TIP3    H143055   6.223   1.611   6.135 -1.4763  0.4508  0.9353
 7188TIP3    H243056   6.146   1.688   6.030 -1.4700 -3.1736 -1.8184
 7189TIP3   OH243057   1.653   1.219   3.424 -0.1088 -0.0307  0.4740
 7189TIP3    H143058   1.560   1.234   3.441 -0.9864 -3.0408 -1.2578
 7189TIP3    H243059   1.662   1.230   3.329  0.8277 -1.8354  0.3217
 7190TIP3   OH243060   2.101   1.122   0.928  0.2601  0.2841  0.2723
 7190TIP3    H143061   2.049   1.074   0.864  2.1726 -1.3602 -0.1018
 7190TIP3    H243062   2.190   1.120   0.893  1.0629  0.7221  2.1995
 7191TIP3   OH243063   2.445   2.641  14.647 -0.4080 -0.1309 -0.5108
 7191TIP3    H143064   2.534   2.644  14.611 -0.2294 -2.2572 -0.3052
 7191TIP3    H243065   2.452   2.584  14.724 -1.9059 -0.1187 -0.3548
 7192TIP3   OH243066   1.322   6.746   4.931  0.3326 -0.8515  0.2493
 7192TIP3    H143067   1.381   6.751   5.006 -0.0142 -3.6090  0.7652
 7192TIP3    H243068   1.337   6.658   4.895 -2.1898 -0.9370 -0.6728
 7193TIP3   OH243069   2.009   6.737  15.813 -0.1789  0.0738 -0.2780
 7193TIP3    H143070   1.945   6.716  15.745  1.4554  1.0179 -2.1515
 7193TIP3    H243071   1.987   6.827  15.838  1.3031  0.9591 -2.0127
 7194TIP3   OH243072   3.631   6.764  13.047 -0.1035  0.2033  0.2707
 7194TIP3    H143073   3.690   6.806  12.985 -0.5995  0.4400 -0.0404
 7194TIP3    H243074   3.627   6.673  13.019 -0.6112  0.3864 -0.2690
 7195TIP3   OH243075   3.076   1.192   4.118 -0.4248 -0.7030 -0.3352
 7195TIP3    H143076   3.038   1.257   4.176 -1.7518  0.2739 -2.2781
 7195TIP3    H243077   3.164   1.178   4.153 -0.7077  0.9005  1.0756
 7196TIP3   OH243078   3.284   6.465   5.778  0.0424 -0.1676  0.8046
 7196TIP3    H143079   3.296   6.540   5.836  1.6577  0.6737 -0.5784
 7196TIP3    H243080   3.208   6.489   5.724  0.8136  0.6685  0.0774
 7197TIP3   OH243081   1.705   1.649   0.325  0.5428 -0.1606  0.0358
 7197TIP3    H143082   1.771   1.699   0.373  0.0777  0.6304 -0.1391
 7197TIP3    H243083   1.731   1.558   0.336  0.5789  0.0315  1.5870
 7198TIP3   OH243084   1.472   2.537  16.213  0.3646 -0.0533 -0.2549
 7198TIP3    H143085   1.505   2.561  16.300 -1.1618  0.1538  0.2902
 7198TIP3    H243086   1.380   2.516  16.228  0.0319  0.1963 -1.8707
 7199TIP3   OH243087   5.276   1.223  16.284  0.2198 -0.3871 -0.8146
 7199TIP3    H143088   5.219   1.233  16.360 -0.6167 -0.4458 -1.4235
 7199TIP3    H243089   5.319   1.139  16.297  0.7026 -0.0166  0.0027
 7200TIP3   OH243090   0.751   1.154   0.483 -0.4202 -0.7736  0.2745
 7200TIP3    H143091   0.838   1.169   0.447 -0.2395 -0.8789  0.6718
 7200TIP3    H243092   0.759   1.073   0.532 -0.3746 -0.0312  1.5153
 7201TIP3   OH243093   2.065   4.471  15.328 -0.6627  0.3054  0.1612
 7201TIP3    H143094   2.098   4.557  15.301 -0.9945  0.2822 -0.3158
 7201TIP3    H243095   1.972   4.485  15.344 -0.5613  0.2101  0.8306
 7202TIP3   OH243096   2.010   1.863  16.152  0.1152 -0.1746  0.6729
 7202TIP3    H143097   2.037   1.818  16.232  1.4209 -2.0102 -0.7584
 7202TIP3    H243098   1.931   1.817  16.124  0.8319 -0.8840 -0.2007
 7203TIP3   OH243099   3.068   0.944   1.554 -0.6536 -0.4260 -0.8929
 7203TIP3    H143100   3.148   0.926   1.603 -1.2484 -1.0888 -0.1467
 7203TIP3    H243101   3.013   0.867   1.570 -1.7640  0.4003 -0.7275
 7204TIP3   OH243102   1.692   5.304  13.534 -0.3811  0.3097 -0.1860
 7204TIP3    H143103   1.733   5.225  13.568 -1.1908 -0.7782 -1.6772
 7204TIP3    H243104   1.762   5.349  13.486  0.2392  0.8345  1.1790
 7205TIP3   OH243105   2.316   2.393   0.404  0.0813 -0.1276  0.6849
 7205TIP3    H143106   2.241   2.452   0.396 -0.1335 -0.0939  2.6702
 7205TIP3    H243107   2.279   2.306   0.401 -0.1388 -0.1099  2.2123
 7206TIP3   OH243108   4.619   2.063  16.256  0.4819 -0.1042  0.0463
 7206TIP3    H143109   4.599   1.980  16.213 -0.3974 -0.2944  0.8025
 7206TIP3    H243110   4.680   2.107  16.197  0.8783 -1.2486 -0.3981
 7207TIP3   OH243111   3.247   2.099   3.642  0.8551  0.0472 -0.3483
 7207TIP3    H143112   3.312   2.029   3.636  0.3331 -0.4808  0.0807
 7207TIP3    H243113   3.267   2.144   3.725 -0.6601 -1.4826  0.8897
 7208TIP3   OH243114   6.295   6.328  12.688 -0.1106  0.4665  0.3289
 7208TIP3    H143115   6.335   6.332  12.775  1.3478  1.1135 -0.3455
 7208TIP3    H243116   6.362   6.364  12.629 -1.4227  0.8947 -0.9395
 7209TIP3   OH243117   1.340   5.754   0.279 -0.0778  0.0514 -0.1992
 7209TIP3    H143118   1.276   5.817   0.313 -2.0593 -2.7960  1.6232
 7209TIP3    H243119   1.301   5.669   0.299  1.7417 -1.7643 -4.0564
 7210TIP3   OH243120   5.002   3.892   4.766 -0.1995  0.0578 -0.2802
 7210TIP3    H143121   5.002   3.796   4.768 -1.9508  0.0190 -0.6240
 7210TIP3    H243122   4.924   3.916   4.817  1.1295  1.3523  1.1569
 7211TIP3   OH243123   1.210   2.393  15.795 -0.6106  0.1224 -0.5144
 7211TIP3    H143124   1.291   2.440  15.816 -1.0905  1.2085 -1.0548
 7211TIP3    H243125   1.228   2.354  15.709 -0.1660 -0.7954 -0.0102
 7212TIP3   OH243126   2.966   5.014   2.360  0.5406 -0.0751 -0.1648
 7212TIP3    H143127   2.898   4.950   2.382  0.0116  1.0990  1.7523
 7212TIP3    H243128   3.045   4.980   2.404  0.5269  0.0250 -0.0633
 7213TIP3   OH243129   3.405   0.111   0.868 -0.0209 -0.5498 -0.6466
 7213TIP3    H143130   3.431   0.020   0.856 -2.6794 -1.5781  1.0229
 7213TIP3    H243131   3.407   0.124   0.963  0.9243  1.3339 -0.9010
 7214TIP3   OH243132   2.431   5.770   5.056 -0.3163  0.4118 -0.2403
 7214TIP3    H143133   2.451   5.729   4.971  0.0439  0.1254 -0.0171
 7214TIP3    H243134   2.367   5.838   5.034 -1.5388 -0.7786 -0.5136
 7215TIP3   OH243135   1.923   1.780  15.325  0.4339  0.3062 -0.3076
 7215TIP3    H143136   1.858   1.839  15.363  0.3585  0.7888 -1.1686
 7215TIP3    H243137   1.886   1.754  15.241  2.1693  2.0704 -1.6548
 7216TIP3   OH243138   1.930   4.563   2.290  0.4863  0.7640  0.7526
 7216TIP3    H143139   1.904   4.517   2.210  1.1655 -0.1736  1.0585
 7216TIP3    H243140   1.875   4.525   2.358  0.7630  0.6973  0.9397
 7217TIP3   OH243141   2.842   4.199   1.242  0.5826 -0.2383 -0.0220
 7217TIP3    H143142   2.859   4.293   1.229  2.2554 -0.4658  0.3282
 7217TIP3    H243143   2.757   4.196   1.286 -0.9452  0.9564 -2.7940
 7218TIP3   OH243144   2.704   2.007  11.965  0.8017 -0.4054  0.0099
 7218TIP3    H143145   2.698   2.094  11.926  1.8113  0.1900  1.1429
 7218TIP3    H243146   2.617   1.970  11.954  0.0655  1.1555  0.4351
 7219TIP3   OH243147   3.737   0.814  16.870  0.7094  0.4629 -0.2821
 7219TIP3    H143148   3.717   0.865  16.948  1.4059 -2.0083  1.5555
 7219TIP3    H243149   3.807   0.863  16.827  1.2250  1.1980  1.3488
 7220TIP3   OH243150   0.448   2.367   2.448  0.4072 -0.5518  0.4039
 7220TIP3    H143151   0.420   2.291   2.397 -1.2632 -0.2787  0.8853
 7220TIP3    H243152   0.370   2.422   2.453  0.7363 -0.2691  2.7026
 7221TIP3   OH243153   4.181   2.097   1.576  0.4512 -0.8212 -0.1783
 7221TIP3    H143154   4.124   2.082   1.651 -1.0155  0.5950 -1.0028
 7221TIP3    H243155   4.261   2.134   1.614 -1.8525  3.8953  0.3419
 7222TIP3   OH243156   3.720   5.247  13.139 -0.4424 -0.1236 -0.5306
 7222TIP3    H143157   3.742   5.257  13.046 -0.6103 -1.0896 -0.6804
 7222TIP3    H243158   3.638   5.197  13.139 -0.9709  0.7347  0.1120
 7223TIP3   OH243159   3.541   3.470   6.077 -0.2302 -0.3095  1.0974
 7223TIP3    H143160   3.635   3.457   6.068 -0.2043  0.9022 -0.6000
 7223TIP3    H243161   3.532   3.534   6.148  0.2203 -0.4796  1.3091
 7224TIP3   OH243162   1.971   5.584  12.302 -0.1771  0.6046  0.1472
 7224TIP3    H143163   2.040   5.648  12.319 -0.5425  0.8507  0.7361
 7224TIP3    H243164   2.008   5.500  12.329  0.7664  0.3559 -1.8028
 7225TIP3   OH243165   6.194   4.469  15.930  0.3006 -0.3165 -0.4736
 7225TIP3    H143166   6.249   4.476  15.852  2.8449  0.3277  1.2974
 7225TIP3    H243167   6.198   4.556  15.970 -1.9818 -0.2838 -0.2620
 7226TIP3   OH243168   0.965   0.208   6.278 -0.4060  0.2845  0.0782
 7226TIP3    H143169   0.945   0.163   6.360 -0.2104 -1.0914 -0.6084
 7226TIP3    H243170   0.911   0.163   6.213 -0.1082  0.9686 -0.6465
 7227TIP3   OH243171   3.520   1.844   5.175  0.2598 -0.2342  0.0496
 7227TIP3    H143172   3.494   1.830   5.265 -0.8187  3.3854  0.3645
 7227TIP3    H243173   3.615   1.859   5.179  0.0141  1.1101  0.7165
 7228TIP3   OH243174   2.522   2.855   1.417  0.4847  0.2404 -0.4783
 7228TIP3    H143175   2.456   2.917   1.387  0.9522  1.5387  1.1024
 7228TIP3    H243176   2.524   2.865   1.512  2.7223  0.0038 -0.4611
 7229TIP3   OH243177   6.712   1.360  15.340  0.2469 -1.0276 -0.4101
 7229TIP3    H143178   6.750   1.337  15.425 -1.1590  1.4712  0.9408
 7229TIP3    H243179   6.638   1.301  15.331 -2.0426  1.3328  2.0315
 7230TIP3   OH243180   0.976   6.225   4.528 -0.0211 -0.1446  0.0382
 7230TIP3    H143181   0.928   6.240   4.446  0.6321 -0.0319 -0.3259
 7230TIP3    H243182   0.909   6.192   4.589 -0.5315 -0.1302 -0.5047
 7231TIP3   OH243183   4.677   2.182  15.985  0.2131  0.0066 -0.9259
 7231TIP3    H143184   4.749   2.203  15.925  0.9655 -0.4526 -0.1908
 7231TIP3    H243185   4.628   2.114  15.940 -0.1220  0.7547 -1.7038
 7232TIP3   OH243186   2.413   1.137   5.146  0.6456 -0.1100 -0.3675
 7232TIP3    H143187   2.492   1.102   5.188  0.0028 -1.9122 -0.6633
 7232TIP3    H243188   2.351   1.065   5.146 -1.2516  1.4731  0.4306
 7233TIP3   OH243189   0.173   0.116   6.083 -0.4045  0.6819 -0.1942
 7233TIP3    H143190   0.148   0.044   6.141  2.3487  0.0644  0.3060
 7233TIP3    H243191   0.197   0.188   6.142  0.2187  0.8106 -0.5930
 7234TIP3   OH243192   3.190   6.559   0.714 -0.2740  0.0909 -0.2608
 7234TIP3    H143193   3.171   6.647   0.746 -1.1701  0.3346 -1.4408
 7234TIP3    H243194   3.113   6.534   0.664 -0.3001 -1.6328  0.6000
 7235TIP3   OH243195   2.412   2.023   2.675 -0.0618  0.0699  0.1209
 7235TIP3    H143196   2.352   1.960   2.635 -0.1057 -0.0992  0.4491
 7235TIP3    H243197   2.392   2.106   2.631 -3.3645  0.9114  2.9499
 7236TIP3   OH243198   4.945   4.168   3.405 -0.0469 -0.2337  0.2250
 7236TIP3    H143199   4.993   4.247   3.380  0.6252  0.3040  3.0448
 7236TIP3    H243200   5.001   4.126   3.471 -2.4212 -0.7343  1.9810
 7237TIP3   OH243201   6.617   2.290   6.201 -0.4783  0.2101  0.5517
 7237TIP3    H143202   6.645   2.288   6.292 -0.9246  0.6227  0.7034
 7237TIP3    H243203   6.545   2.353   6.200  0.3046  1.1000 -0.2999
 7238TIP3   OH243204   4.113   5.011  12.801  0.3555 -0.5450  0.3900
 7238TIP3    H143205   4.114   4.916  12.788 -1.6624 -0.6160  0.5634
 7238TIP3    H243206   4.062   5.024  12.881  0.1003  0.7165  0.0330
 7239TIP3   OH243207   6.344   5.132  11.463 -0.1655 -0.4523  0.4967
 7239TIP3    H143208   6.396   5.094  11.535  1.0752 -1.9117 -1.1274
 7239TIP3    H243209   6.304   5.209  11.502  2.8189  0.4485  2.0030
 7240TIP3   OH243210   0.106   3.476   6.471 -0.3345 -0.4493 -0.7054
 7240TIP3    H143211   0.202   3.471   6.468 -0.3900 -0.9785 -1.8342
 7240TIP3    H243212   0.085   3.464   6.564  0.7253  0.4044 -0.3417
 7241TIP3   OH243213   3.881   6.195   5.682  0.0359  0.2837  0.1632
 7241TIP3    H143214   3.948   6.247   5.725  0.3124  2.1140 -2.3697
 7241TIP3    H243215   3.910   6.189   5.591 -2.1193 -0.7679 -0.4871
 7242TIP3   OH243216   4.400   1.023  17.241  0.3851  0.0629 -0.2006
 7242TIP3    H143217   4.385   1.062  17.155 -0.6773 -0.6328 -0.3459
 7242TIP3    H243218   4.483   0.976  17.233 -0.5018 -1.3627 -1.3660
 7243TIP3   OH243219   6.796   4.516  15.651  0.1129  0.0110 -0.1209
 7243TIP3    H143220   6.867   4.565  15.692  0.4211  1.0364 -1.8461
 7243TIP3    H243221   6.735   4.498  15.723  2.7112 -2.0398  1.6734
 7244TIP3   OH243222   2.943   3.446   2.003  0.3911  0.1195 -0.0520
 7244TIP3    H143223   2.932   3.366   1.951  0.3621 -0.5281  0.9491
 7244TIP3    H243224   2.962   3.415   2.092  0.4402  1.2253  0.3301
 7245TIP3   OH243225   6.475   3.098   5.556  0.2858  0.4476  0.3367
 7245TIP3    H143226   6.488   3.099   5.461 -0.0992  2.3834  0.2892
 7245TIP3    H243227   6.385   3.128   5.568  0.6096  1.0189  1.3552
 7246TIP3   OH243228   2.393   3.157   1.689  0.1263 -0.1791 -0.4404
 7246TIP3    H143229   2.430   3.093   1.628 -0.9519  0.7760 -2.1637
 7246TIP3    H243230   2.333   3.107   1.743  0.3131 -0.8756 -0.8701
 7247TIP3   OH243231   5.361   3.046   4.251  0.0080 -0.4943  0.0663
 7247TIP3    H143232   5.406   2.967   4.283  1.1796 -0.3496 -1.1475
 7247TIP3    H243233   5.291   3.012   4.195  0.2177 -0.6942 -0.0811
 7248TIP3   OH243234   3.633   3.903   5.813  0.0237  0.0274 -0.7981
 7248TIP3    H143235   3.655   3.811   5.830 -1.7358 -0.6125 -1.8279
 7248TIP3    H243236   3.650   3.947   5.897  0.2353 -1.3636 -0.0862
 7249TIP3   OH243237   0.051   0.344  14.753 -0.2280 -0.2924  0.5383
 7249TIP3    H143238   0.135   0.302  14.773 -0.6555 -2.1083 -1.2987
 7249TIP3    H243239  -0.011   0.272  14.750 -1.7083  0.9402  0.9842
 7250TIP3   OH243240   1.848   2.758   2.575  0.5070  0.0136  0.0332
 7250TIP3    H143241   1.880   2.745   2.664  0.0897  1.7010  0.4466
 7250TIP3    H243242   1.926   2.777   2.524  0.5035  1.3036  0.4885
 7251TIP3   OH243243   2.897   5.708   3.774  0.0303  0.3890  0.3870
 7251TIP3    H143244   2.881   5.684   3.866  1.7592  1.1091  0.8849
 7251TIP3    H243245   2.980   5.666   3.752 -0.1796  0.5572 -0.7293
 7252TIP3   OH243246   6.338   1.456   2.211  0.3890  0.1629  0.5021
 7252TIP3    H143247   6.246   1.431   2.202  0.8830 -1.4028 -0.3754
 7252TIP3    H243248   6.345   1.538   2.162 -0.4704  0.1196  0.2940
 7253TIP3   OH243249   6.499   3.167  12.203  0.0344 -0.5386 -0.3619
 7253TIP3    H143250   6.586   3.206  12.190 -0.6383  0.7263 -1.1867
 7253TIP3    H243251   6.517   3.079  12.236  1.6327 -0.2892 -0.5215
 7254TIP3   OH243252   1.404   2.554  14.237  0.2595 -0.2286  0.0373
 7254TIP3    H143253   1.325   2.608  14.235  0.4286  0.0439  0.5525
 7254TIP3    H243254   1.420   2.539  14.330  0.7670 -0.3554 -0.0713
 7255TIP3   OH243255   6.235   1.386   2.525  0.5794  0.3933 -0.5562
 7255TIP3    H143256   6.261   1.447   2.594  0.5903 -2.2377  1.8138
 7255TIP3    H243257   6.143   1.408   2.508  0.7800  1.5254 -0.2432
 7256TIP3   OH243258   3.268   4.024   3.965 -0.0007 -0.2264 -0.6633
 7256TIP3    H143259   3.312   4.060   4.042  0.2158 -0.3083 -0.7474
 7256TIP3    H243260   3.176   4.046   3.977 -0.0121 -0.5348 -0.2203
 7257TIP3   OH243261   0.631   6.666   2.942 -0.1647  0.1390  0.5141
 7257TIP3    H143262   0.606   6.664   2.849  0.7513  1.0077  0.2419
 7257TIP3    H243263   0.694   6.595   2.951  1.9793  1.8903 -0.2053
 7258TIP3   OH243264   2.882   6.026   4.989 -0.3601 -0.3522 -0.1530
 7258TIP3    H143265   2.971   6.026   5.026 -0.9009  0.4981  1.1911
 7258TIP3    H243266   2.841   5.947   5.024 -0.1474 -0.7390 -0.7651
 7259TIP3   OH243267   6.004   3.562   6.614 -0.5705 -0.1897 -0.7114
 7259TIP3    H143268   6.042   3.475   6.602 -0.7494 -0.3212 -0.3398
 7259TIP3    H243269   5.943   3.573   6.541 -0.9136 -0.5729 -0.4789
 7260TIP3   OH243270   3.949   2.337   3.520 -0.7550  0.1362 -0.2706
 7260TIP3    H143271   3.979   2.363   3.607 -0.2832 -2.3219  0.3523
 7260TIP3    H243272   3.860   2.306   3.534 -0.7568 -0.0635 -0.7067
 7261TIP3   OH243273   4.171   4.691   5.853 -0.2061  0.2816  0.2381
 7261TIP3    H143274   4.139   4.643   5.930 -0.4179  0.6336  0.3723
 7261TIP3    H243275   4.249   4.737   5.884 -0.0349  0.0631  0.1242
 7262TIP3   OH243276   5.507   1.236   2.111  0.2947  0.1493  0.1767
 7262TIP3    H143277   5.546   1.153   2.085 -3.0456 -1.8484  1.1361
 7262TIP3    H243278   5.474   1.274   2.029  2.6394  1.0119 -0.3899
 7263TIP3   OH243279   2.976   4.571  15.600  0.6748 -0.2735 -0.3749
 7263TIP3    H143280   2.980   4.508  15.673 -0.1202  1.6977  1.4260
 7263TIP3    H243281   2.885   4.570  15.572  0.8633 -0.6180 -0.9826
 7264TIP3   OH243282   0.968   6.751   5.111 -0.3844 -0.0889  0.3711
 7264TIP3    H143283   1.014   6.729   5.193 -0.0028  0.9001  0.4228
 7264TIP3    H243284   0.928   6.668   5.084 -0.0356 -0.5583  1.2565
 7265TIP3   OH243285   0.022   5.850   2.153  0.8667 -0.4141  0.8033
 7265TIP3    H143286  -0.052   5.889   2.200 -0.9779 -2.1320 -0.5516
 7265TIP3    H243287   0.019   5.757   2.177  0.9833 -0.9837 -1.2348
 7266TIP3   OH243288   2.968   1.783   1.099 -0.0012  0.0371 -0.5199
 7266TIP3    H143289   2.879   1.807   1.125 -0.2894 -0.9393 -0.5758
 7266TIP3    H243290   3.018   1.781   1.181 -0.9117 -3.0680  0.0068
 7267TIP3   OH243291   4.416   1.927   3.004 -0.1826  0.0357 -0.1879
 7267TIP3    H143292   4.507   1.926   2.975  0.5177  1.4916  1.8131
 7267TIP3    H243293   4.393   1.835   3.013  0.7331 -0.3723 -1.7316
 7268TIP3   OH243294   6.366   0.736  13.967  0.7299 -0.6066  0.5844
 7268TIP3    H143295   6.360   0.775  14.054 -1.7474  1.8530 -0.6099
 7268TIP3    H243296   6.424   0.795  13.918  0.7464 -1.0365  0.0796
 7269TIP3   OH243297   6.571   6.093   1.462 -0.5251  0.1713 -0.3931
 7269TIP3    H143298   6.654   6.134   1.486 -0.3458  0.4833 -1.5001
 7269TIP3    H243299   6.595   6.003   1.438 -0.2820  0.6656 -2.0761
 7270TIP3   OH243300   1.984   2.593  16.362 -0.4079  0.5438 -0.1731
 7270TIP3    H143301   1.915   2.656  16.341 -0.7551 -0.0422 -0.8652
 7270TIP3    H243302   1.966   2.518  16.304  0.4528  0.1341  0.0730
 7271TIP3   OH243303   6.342   1.615  12.969  0.3968  0.1613  0.6236
 7271TIP3    H143304   6.278   1.592  12.901  0.6885 -0.9456  0.7030
 7271TIP3    H243305   6.375   1.701  12.944 -2.6063  1.6834  1.6750
 7272TIP3   OH243306   6.019   5.594   0.314  0.0101 -0.1304  0.6238
 7272TIP3    H143307   5.973   5.636   0.241 -1.7485 -1.6749  0.7996
 7272TIP3    H243308   5.984   5.637   0.392  2.8081  2.4144  0.6001
 7273TIP3   OH243309   1.741   2.862   5.229 -0.3641 -0.1183  0.7909
 7273TIP3    H143310   1.815   2.892   5.283  0.7792 -0.5435 -0.5084
 7273TIP3    H243311   1.745   2.917   5.151 -0.9653 -0.6470  0.3829
 7274TIP3   OH243312   4.613   2.654  11.063 -0.1117  0.5495 -0.0190
 7274TIP3    H143313   4.638   2.744  11.086 -0.5214  0.9350 -1.0324
 7274TIP3    H243314   4.635   2.602  11.140 -0.9949  1.7215  1.0320
 7275TIP3   OH243315   4.444   0.456  15.918  0.2849 -0.5872  0.1886
 7275TIP3    H143316   4.535   0.473  15.893  0.2932  0.5852  1.0034
 7275TIP3    H243317   4.438   0.485  16.009 -2.2425  4.3622 -1.4117
 7276TIP3   OH243318   3.196   6.319  16.475  0.4281  0.0749  0.4323
 7276TIP3    H143319   3.291   6.311  16.478  0.5608  1.9257  1.8182
 7276TIP3    H243320   3.172   6.292  16.386  2.5194  2.3228 -0.8774
 7277TIP3   OH243321   2.941   0.707   2.287  0.5969  0.4159  0.5828
 7277TIP3    H143322   2.929   0.614   2.308  0.4498  0.5185  0.9600
 7277TIP3    H243323   2.957   0.748   2.372 -1.8820  1.1389  0.7560
 7278TIP3   OH243324   4.129   1.717  14.932 -0.7385 -0.0473  0.0316
 7278TIP3    H143325   4.209   1.707  14.983 -0.6558  0.5519  0.0223
 7278TIP3    H243326   4.062   1.742  14.996 -0.5704  0.9947 -0.1823
 7279TIP3   OH243327   1.042   4.214   1.071  0.3384  0.4355  1.1972
 7279TIP3    H143328   1.065   4.306   1.062  0.0075  0.5379  1.4111
 7279TIP3    H243329   1.127   4.169   1.078  0.6628  0.3585 -2.2560
 7280TIP3   OH243330   4.374   1.164   0.760 -0.3764 -0.3060 -0.0751
 7280TIP3    H143331   4.338   1.250   0.736  2.1005  0.5414 -0.9167
 7280TIP3    H243332   4.405   1.127   0.677 -1.3884 -2.0275  0.2887
 7281TIP3   OH243333   3.236   2.172   3.363  0.7236 -0.7624 -0.4275
 7281TIP3    H143334   3.251   2.156   3.456  0.7995 -0.0477 -0.3147
 7281TIP3    H243335   3.322   2.191   3.327  0.5882 -0.2796 -0.4962
 7282TIP3   OH243336   5.352   6.601  12.720  0.1059  0.2851 -0.2955
 7282TIP3    H143337   5.348   6.692  12.750 -0.8190  0.0192  0.4410
 7282TIP3    H243338   5.275   6.560  12.761  1.0999 -1.0700  0.2255
 7283TIP3   OH243339   6.140   6.757  16.943 -0.3877  0.0793 -0.0061
 7283TIP3    H143340   6.190   6.833  16.913 -1.4128  0.2180 -1.3768
 7283TIP3    H243341   6.183   6.682  16.901 -0.6034  0.0897 -0.2439
 7284TIP3   OH243342   5.566   5.745  16.093  0.1436  0.5566  0.3221
 7284TIP3    H143343   5.647   5.751  16.144  1.2250  2.0489 -1.4829
 7284TIP3    H243344   5.593   5.765  16.003 -2.2195  1.0131 -0.3266
 7285TIP3   OH243345   4.728   5.709   3.626 -0.2088 -0.0294 -0.4589
 7285TIP3    H143346   4.728   5.657   3.707 -2.3532  0.7052  0.0279
 7285TIP3    H243347   4.641   5.697   3.589 -0.9809  3.7042 -0.0229
 7286TIP3   OH243348   0.812   0.444   3.634 -0.2086 -0.0794 -0.0974
 7286TIP3    H143349   0.899   0.423   3.668  0.9902  2.0014 -1.6677
 7286TIP3    H243350   0.752   0.391   3.685  1.8147  0.0697  2.5389
 7287TIP3   OH243351   6.694   6.032   1.790 -0.6320  0.1216  0.2511
 7287TIP3    H143352   6.676   5.942   1.762 -0.0401  0.1527 -0.2389
 7287TIP3    H243353   6.790   6.038   1.790 -0.6450  0.4426  1.2679
 7288TIP3   OH243354   1.564   1.897   3.202  0.2669  0.3961 -0.7144
 7288TIP3    H143355   1.658   1.900   3.222  0.0606  0.0478  0.3442
 7288TIP3    H243356   1.551   1.810   3.163  0.2402  0.0923 -0.0464
 7289TIP3   OH243357   1.135   1.245  12.528  0.6119  0.0208  0.6041
 7289TIP3    H143358   1.134   1.236  12.433  1.4373  0.9645  0.5083
 7289TIP3    H243359   1.055   1.199  12.557 -0.6378  1.3474 -0.6751
 7290TIP3   OH243360   0.110   2.712   1.230 -0.4141 -0.0568 -0.2265
 7290TIP3    H143361   0.166   2.704   1.153  0.2595  1.1281  0.1324
 7290TIP3    H243362   0.082   2.622   1.249  0.2496 -0.4813 -1.2265
 7291TIP3   OH243363   1.096   5.237   4.865  0.2068 -0.4756 -1.1152
 7291TIP3    H143364   1.118   5.301   4.933 -0.4044 -2.4201  0.9676
 7291TIP3    H243365   1.180   5.198   4.841  0.4483  0.3538 -1.6148
 7292TIP3   OH243366   0.378   0.034   0.571 -0.8258  0.3321 -0.3166
 7292TIP3    H143367   0.460  -0.010   0.591 -1.1244  0.7470  1.9646
 7292TIP3    H243368   0.356   0.004   0.483  1.2754 -0.5202 -0.5840
 7293TIP3   OH243369   6.297   4.846   5.283 -0.3630 -0.1286  0.0760
 7293TIP3    H143370   6.339   4.865   5.200 -0.2419 -3.0304 -0.5917
 7293TIP3    H243371   6.349   4.774   5.320 -1.4073  0.0102  1.8827
 7294TIP3   OH243372   4.030   6.160   1.671 -0.0291 -0.2276 -0.1611
 7294TIP3    H143373   3.955   6.206   1.708  0.5187  0.2678  0.3521
 7294TIP3    H243374   4.070   6.223   1.612  0.0416 -0.4570 -0.3580
 7295TIP3   OH243375   1.373   4.752   0.743  0.0353 -0.1825  0.7414
 7295TIP3    H143376   1.391   4.832   0.793  0.0052  0.5985 -0.4653
 7295TIP3    H243377   1.459   4.726   0.710  0.3483 -1.7562  2.7300
 7296TIP3   OH243378   4.533   4.604  15.921 -0.2719  0.4708  0.2392
 7296TIP3    H143379   4.536   4.556  16.003 -1.5028 -1.1846 -0.6581
 7296TIP3    H243380   4.611   4.576  15.873  0.6247  1.6882  0.9515
 7297TIP3   OH243381   4.454   3.582   6.596 -0.0785  0.3945 -0.0246
 7297TIP3    H143382   4.491   3.593   6.683 -0.1414  1.1565 -0.0929
 7297TIP3    H243383   4.359   3.590   6.609 -0.2772 -1.8492  0.1983
 7298TIP3   OH243384   1.403   0.115  13.519  0.1209  0.1630  0.5046
 7298TIP3    H143385   1.374   0.104  13.428 -0.3262 -1.6791  0.8334
 7298TIP3    H243386   1.334   0.168  13.559 -0.4945 -0.3365  0.1356
 7299TIP3   OH243387   4.847   0.630  14.645 -0.2869  0.1559 -0.3896
 7299TIP3    H143388   4.839   0.545  14.688  0.2727 -0.4978 -1.5466
 7299TIP3    H243389   4.868   0.608  14.554 -0.4926  1.5285 -0.7714
 7300TIP3   OH243390   1.391   3.845   1.266  0.0081  0.0277  0.5701
 7300TIP3    H143391   1.479   3.855   1.301  0.5245 -2.2627 -0.0109
 7300TIP3    H243392   1.403   3.832   1.172 -0.6843 -3.1952  0.8518
 7301TIP3   OH243393   3.658   4.680   3.334  0.5602  0.5290  0.0349
 7301TIP3    H143394   3.627   4.635   3.413  0.0033  0.9024  0.0358
 7301TIP3    H243395   3.750   4.656   3.327  0.6048  0.4735  0.7827
 7302TIP3   OH243396   1.049   4.519  17.200 -0.1654 -0.8111  0.5586
 7302TIP3    H143397   1.044   4.451  17.133 -0.6500 -0.4725  0.2470
 7302TIP3    H243398   0.960   4.524  17.234 -0.4713  0.6807 -0.4283
 7303TIP3   OH243399   2.511   0.167  13.823  0.1943 -0.0452 -0.3738
 7303TIP3    H143400   2.427   0.178  13.779  1.2772  1.5802 -2.1047
 7303TIP3    H243401   2.489   0.165  13.916 -1.8329 -0.5705 -0.8226
 7304TIP3   OH243402   1.571   3.458  11.478  0.4437 -0.3246 -0.2405
 7304TIP3    H143403   1.551   3.500  11.394  0.6024 -0.7610 -0.4959
 7304TIP3    H243404   1.514   3.381  11.481  2.1601 -1.6602 -1.0401
 7305TIP3   OH243405   1.023   6.518   6.570  0.3042 -0.2401 -0.6247
 7305TIP3    H143406   1.111   6.511   6.607  0.0940 -1.4402 -0.3314
 7305TIP3    H243407   1.012   6.437   6.520 -1.1592 -0.7477  0.5020
 7306TIP3   OH243408   6.338   1.514  11.330 -0.1313  0.2202 -0.3070
 7306TIP3    H143409   6.388   1.440  11.296 -0.9209 -0.4860  0.0758
 7306TIP3    H243410   6.321   1.569  11.253 -1.0967 -0.8956 -0.8927
 7307TIP3   OH243411   1.725   1.149  12.508 -0.0061  0.1922  0.7149
 7307TIP3    H143412   1.728   1.150  12.604  0.1076 -1.0334  0.7262
 7307TIP3    H243413   1.786   1.080  12.483  0.1503  0.6758 -0.2539
 7308TIP3   OH243414   0.056   3.264  10.599 -0.3377  0.3269 -0.4358
 7308TIP3    H143415   0.010   3.202  10.655 -2.0160  0.7449 -1.3116
 7308TIP3    H243416   0.029   3.241  10.510  0.4701  1.1378 -0.8987
 7309TIP3   OH243417   3.469   6.456   2.809  0.4015 -0.7552 -0.3017
 7309TIP3    H143418   3.448   6.538   2.854 -0.2876  0.7089 -3.2096
 7309TIP3    H243419   3.392   6.401   2.825  0.6475 -0.6742  1.2356
 7310TIP3   OH243420   4.517   2.933   1.948  0.0091  0.3149  0.5479
 7310TIP3    H143421   4.605   2.963   1.927 -0.3857  2.2986  1.6077
 7310TIP3    H243422   4.460   3.007   1.925 -1.4667 -1.1468 -0.6674
 7311TIP3   OH243423   2.898   2.624   3.439 -0.1780 -0.3056 -0.3063
 7311TIP3    H143424   2.883   2.694   3.374 -1.5976 -0.2461  0.0687
 7311TIP3    H243425   2.824   2.564   3.427  0.3409 -1.0692  0.2640
 7312TIP3   OH243426   4.842   0.894   3.627 -0.9721  0.0338  0.1196
 7312TIP3    H143427   4.848   0.804   3.596 -0.4185  0.5186 -1.2494
 7312TIP3    H243428   4.873   0.891   3.718  1.2151 -0.7982 -0.6258
 7313TIP3   OH243429   6.085   5.742  15.736  0.2376 -0.6106 -0.4909
 7313TIP3    H143430   6.124   5.828  15.755 -0.6510 -0.1727 -0.6221
 7313TIP3    H243431   6.122   5.718  15.651  0.5287 -0.3826 -0.4324
 7314TIP3   OH243432   2.418   3.732  16.896 -0.1461 -0.4851  0.3451
 7314TIP3    H143433   2.435   3.800  16.832 -1.5511 -0.5772 -0.1346
 7314TIP3    H243434   2.427   3.650  16.847  1.5870 -0.6831  0.9302
 7315TIP3   OH243435   3.268   6.416  10.946  0.3056  0.3605  0.2580
 7315TIP3    H143436   3.263   6.320  10.952  0.5236  0.3225 -0.1741
 7315TIP3    H243437   3.256   6.446  11.036 -2.3194  0.0442  0.0334
 7316TIP3   OH243438   1.633   1.167  12.834 -0.7091 -0.0595 -0.0322
 7316TIP3    H143439   1.709   1.115  12.808 -1.5919 -0.9556 -0.8322
 7316TIP3    H243440   1.655   1.257  12.809  0.2575 -0.2559  0.1178
 7317TIP3   OH243441   4.771   6.072  11.941  0.2127 -0.4502  0.2807
 7317TIP3    H143442   4.802   6.070  12.032 -2.2425  2.5395  1.2398
 7317TIP3    H243443   4.698   6.010  11.939 -1.0203  0.9813  0.8507
 7318TIP3   OH243444   0.991   5.419  12.594  0.2187  0.1623 -0.2759
 7318TIP3    H143445   0.971   5.387  12.506  2.3335  1.2979 -1.2059
 7318TIP3    H243446   1.049   5.352  12.632 -1.3151 -0.7143  0.5789
 7319TIP3   OH243447   3.972   0.971   2.885 -0.0411 -0.1647  0.0267
 7319TIP3    H143448   4.061   0.992   2.913 -0.5924  1.3902  0.6513
 7319TIP3    H243449   3.923   1.053   2.895 -1.5345 -0.9810 -0.3763
 7320TIP3   OH243450   3.397   5.415   0.636  0.1217  0.1638 -0.1965
 7320TIP3    H143451   3.478   5.407   0.587  0.8288 -0.8284  1.1183
 7320TIP3    H243452   3.398   5.505   0.670  1.3234 -0.2653  0.9351
 7321TIP3   OH243453   4.945   2.864  15.594  0.3547 -0.1200  0.2600
 7321TIP3    H143454   4.993   2.934  15.548 -0.7762 -0.4140 -1.4034
 7321TIP3    H243455   5.011   2.824  15.651  2.1508 -0.5321 -1.9949
 7322TIP3   OH243456   2.138   3.220  13.969  0.3794  0.7616  0.1531
 7322TIP3    H143457   2.044   3.239  13.964  0.2704 -0.0615 -1.4583
 7322TIP3    H243458   2.180   3.293  13.924  0.4364  0.6514  0.0252
 7323TIP3   OH243459   4.009   4.564  16.313 -0.1267 -0.2476  0.0202
 7323TIP3    H143460   4.026   4.512  16.234  0.8569 -0.1891  0.1899
 7323TIP3    H243461   3.915   4.551  16.330  0.2392 -2.5840  0.4795
 7324TIP3   OH243462   2.823   4.291  16.643  0.2923 -0.5324  0.3073
 7324TIP3    H143463   2.825   4.348  16.719  0.7375 -1.1121  0.7293
 7324TIP3    H243464   2.857   4.345  16.571 -1.2073  0.3859  0.2508
 7325TIP3   OH243465   0.806   2.572  10.660  0.3655  0.0112 -0.1992
 7325TIP3    H143466   0.716   2.605  10.659 -0.4500 -2.1295 -1.5357
 7325TIP3    H243467   0.823   2.552  10.752  0.1906  2.2790  0.3448
 7326TIP3   OH243468   3.439   4.130  11.197 -0.4583  0.1089  0.8710
 7326TIP3    H143469   3.435   4.039  11.227 -0.6900  0.1927  1.1054
 7326TIP3    H243470   3.347   4.155  11.187 -0.3662 -0.4203 -1.4751
 7327TIP3   OH243471   4.884   0.926  16.165  0.4380 -0.1183  0.4330
 7327TIP3    H143472   4.828   1.000  16.184  0.9526  0.2253  0.6154
 7327TIP3    H243473   4.929   0.950  16.083 -1.2721 -1.3020 -0.8964
 7328TIP3   OH243474   5.750   6.113   1.198  0.1963 -0.3703  0.4556
 7328TIP3    H143475   5.843   6.094   1.194  0.6630  1.7570  0.7666
 7328TIP3    H243476   5.740   6.166   1.277 -0.5044  3.4649 -2.0637
 7329TIP3   OH243477   5.332   1.306  11.353 -0.3276  0.1680  0.5242
 7329TIP3    H143478   5.339   1.211  11.356 -0.2776  0.1001 -1.2835
 7329TIP3    H243479   5.400   1.333  11.291 -2.4337  1.0963 -1.4933
 7330TIP3   OH243480   4.391   1.921  14.877  0.0907  0.2466  0.0512
 7330TIP3    H143481   4.336   1.976  14.933 -0.8778 -0.2021 -0.4566
 7330TIP3    H243482   4.417   1.848  14.932 -2.1689 -1.0297 -0.5246
 7331TIP3   OH243483   2.602   6.354   2.057 -0.0770 -0.7503  0.2495
 7331TIP3    H143484   2.522   6.344   2.110 -0.1016 -1.6804  0.0346
 7331TIP3    H243485   2.629   6.445   2.073 -1.1839 -0.4244  0.3177
 7332TIP3   OH243486   3.904   5.571   4.505  0.0558  0.1949  0.2418
 7332TIP3    H143487   3.816   5.596   4.474  0.4563  0.9866 -0.2687
 7332TIP3    H243488   3.888   5.495   4.561 -0.9720  0.3774  0.2209
 7333TIP3   OH243489   1.896   6.006   3.174  0.0911  0.4351 -0.2421
 7333TIP3    H143490   1.940   6.074   3.225  0.7549  0.4344 -0.8058
 7333TIP3    H243491   1.961   5.978   3.109 -0.9207  0.8342 -1.4523
 7334TIP3   OH243492   5.842   0.164   0.139 -0.3926  0.0186 -0.3826
 7334TIP3    H143493   5.917   0.157   0.080  0.3697 -0.4117  0.6267
 7334TIP3    H243494   5.854   0.247   0.184  0.6202 -1.0393  1.3224
 7335TIP3   OH243495   4.591   4.773  13.877  0.4199 -0.4025  0.2420
 7335TIP3    H143496   4.675   4.759  13.833  1.4280  2.2133  1.2379
 7335TIP3    H243497   4.532   4.801  13.807  0.5893 -1.4503 -0.3273
 7336TIP3   OH243498   1.359   4.737  13.175  0.8137  0.1211 -0.2052
 7336TIP3    H143499   1.310   4.818  13.188 -0.3369 -0.5813 -0.0346
 7336TIP3    H243500   1.395   4.717  13.262  1.7101  0.8288 -0.4121
 7337TIP3   OH243501   3.707   6.280  11.744 -0.2326 -0.9264  0.0777
 7337TIP3    H143502   3.768   6.291  11.817  2.3297  1.1410 -2.2513
 7337TIP3    H243503   3.721   6.190  11.714  0.9074 -0.8140  0.2514
 7338TIP3   OH243504   0.164   0.065   2.454 -0.5614  0.4929 -0.2735
 7338TIP3    H143505   0.162   0.148   2.406 -2.8903  0.6101 -0.0448
 7338TIP3    H243506   0.083   0.020   2.428  0.6804 -1.7330 -0.4050
 7339TIP3   OH243507   3.244   1.354   0.678  0.3076  0.1841  0.3676
 7339TIP3    H143508   3.304   1.339   0.605  0.9352  1.2301  0.6574
 7339TIP3    H243509   3.160   1.370   0.636  0.5150  0.0559 -0.1029
 7340TIP3   OH243510   5.721   0.845  13.495 -0.4587  0.5863  0.2349
 7340TIP3    H143511   5.639   0.890  13.474 -1.2930  0.8155  3.6929
 7340TIP3    H243512   5.784   0.915  13.510  0.3189  0.4136 -2.0382
 7341TIP3   OH243513   4.126   3.697   1.849  0.2500 -0.6505 -0.0921
 7341TIP3    H143514   4.191   3.641   1.891 -0.6510 -1.6013  0.0585
 7341TIP3    H243515   4.171   3.735   1.774  1.6251  0.3944  1.2315
 7342TIP3   OH243516   6.204   0.671  16.394  0.5358 -0.2218  0.2134
 7342TIP3    H143517   6.128   0.619  16.420 -0.6015  0.2601 -2.0731
 7342TIP3    H243518   6.238   0.628  16.316  1.4573  0.6753  0.1044
 7343TIP3   OH243519   0.529   0.677   1.888 -0.4678 -0.3769  0.0175
 7343TIP3    H143520   0.582   0.613   1.840 -0.7678 -1.0720  0.5985
 7343TIP3    H243521   0.580   0.758   1.884  0.4244 -0.9156  0.1732
 7344TIP3   OH243522   5.535   3.119   5.346 -0.6438 -0.3070 -0.0628
 7344TIP3    H143523   5.620   3.152   5.319 -1.1569 -0.1583 -1.5554
 7344TIP3    H243524   5.484   3.198   5.366 -0.4392 -0.3927  0.7739
 7345TIP3   OH243525   5.556   2.324  12.108  0.0749  0.7345 -0.1803
 7345TIP3    H143526   5.624   2.367  12.160  0.9261  0.4804 -1.0662
 7345TIP3    H243527   5.604   2.262  12.053 -0.9960 -0.2354 -0.0196
 7346TIP3   OH243528   1.913   2.247   0.256 -0.2338 -0.2956  0.1903
 7346TIP3    H143529   1.916   2.282   0.345  1.3843  0.7374 -0.2390
 7346TIP3    H243530   1.949   2.317   0.202  0.3366 -1.5320 -1.0689
 7347TIP3   OH243531   3.061   1.921   1.674  0.1309 -0.1322  0.3098
 7347TIP3    H143532   2.992   1.961   1.621  0.5831 -0.4667 -0.5334
 7347TIP3    H243533   3.016   1.856   1.728 -0.9802  2.8909  3.2449
 7348TIP3   OH243534   4.835   2.137   0.141  0.1715 -0.5015  0.4847
 7348TIP3    H143535   4.837   2.048   0.105  0.5955 -0.8962  1.4544
 7348TIP3    H243536   4.926   2.155   0.164  0.1500  0.3408 -0.0664
 7349TIP3   OH243537   0.978   5.684  14.889 -0.2673 -0.1716 -0.3803
 7349TIP3    H143538   1.022   5.630  14.955  0.5986 -0.3886 -1.1365
 7349TIP3    H243539   1.026   5.767  14.889 -0.4122 -0.0870 -0.5796
 7350TIP3   OH243540   5.045   0.547  13.894  0.0703 -0.6305  0.5809
 7350TIP3    H143541   5.025   0.528  13.986  1.4447 -1.1698  0.7823
 7350TIP3    H243542   5.077   0.637  13.895 -4.1792  0.9841 -0.0393
 7351TIP3   OH243543   3.289   4.061  16.906  0.0528 -0.1768  0.1856
 7351TIP3    H143544   3.256   4.151  16.906 -0.0867 -0.2050 -1.5078
 7351TIP3    H243545   3.278   4.031  16.996  0.4482  1.6255  0.8443
 7352TIP3   OH243546   1.984   6.614   1.979  0.0288  0.4951  0.2276
 7352TIP3    H143547   2.013   6.704   1.962  2.2638 -0.0531  0.9758
 7352TIP3    H243548   2.001   6.567   1.898 -0.6930  0.6295 -0.0052
 7353TIP3   OH243549   2.113   6.298   0.618 -0.2664  0.8473 -0.0627
 7353TIP3    H143550   2.182   6.363   0.602 -0.7372  1.1865 -0.7667
 7353TIP3    H243551   2.048   6.315   0.550 -0.4939 -0.2338 -0.1351
 7354TIP3   OH243552   6.716   6.627   5.424  0.1584  0.3286  0.3770
 7354TIP3    H143553   6.752   6.542   5.398  1.5709  1.0379  0.0284
 7354TIP3    H243554   6.630   6.605   5.462  1.3478 -1.4705  2.1527
 7355TIP3   OH243555   2.128   3.648  15.197  0.0116 -0.8310 -0.1396
 7355TIP3    H143556   2.063   3.718  15.203  0.7868 -0.0403 -0.8595
 7355TIP3    H243557   2.079   3.572  15.168 -0.5913 -0.2297 -0.7049
 7356TIP3   OH243558   0.047   5.177   1.641 -0.0210 -0.1788 -0.4720
 7356TIP3    H143559   0.125   5.142   1.599 -1.6744 -2.5072 -1.6580
 7356TIP3    H243560   0.051   5.145   1.731 -0.5534 -1.8733 -1.0439
 7357TIP3   OH243561   6.277   4.638   3.717  0.3426 -0.0439 -0.4169
 7357TIP3    H143562   6.198   4.670   3.673 -0.2833  1.1352  1.5526
 7357TIP3    H243563   6.246   4.569   3.775  0.8445  0.0547 -0.0300
 7358TIP3   OH243564   6.406   0.144   4.690 -0.3015 -0.0139 -0.1179
 7358TIP3    H143565   6.490   0.175   4.656 -0.5798 -1.9536 -2.7681
 7358TIP3    H243566   6.341   0.183   4.632 -1.0763 -0.3024  0.5449
 7359TIP3   OH243567   0.383   6.680  10.496  0.5096 -0.7079  0.5898
 7359TIP3    H143568   0.334   6.607  10.533  0.7957 -0.6722  1.0368
 7359TIP3    H243569   0.359   6.755  10.551 -2.2086  0.2178 -1.7440
 7360TIP3   OH243570   2.638   1.172  12.972  0.0493  0.6907  0.1911
 7360TIP3    H143571   2.632   1.139  13.061  1.0153  0.4855  0.1871
 7360TIP3    H243572   2.729   1.157  12.947 -0.3186  0.3416 -0.9854
 7361TIP3   OH243573   3.770   2.519   6.102 -0.0894 -0.2277  0.0867
 7361TIP3    H143574   3.803   2.564   6.024 -1.8652 -0.9119 -1.0811
 7361TIP3    H243575   3.717   2.584   6.147  0.8128  0.1210  0.6614
 7362TIP3   OH243576   6.220   3.856   4.920  0.4218  0.0563  0.0227
 7362TIP3    H143577   6.143   3.821   4.874  0.5063 -1.1959  0.7921
 7362TIP3    H243578   6.190   3.938   4.958 -0.4844 -0.3216  0.1411
 7363TIP3   OH243579   4.912   5.884   1.746 -0.4387 -0.1212 -0.6013
 7363TIP3    H143580   4.969   5.812   1.775  0.0893 -0.2408 -1.8895
 7363TIP3    H243581   4.889   5.930   1.827  1.3810 -0.1590 -0.0391
 7364TIP3   OH243582   3.864   2.672  15.473 -0.3709  0.4631  0.4693
 7364TIP3    H143583   3.855   2.668  15.378  0.9643  0.1438  0.3491
 7364TIP3    H243584   3.853   2.581  15.502  0.1177  0.4293  0.5422
 7365TIP3   OH243585   2.291   5.017  13.748 -0.3977 -0.0993 -0.7004
 7365TIP3    H143586   2.245   4.936  13.768 -1.9976  1.1616  0.8481
 7365TIP3    H243587   2.222   5.080  13.728  0.7095  1.4730  0.3100
 7366TIP3   OH243588   5.896   0.253  14.411 -0.1498 -0.0687 -0.3550
 7366TIP3    H143589   5.963   0.200  14.366  0.5358  0.2152  0.3265
 7366TIP3    H243590   5.844   0.290  14.340 -0.5994 -1.6168 -0.8459
 7367TIP3   OH243591   5.758   3.208  16.586 -0.5722  0.0770 -0.0250
 7367TIP3    H143592   5.711   3.132  16.619 -1.1419  0.2402 -0.4374
 7367TIP3    H243593   5.707   3.283  16.618 -0.0856  0.2778  0.2756
 7368TIP3   OH243594   1.686   5.072   0.757  0.4811 -0.3540  0.0133
 7368TIP3    H143595   1.773   5.110   0.769 -0.7048  2.4015  0.2274
 7368TIP3    H243596   1.681   5.002   0.821  0.7964  2.6267  3.4698
 7369TIP3   OH243597   2.584   3.914   2.314  0.2187  0.4988 -0.1455
 7369TIP3    H143598   2.531   3.836   2.296  0.2742  0.7050 -1.2341
 7369TIP3    H243599   2.560   3.939   2.403 -0.6703 -0.0715 -0.2161
 7370TIP3   OH243600   0.497   2.770  12.529  0.7770 -0.5213  0.2209
 7370TIP3    H143601   0.475   2.863  12.535  1.4577 -0.3359 -0.1306
 7370TIP3    H243602   0.414   2.727  12.506  0.6907  0.1231 -0.6913
 7371TIP3   OH243603   2.938   4.192   4.367  0.4571  0.5166  0.7971
 7371TIP3    H143604   2.956   4.277   4.406 -1.4693  1.6034 -0.6247
 7371TIP3    H243605   2.983   4.194   4.283 -0.2383  0.4401  0.4203
 7372TIP3   OH243606   3.355   1.161   1.608  0.3437  0.4193 -0.3689
 7372TIP3    H143607   3.424   1.181   1.670  0.3224  0.5599 -0.3906
 7372TIP3    H243608   3.341   1.066   1.617  1.4280  0.1583 -1.2847
 7373TIP3   OH243609   2.727   0.185  10.940  0.1651 -0.3890 -0.3649
 7373TIP3    H143610   2.786   0.205  10.867  0.2367 -1.9655 -0.7662
 7373TIP3    H243611   2.757   0.242  11.011  1.2821 -0.1640 -1.0031
 7374TIP3   OH243612   0.820   4.621  10.940  0.0053  0.3693  0.1556
 7374TIP3    H143613   0.774   4.561  10.999 -1.2187  0.9332 -0.2243
 7374TIP3    H243614   0.844   4.567  10.864  1.4812 -0.3279  1.0902
 7375TIP3   OH243615   1.014   1.350  13.406  0.3582 -0.6212  0.1281
 7375TIP3    H143616   1.050   1.364  13.319 -1.1616 -2.0527 -0.7642
 7375TIP3    H243617   0.953   1.277  13.396 -0.1462 -0.5586  2.3082
 7376TIP3   OH243618   6.629   3.422   5.470  0.0664 -0.5589 -0.0233
 7376TIP3    H143619   6.677   3.397   5.391 -0.8908 -0.8418 -0.5278
 7376TIP3    H243620   6.537   3.401   5.450 -0.4865  1.4638  0.3312
 7377TIP3   OH243621   6.469   1.471  13.180 -0.8285  0.2110 -0.4108
 7377TIP3    H143622   6.436   1.520  13.105 -1.0482  0.6426 -0.0312
 7377TIP3    H243623   6.524   1.402  13.141 -2.1068 -0.4790 -1.0495
 7378TIP3   OH243624   2.317   2.426   2.425  0.2856 -0.0979  0.6673
 7378TIP3    H143625   2.389   2.362   2.424  0.0399 -0.4493  2.6756
 7378TIP3    H243626   2.267   2.404   2.504  0.3285  2.7050  1.5234
 7379TIP3   OH243627   4.420   0.428   5.856  0.0740  0.3966  0.4108
 7379TIP3    H143628   4.339   0.450   5.811 -0.1931  0.1761  0.7851
 7379TIP3    H243629   4.408   0.462   5.945  0.7434  1.1570  0.2189
 7380TIP3   OH243630   4.374   4.675  16.486  1.0556  0.2880 -0.0542
 7380TIP3    H143631   4.347   4.653  16.397  0.4843  0.1561  0.1537
 7380TIP3    H243632   4.443   4.741  16.474 -1.3920  2.8751 -0.5315
 7381TIP3   OH243633   2.608   5.122  11.562  0.0057  0.7361 -0.1733
 7381TIP3    H143634   2.653   5.067  11.626  2.9887  0.0116 -2.7965
 7381TIP3    H243635   2.555   5.060  11.511 -0.9764  1.0778  0.4164
 7382TIP3   OH243636   1.777   2.832  12.188 -0.1185 -0.3861 -0.0994
 7382TIP3    H143637   1.754   2.891  12.259  0.5865  0.1376 -0.3123
 7382TIP3    H243638   1.773   2.886  12.109 -0.4090 -0.8452 -0.4064
 7383TIP3   OH243639   6.440   1.957   4.349 -0.2010 -0.4578 -0.1194
 7383TIP3    H143640   6.383   1.902   4.404  0.3679  0.7666  1.7455
 7383TIP3    H243641   6.525   1.956   4.393  0.3625  0.2827 -1.1631
 7384TIP3   OH243642   5.601   1.394   0.629 -0.0084 -0.0376 -0.3442
 7384TIP3    H143643   5.610   1.352   0.544  0.5236  0.6672 -0.6395
 7384TIP3    H243644   5.529   1.347   0.671  0.2663 -0.9253 -0.8522
 7385TIP3   OH243645   6.631   2.040   3.367 -0.5939  0.5745 -0.7378
 7385TIP3    H143646   6.682   2.083   3.435 -1.1743  1.1730 -0.6757
 7385TIP3    H243647   6.588   2.111   3.319 -0.9019  0.1133 -1.1627
 7386TIP3   OH243648   3.077   6.505  12.660  1.1581  0.3905  0.1391
 7386TIP3    H143649   3.113   6.594  12.664  0.7424  0.5532  0.2380
 7386TIP3    H243650   3.105   6.464  12.741  0.7865  0.6463  0.4001
 7387TIP3   OH243651   4.966   5.564   3.074  0.3046 -0.3076  0.2854
 7387TIP3    H143652   5.010   5.646   3.096  0.2678 -0.7378  1.9804
 7387TIP3    H243653   4.904   5.588   3.005 -0.4262  1.2978  1.4746
 7388TIP3   OH243654   1.792   1.619  12.509 -0.3105  0.0243  0.0203
 7388TIP3    H143655   1.743   1.636  12.589 -1.2851  3.0042 -1.1415
 7388TIP3    H243656   1.875   1.665  12.521 -0.5118  0.5902 -0.7082
 7389TIP3   OH243657   3.357   4.171  15.174  0.1470  0.2365  0.6192
 7389TIP3    H143658   3.307   4.096  15.142  2.2895 -1.1905  0.5626
 7389TIP3    H243659   3.297   4.245  15.164 -1.8883 -1.4025  0.3955
 7390TIP3   OH243660   1.299   3.277  11.854  0.7714 -0.1654  0.4649
 7390TIP3    H143661   1.234   3.330  11.900  0.6014 -0.7040  0.8523
 7390TIP3    H243662   1.287   3.189  11.888  0.3050 -0.6786 -0.9701
 7391TIP3   OH243663   5.814   3.864  17.059 -0.3034  0.6143 -0.0755
 7391TIP3    H143664   5.882   3.892  17.119  1.0068  1.3952 -1.9066
 7391TIP3    H243665   5.836   3.904  16.975 -2.4593  0.0795 -0.9483
 7392TIP3   OH243666   1.653   3.706  14.896 -0.0648  0.5408  0.8760
 7392TIP3    H143667   1.655   3.618  14.934  1.0034  0.7164  1.2505
 7392TIP3    H243668   1.624   3.693  14.806  0.0079 -0.1927  0.9568
 7393TIP3   OH243669   6.157   0.396   6.841  0.1146  0.1941 -0.0014
 7393TIP3    H143670   6.123   0.453   6.911 -1.7710 -1.0905  0.1810
 7393TIP3    H243671   6.149   0.308   6.877  1.1731 -0.3280 -1.0348
 7394TIP3   OH243672   1.260   1.719  14.348  0.2261  0.2638  0.2943
 7394TIP3    H143673   1.293   1.712  14.259  0.9258  0.9920  0.4907
 7394TIP3    H243674   1.244   1.629  14.375 -0.6869  0.0786 -0.8194
 7395TIP3   OH243675   1.727   3.396  14.370  0.3315 -0.5089 -0.0671
 7395TIP3    H143676   1.779   3.467  14.333 -0.8515 -0.7248 -2.2169
 7395TIP3    H243677   1.642   3.436  14.389  0.5283 -0.7054  1.2413
 7396TIP3   OH243678   4.151   2.923   1.134 -0.1491  0.0135 -0.7688
 7396TIP3    H143679   4.167   2.828   1.136 -1.1394 -0.1318  0.8027
 7396TIP3    H243680   4.237   2.962   1.148  0.2157 -0.6474 -1.1260
 7397TIP3   OH243681   2.284   3.795  14.572  0.0668 -0.0658  0.4786
 7397TIP3    H143682   2.195   3.779  14.604  0.2049 -1.7199  0.0544
 7397TIP3    H243683   2.272   3.823  14.482 -0.1524  2.1219  1.1369
 7398TIP3   OH243684   1.466   0.163  13.802  0.3579  0.3188  0.0622
 7398TIP3    H143685   1.404   0.179  13.873  0.0087  0.0560 -0.1821
 7398TIP3    H243686   1.451   0.072  13.777 -0.0795  0.6529 -0.8937
 7399TIP3   OH243687   4.566   0.652  14.391  0.3247  0.2368  0.5342
 7399TIP3    H143688   4.476   0.676  14.414 -1.0528 -0.0476 -4.0941
 7399TIP3    H243689   4.566   0.556  14.394  0.3290  0.2213  0.0235
 7400TIP3   OH243690   1.068   4.250  12.221  0.2539 -0.0771  0.6580
 7400TIP3    H143691   1.039   4.338  12.198  2.2076  0.4178  0.0018
 7400TIP3    H243692   1.103   4.214  12.140  1.2871 -0.7198  1.3817
 7401TIP3   OH243693   6.447   1.313   5.516  0.4992 -0.5655  0.0925
 7401TIP3    H143694   6.541   1.297   5.516  0.7744  0.9663 -0.9777
 7401TIP3    H243695   6.430   1.358   5.434 -0.7065  1.8312  1.5895
 7402TIP3   OH243696   3.505   5.104  16.139  0.3577 -0.2441  0.4299
 7402TIP3    H143697   3.542   5.046  16.073  2.1848  0.6563  0.6478
 7402TIP3    H243698   3.578   5.159  16.167 -0.2606 -0.9109  3.5514
 7403TIP3   OH243699   0.728   0.707   0.788  0.2068 -0.2445 -0.9196
 7403TIP3    H143700   0.785   0.635   0.762 -0.7865 -1.0374 -0.9386
 7403TIP3    H243701   0.669   0.668   0.853 -0.0838  0.6496 -0.6412
 7404TIP3   OH243702   4.035   0.935   2.127  0.0670 -0.1685  0.1551
 7404TIP3    H143703   4.029   0.883   2.047 -2.2999 -0.5613  0.5480
 7404TIP3    H243704   4.054   0.871   2.196 -0.7906 -0.2316  0.3337
 7405TIP3   OH243705   3.426   1.477   5.153  0.2139 -0.4494  0.7285
 7405TIP3    H143706   3.359   1.472   5.084  0.2501  2.1933  0.4515
 7405TIP3    H243707   3.385   1.437   5.229 -0.0924 -2.7742 -0.5802
 7406TIP3   OH243708   3.452   4.656   0.782 -0.4732 -0.4810  0.2027
 7406TIP3    H143709   3.482   4.566   0.774 -0.9691 -0.5992 -0.3432
 7406TIP3    H243710   3.423   4.680   0.694 -0.3741  0.2003  0.3496
 7407TIP3   OH243711   6.136   1.554  12.813  0.3768 -0.7949 -0.2209
 7407TIP3    H143712   6.055   1.587  12.774  2.0967  1.0903 -2.3117
 7407TIP3    H243713   6.165   1.484  12.755  0.7929 -0.7627 -0.0552
 7408TIP3   OH243714   0.679   3.728   2.524 -0.0896  0.0196 -0.5134
 7408TIP3    H143715   0.702   3.742   2.432  0.1193 -0.0738 -0.4751
 7408TIP3    H243716   0.584   3.740   2.527 -0.3719 -1.8388 -1.0908
 7409TIP3   OH243717   5.147   2.391  14.382  0.4762  0.4234 -0.2506
 7409TIP3    H143718   5.238   2.375  14.405  0.5602 -3.0325 -2.5493
 7409TIP3    H243719   5.098   2.374  14.463  1.6109 -0.9562  0.1592
 7410TIP3   OH243720   6.264   4.424  14.107 -0.3678  0.0889 -0.6242
 7410TIP3    H143721   6.343   4.441  14.159 -0.9002  1.5288 -0.2621
 7410TIP3    H243722   6.295   4.370  14.034  0.5311 -1.2935  0.7328
 7411TIP3   OH243723   3.127   1.922  16.268  0.1722 -0.3423  0.0150
 7411TIP3    H143724   3.065   1.874  16.324  0.5782 -0.6917  0.1676
 7411TIP3    H243725   3.212   1.909  16.310  0.2870  0.5221  0.0617
 7412TIP3   OH243726   2.898   3.351   2.446 -0.0908 -0.1236 -0.9171
 7412TIP3    H143727   2.823   3.404   2.419  1.6109  1.9498 -1.6507
 7412TIP3    H243728   2.958   3.413   2.486  0.8283 -1.9377  0.5629
 7413TIP3   OH243729   2.062   3.745   1.136  0.6962 -0.0050  0.6624
 7413TIP3    H143730   2.034   3.834   1.158 -3.7626 -1.4045  1.2986
 7413TIP3    H243731   2.106   3.713   1.215  1.3261  1.2378  0.8219
 7414TIP3   OH243732   4.412   2.035  11.952 -0.1972  0.1482  0.0480
 7414TIP3    H143733   4.446   2.109  12.001  0.6225 -1.4499  1.9639
 7414TIP3    H243734   4.489   1.983  11.929 -0.8857 -0.9075  0.0832
 7415TIP3   OH243735   5.222   2.767   0.228  0.3004 -0.2965 -0.0783
 7415TIP3    H143736   5.287   2.825   0.268  1.5019 -2.0345  0.5680
 7415TIP3    H243737   5.170   2.736   0.302  0.9506 -1.6024 -0.1601
 7416TIP3   OH243738   2.080   6.210  10.727  0.2229 -0.4046 -0.0218
 7416TIP3    H143739   2.032   6.223  10.645 -0.3344  0.8441  0.4970
 7416TIP3    H243740   2.158   6.161  10.701 -0.5119 -1.0268 -1.1256
 7417TIP3   OH243741   3.881   4.724  17.234  0.2247  0.1095 -0.2813
 7417TIP3    H143742   3.788   4.721  17.211  0.0823 -0.0764  0.3095
 7417TIP3    H243743   3.915   4.801  17.189 -0.3551  0.5423  0.0260
 7418TIP3   OH243744   0.001   4.305  15.135  0.2292  0.0239 -0.1296
 7418TIP3    H143745   0.011   4.297  15.041  2.2006  1.4143 -0.0706
 7418TIP3    H243746   0.085   4.339  15.166 -0.0237 -1.3746  2.2664
 7419TIP3   OH243747   2.003   0.042   3.788  0.3599 -0.7931  0.2348
 7419TIP3    H143748   1.975   0.122   3.831 -0.5317 -1.0941  0.2253
 7419TIP3    H243749   2.046  -0.009   3.857  0.5100 -0.5151  0.3467
 7420TIP3   OH243750   1.242   0.099   1.170 -0.5097 -0.7856 -0.3054
 7420TIP3    H143751   1.253   0.029   1.235  1.3007 -0.0967  0.1610
 7420TIP3    H243752   1.297   0.073   1.097 -0.5052 -0.2601 -0.4918
 7421TIP3   OH243753   2.740   0.820  15.296 -0.1245  0.3297 -0.4254
 7421TIP3    H143754   2.746   0.864  15.380  0.9573 -0.1882 -0.2270
 7421TIP3    H243755   2.769   0.731  15.313 -3.1042 -0.7416 -0.6381
 7422TIP3   OH243756   0.155   6.326   0.608  0.6363 -0.2028 -0.0129
 7422TIP3    H143757   0.247   6.300   0.607  0.5812 -0.3941 -0.3741
 7422TIP3    H243758   0.153   6.410   0.564  0.5962 -0.3440 -0.2798
 7423TIP3   OH243759   4.885   3.131   0.159  0.0712 -0.2253 -0.3619
 7423TIP3    H143760   4.893   3.038   0.135 -0.1754 -0.3678  0.0924
 7423TIP3    H243761   4.901   3.178   0.078 -0.4483 -0.6855 -0.7422
 7424TIP3   OH243762   4.516   3.056   4.325  0.4611 -0.4347  0.0894
 7424TIP3    H143763   4.593   3.047   4.269 -0.6801 -0.3177 -1.5478
 7424TIP3    H243764   4.509   3.150   4.340 -0.7915 -0.1847 -1.8725
 7425TIP3   OH243765   2.000   0.435   1.071  0.0980  0.4499 -0.4132
 7425TIP3    H143766   1.930   0.447   1.008 -0.1927 -0.5372 -0.2841
 7425TIP3    H243767   1.964   0.465   1.154 -0.7127 -1.5057 -0.0412
 7426TIP3   OH243768   6.404   2.152  14.798 -0.3296  0.0648 -0.5300
 7426TIP3    H143769   6.439   2.093  14.731 -1.1207 -0.1202 -0.7930
 7426TIP3    H243770   6.321   2.183  14.761  0.1059  1.3791 -0.4110
 7427TIP3   OH243771   3.148   0.889  13.232 -0.1326  0.0386  0.4357
 7427TIP3    H143772   3.165   0.982  13.214 -1.4793  0.6382  2.1514
 7427TIP3    H243773   3.154   0.881  13.327 -2.9576 -1.0119  0.5722
 7428TIP3   OH243774   6.358   3.011  11.058 -0.3600  0.2162  0.4420
 7428TIP3    H143775   6.263   3.027  11.057 -0.6527 -1.4255 -0.0350
 7428TIP3    H243776   6.379   2.990  10.967 -0.1237 -2.5991  1.1230
 7429TIP3   OH243777   5.330   6.436  14.081  0.1710 -0.3942 -0.1683
 7429TIP3    H143778   5.414   6.421  14.124 -0.7435 -0.5402  1.6282
 7429TIP3    H243779   5.352   6.479  13.999  1.9435  0.4577  0.7244
 7430TIP3   OH243780   1.138   0.771   5.773 -0.2892 -0.4624 -0.1719
 7430TIP3    H143781   1.095   0.856   5.759 -0.6716 -0.2815  1.9260
 7430TIP3    H243782   1.087   0.710   5.720 -0.5338  0.4773 -1.0358
 7431TIP3   OH243783   3.070   5.461   2.188 -0.4909  0.0369  0.9806
 7431TIP3    H143784   3.140   5.491   2.246 -0.9356 -1.3262  2.2477
 7431TIP3    H243785   3.031   5.541   2.154  1.6354  0.8327  0.2870
 7432TIP3   OH243786   4.474   3.449  17.062 -0.1485  0.7117  0.0800
 7432TIP3    H143787   4.502   3.389  16.993  1.0790  0.1773  1.0102
 7432TIP3    H243788   4.510   3.534  17.036  2.1855  0.0871  1.1218
 7433TIP3   OH243789   4.571   4.440   5.807  0.3342  0.1242 -0.7709
 7433TIP3    H143790   4.655   4.414   5.770 -0.1461 -0.2020 -1.6507
 7433TIP3    H243791   4.572   4.404   5.896 -0.3493 -3.0948 -1.9861
 7434TIP3   OH243792   4.001   2.668  13.071 -0.7016 -0.1376  0.4312
 7434TIP3    H143793   4.074   2.728  13.086  0.2809 -1.0874 -0.4292
 7434TIP3    H243794   3.972   2.687  12.982  0.0365 -1.3516 -0.0899
 7435TIP3   OH243795   6.355   2.927   3.868  0.5828 -0.5651 -0.1830
 7435TIP3    H143796   6.308   2.878   3.935 -0.7820  0.6527 -0.2501
 7435TIP3    H243797   6.445   2.933   3.902  0.0896 -0.6375  1.1601
 7436TIP3   OH243798   2.881   0.492   5.015  0.3812 -0.1010 -0.0120
 7436TIP3    H143799   2.925   0.432   4.955  0.0722  0.6810 -1.0402
 7436TIP3    H243800   2.790   0.493   4.986  0.2175  0.2144  0.5185
 7437TIP3   OH243801   1.085   6.718  14.466  0.7599 -0.1667  0.2604
 7437TIP3    H143802   1.066   6.698  14.558  2.6028 -0.1829  0.6535
 7437TIP3    H243803   1.090   6.814  14.463  0.3936 -0.1526  0.1148
 7438TIP3   OH243804   4.642   3.645   2.511 -0.1445  0.1302 -0.0730
 7438TIP3    H143805   4.549   3.666   2.515  0.1127  2.3307 -3.1900
 7438TIP3    H243806   4.663   3.649   2.418  2.8674 -1.3612  0.4748
 7439TIP3   OH243807   3.404   1.731  11.658  0.0763  0.3523 -0.6206
 7439TIP3    H143808   3.455   1.811  11.665 -0.3304  0.4831  1.0079
 7439TIP3    H243809   3.319   1.753  11.695  0.3849 -1.1954  1.0860
 7440TIP3   OH243810   0.359   4.906   1.832 -0.1430  0.9830  0.4649
 7440TIP3    H143811   0.422   4.888   1.901 -1.2543 -1.5795  0.8730
 7440TIP3    H243812   0.412   4.939   1.759  1.3131  1.4420  1.7137
 7441TIP3   OH243813   4.203   4.113  16.492  0.6152  0.0077  0.0015
 7441TIP3    H143814   4.163   4.163  16.562 -0.0939 -0.3606 -0.1327
 7441TIP3    H243815   4.269   4.172  16.454  2.0824 -0.3321  1.9483
 7442TIP3   OH243816   3.515   6.203  14.907 -0.2897  0.4909 -0.7353
 7442TIP3    H143817   3.521   6.144  14.832 -0.8186  1.3092 -1.4284
 7442TIP3    H243818   3.469   6.152  14.973  1.4263 -0.7395 -0.4435
 7443TIP3   OH243819   4.831   1.049  14.429 -0.0158 -0.7585 -0.0425
 7443TIP3    H143820   4.755   1.053  14.370  0.7425  0.5209 -0.9736
 7443TIP3    H243821   4.906   1.065  14.372  0.8045 -0.2890  1.1566
 7444TIP3   OH243822   2.485   5.965   2.237 -0.1913 -0.0134  0.4822
 7444TIP3    H143823   2.448   6.048   2.269 -2.3798  0.2471 -2.4357
 7444TIP3    H243824   2.410   5.907   2.231  0.8486 -1.2955 -0.2596
 7445TIP3   OH243825   3.629   5.745   3.949  0.4350 -0.0059  0.7940
 7445TIP3    H143826   3.684   5.816   3.915  2.3331 -1.3500  1.0210
 7445TIP3    H243827   3.583   5.712   3.871 -1.2966  2.1143  0.8369
 7446TIP3   OH243828   5.822   0.193   5.755 -0.2813 -0.0429  0.1669
 7446TIP3    H143829   5.811   0.106   5.715 -1.6281 -0.0946  0.6250
 7446TIP3    H243830   5.888   0.236   5.701  1.1551 -1.7268  0.5500
 7447TIP3   OH243831   6.057   2.480  16.829  0.0001 -0.2156 -0.0591
 7447TIP3    H143832   6.080   2.479  16.736  0.9844 -0.2342  0.1737
 7447TIP3    H243833   5.976   2.431  16.835  0.0905 -0.4640 -0.8760
 7448TIP3   OH243834   3.726   4.523  16.321 -0.1600 -0.3659  0.1465
 7448TIP3    H143835   3.663   4.565  16.380  0.6020  0.8084  0.1425
 7448TIP3    H243836   3.687   4.438  16.301 -1.1235 -0.1814  1.1759
 7449TIP3   OH243837   3.222   3.945   5.118  0.0506 -0.7148  0.3222
 7449TIP3    H143838   3.315   3.934   5.101 -0.0639 -2.3175  0.5902
 7449TIP3    H243839   3.179   3.891   5.052 -0.6825 -0.1349  0.3164
 7450TIP3   OH243840   0.292   1.692  12.349 -0.4776 -0.4238  0.2392
 7450TIP3    H143841   0.345   1.614  12.335 -0.3885 -0.3611  0.2258
 7450TIP3    H243842   0.355   1.764  12.354 -0.6757 -0.1270 -1.4433
 7451TIP3   OH243843   1.091   3.023   0.699  0.3105  0.1024  0.1353
 7451TIP3    H143844   1.123   3.092   0.756  1.5379  0.7473 -1.3114
 7451TIP3    H243845   1.117   3.050   0.611 -1.2785 -1.0223 -0.7122
 7452TIP3   OH243846   6.617   0.824   0.968  0.9224  0.1365 -0.2981
 7452TIP3    H143847   6.690   0.858   0.917 -0.4229 -0.0773 -2.4015
 7452TIP3    H243848   6.563   0.901   0.987  1.6276  0.2834  1.1969
 7453TIP3   OH243849   6.501   6.262  11.732 -0.0220 -0.0587 -0.1843
 7453TIP3    H143850   6.429   6.311  11.691 -1.3150 -1.7526  0.0125
 7453TIP3    H243851   6.539   6.324  11.794 -1.6403  0.7135  0.0899
 7454TIP3   OH243852   1.520   5.641  15.070  0.0848  0.0516 -0.1826
 7454TIP3    H143853   1.551   5.552  15.087 -1.2131 -0.8036 -2.1511
 7454TIP3    H243854   1.531   5.653  14.976 -0.3437  1.7440 -0.0253
 7455TIP3   OH243855   1.226   3.079  10.748  0.2170 -0.3876  1.0403
 7455TIP3    H143856   1.225   3.044  10.659  2.4589  0.2999  0.7174
 7455TIP3    H243857   1.208   3.173  10.737  0.9060 -0.2272  1.2596
 7456TIP3   OH243858   1.123   5.408   5.416 -0.1051 -0.0128 -0.4714
 7456TIP3    H143859   1.119   5.340   5.482 -0.7641 -0.8549 -1.3722
 7456TIP3    H243860   1.203   5.389   5.367 -1.4789 -1.5191 -2.1844
 7457TIP3   OH243861   5.888   1.402  13.819  0.1240 -0.8530 -0.1875
 7457TIP3    H143862   5.971   1.383  13.863  0.5815 -0.0283 -0.6997
 7457TIP3    H243863   5.825   1.345  13.863  0.9912 -1.6318  0.0793
 7458TIP3   OH243864   6.255   6.509  12.337  0.4306 -0.4371 -0.0715
 7458TIP3    H143865   6.192   6.437  12.337 -0.3578  0.2454  0.9265
 7458TIP3    H243866   6.213   6.577  12.389  1.8056  0.2006  0.2017
 7459TIP3   OH243867   5.289   4.203   2.911  0.3067 -0.1524 -0.9762
 7459TIP3    H143868   5.256   4.181   2.824 -1.4230 -1.2552 -0.0592
 7459TIP3    H243869   5.360   4.141   2.926  1.2082  0.6251 -1.9530
 7460TIP3   OH243870   3.580   6.154   1.981  0.0120  0.0479  0.2968
 7460TIP3    H143871   3.508   6.101   1.946  1.4331 -0.1804 -2.4345
 7460TIP3    H243872   3.578   6.234   1.928  3.5297 -1.1818 -1.9010
 7461TIP3   OH243873   4.402   4.950   5.542  0.2518 -0.6201 -0.1222
 7461TIP3    H143874   4.416   4.992   5.627  0.3742 -2.3208  0.7244
 7461TIP3    H243875   4.347   5.012   5.494  0.3160  0.4451  1.1278
 7462TIP3   OH243876   6.606   4.073   4.329  0.3936 -0.2290 -0.0733
 7462TIP3    H143877   6.566   3.986   4.325  0.0640 -0.1440  1.1907
 7462TIP3    H243878   6.538   4.129   4.366  1.1910  0.2111  0.7387
 7463TIP3   OH243879   0.472   0.174   2.284 -0.4823  0.7766  0.0742
 7463TIP3    H143880   0.395   0.219   2.248 -1.3201  1.6835  2.9159
 7463TIP3    H243881   0.530   0.245   2.312  1.2705  0.0964 -1.6954
 7464TIP3   OH243882   2.615   2.730   4.160  0.2253  0.1737  0.1151
 7464TIP3    H143883   2.600   2.654   4.217 -1.1115  0.2827 -0.0938
 7464TIP3    H243884   2.583   2.805   4.211  0.6201  0.4791 -0.0872
 7465TIP3   OH243885   6.039   2.317  16.024  0.0171 -0.2505 -0.8492
 7465TIP3    H143886   6.094   2.276  15.956 -1.5408 -1.4305 -1.4201
 7465TIP3    H243887   6.032   2.250  16.092  1.3083  0.8159  0.3629
 7466TIP3   OH243888   3.793   6.302   0.533 -0.0579 -0.5399 -0.2391
 7466TIP3    H143889   3.829   6.341   0.613 -3.9952  0.7131  1.0018
 7466TIP3    H243890   3.798   6.372   0.468 -0.7581 -0.1982  0.0761
 7467TIP3   OH243891   4.069   0.018  14.467  0.5662 -0.1386 -0.1080
 7467TIP3    H143892   4.136   0.045  14.404  0.2723  0.1361 -0.3056
 7467TIP3    H243893   3.987   0.050  14.430  0.3481 -0.3061  0.2277
 7468TIP3   OH243894   3.173   5.567   3.858  0.2665  0.3154 -0.0340
 7468TIP3    H143895   3.246   5.572   3.796 -0.9161 -0.7000 -1.5744
 7468TIP3    H243896   3.133   5.482   3.840 -2.4443  1.6509 -0.5622
 7469TIP3   OH243897   4.403   3.583   0.679 -0.0220  0.3231 -0.0482
 7469TIP3    H143898   4.476   3.583   0.741 -0.0892 -1.1724  0.0623
 7469TIP3    H243899   4.398   3.673   0.646 -0.2247  1.2333  2.3840
 7470TIP3   OH243900   0.012   3.286   0.679  0.2051  0.0362  0.2561
 7470TIP3    H143901   0.071   3.216   0.705 -0.2059  0.6598  3.0129
 7470TIP3    H243902  -0.075   3.247   0.685  0.0228  0.5675  1.0871
 7471TIP3   OH243903   3.165   1.046   2.394  0.6439 -0.5668 -0.0766
 7471TIP3    H143904   3.233   1.008   2.448  0.7554  0.6448  0.6642
 7471TIP3    H243905   3.083   1.018   2.434  0.7246  0.8316  1.1207
 7472TIP3   OH243906   4.802   3.611   1.060 -0.7638  0.2243  0.0701
 7472TIP3    H143907   4.896   3.627   1.046 -0.3131 -1.7236  0.7429
 7472TIP3    H243908   4.768   3.696   1.089  0.8509  0.8770  0.1244
 7473TIP3   OH243909   2.599   4.976  15.953 -0.3673  0.0584 -0.4766
 7473TIP3    H143910   2.536   4.987  15.883  0.1639  2.2160 -0.6448
 7473TIP3    H243911   2.684   4.975  15.910  0.0106  2.1858  0.1927
 7474TIP3   OH243912   4.727   1.022   0.481 -0.2418  0.0454 -0.2413
 7474TIP3    H143913   4.717   0.995   0.573  0.7998  1.5519  0.3488
 7474TIP3    H243914   4.643   1.001   0.441 -1.6027  1.5598  1.6684
 7475TIP3   OH243915   6.359   4.745  11.978 -0.0716 -0.2205 -0.3395
 7475TIP3    H143916   6.297   4.736  12.051  1.9155  0.9344  1.5402
 7475TIP3    H243917   6.344   4.834  11.946  1.3872  0.4634  0.8551
 7476TIP3   OH243918   6.231   4.958   1.461  0.0143  0.1055 -0.1426
 7476TIP3    H143919   6.245   4.875   1.416 -1.1545 -0.4430  0.4930
 7476TIP3    H243920   6.296   5.017   1.424  1.8719 -1.5150  0.5060
 7477TIP3   OH243921   6.622   4.236   0.179 -0.5198 -0.3041  0.2915
 7477TIP3    H143922   6.705   4.193   0.196 -1.0148 -1.0715  0.7817
 7477TIP3    H243923   6.642   4.329   0.180  0.4572 -0.5059 -0.2514
 7478TIP3   OH243924   1.155   4.727   1.527 -0.4137  0.3035 -0.1561
 7478TIP3    H143925   1.189   4.784   1.596  2.0282 -0.3890 -0.7263
 7478TIP3    H243926   1.224   4.662   1.513 -1.1061  0.0624 -2.8231
 7479TIP3   OH243927   5.034   5.917   0.264  0.0908 -0.6072 -0.7298
 7479TIP3    H143928   5.090   5.990   0.289  1.0359 -0.8839 -2.0125
 7479TIP3    H243929   4.964   5.917   0.329  0.1039  1.4085 -0.6962
 7480TIP3   OH243930   4.057   5.968   4.953 -0.1512  0.0770  0.1475
 7480TIP3    H143931   4.008   5.886   4.946 -1.6022  0.9751 -0.4778
 7480TIP3    H243932   4.019   6.013   5.029 -0.6381  0.9709 -0.5991
 7481TIP3   OH243933   3.951   6.032  14.211 -0.2020 -0.3412  0.1945
 7481TIP3    H143934   3.904   6.012  14.292  0.4661 -0.2927  0.6030
 7481TIP3    H243935   4.002   6.111  14.231  1.1077 -1.1676  0.2021
 7482TIP3   OH243936   2.205   5.459  11.601  0.0899 -0.1393  0.0715
 7482TIP3    H143937   2.173   5.394  11.663 -1.4035 -0.0981 -0.6265
 7482TIP3    H243938   2.299   5.445  11.598 -0.0826 -1.5639  0.7449
 7483TIP3   OH243939   3.857   3.256   0.628  0.5091  0.3025  0.4265
 7483TIP3    H143940   3.791   3.195   0.661  0.9508 -1.4690 -1.8160
 7483TIP3    H243941   3.934   3.202   0.611  1.6460  1.8718  0.4646
 7484TIP3   OH243942   3.568   5.986   5.120  0.0527 -0.1247  0.4121
 7484TIP3    H143943   3.521   5.984   5.036  0.0412 -1.6921  0.4538
 7484TIP3    H243944   3.599   6.077   5.128  0.4763 -0.0946 -1.5073
 7485TIP3   OH243945   2.889   3.577  16.340  0.1175  0.2314  0.3103
 7485TIP3    H143946   2.962   3.607  16.394 -0.3370 -0.8674  1.5558
 7485TIP3    H243947   2.812   3.585  16.396 -0.2964 -1.3718 -0.0023
 7486TIP3   OH243948   1.234   3.727   3.864 -0.3019  0.5293  0.4187
 7486TIP3    H143949   1.221   3.743   3.957  1.1819  0.1648  0.7130
 7486TIP3    H243950   1.320   3.685   3.859 -0.0517  1.1750 -1.1776
 7487TIP3   OH243951   0.797   5.638  12.409  0.3597  0.4758 -1.0595
 7487TIP3    H143952   0.737   5.711  12.399  0.1072  0.4099 -0.1043
 7487TIP3    H243953   0.881   5.678  12.430 -0.0328  0.4667  0.6111
 7488TIP3   OH243954   3.492   4.493   3.490  0.4048  0.0841  0.1887
 7488TIP3    H143955   3.439   4.500   3.570  0.5800  1.7714  0.1737
 7488TIP3    H243956   3.576   4.457   3.521  0.8706  1.7857  0.9688
 7489TIP3   OH243957   0.258   2.945  11.787  0.2280  0.5629  0.1900
 7489TIP3    H143958   0.350   2.924  11.769 -0.1898  1.3687 -3.2350
 7489TIP3    H243959   0.219   2.861  11.810  1.0335 -0.4818 -2.1178
 7490TIP3   OH243960   6.780   2.405  12.180  0.9080  0.3070  0.2852
 7490TIP3    H143961   6.703   2.351  12.199  1.3523 -0.8803 -1.1954
 7490TIP3    H243962   6.771   2.480  12.238 -1.0043 -0.1622  0.6415
 7491TIP3   OH243963   0.946   2.212  12.687  0.4079  0.1720 -0.4485
 7491TIP3    H143964   0.900   2.232  12.605  2.1880  1.8166 -1.0514
 7491TIP3    H243965   0.960   2.117  12.683  0.6171  0.2575 -2.1275
 7492TIP3   OH243966   2.674   2.526   4.461 -1.0369  0.6494  0.4528
 7492TIP3    H143967   2.581   2.516   4.443 -0.7861 -2.0408  0.4790
 7492TIP3    H243968   2.717   2.496   4.382 -0.1783  1.5617  0.5691
 7493TIP3   OH243969   3.755   0.563  12.117 -0.0359  0.1366  0.1476
 7493TIP3    H143970   3.768   0.482  12.167  2.1726  1.6050  2.0594
 7493TIP3    H243971   3.660   0.573  12.112 -0.3313 -1.9915  0.8413
 7494TIP3   OH243972   0.448   3.671  15.046  0.0072 -0.1399 -0.4679
 7494TIP3    H143973   0.459   3.594  14.990  0.0838 -1.5071  1.3433
 7494TIP3    H243974   0.463   3.637  15.135  0.1554  2.0052  0.3497
 7495TIP3   OH243975   1.883   5.836  11.396  0.0584  0.3502  0.1854
 7495TIP3    H143976   1.946   5.809  11.462  0.5629  1.6080  0.2251
 7495TIP3    H243977   1.910   5.925  11.371 -0.0629 -0.1266 -1.7659
 7496TIP3   OH243978   3.264   5.081   5.066  0.3926 -0.1252 -0.1024
 7496TIP3    H143979   3.352   5.107   5.040 -0.0183 -0.3862 -1.7957
 7496TIP3    H243980   3.206   5.124   5.003 -0.7056  0.0831  1.0205
 7497TIP3   OH243981   2.542   3.090   3.145 -0.4837 -0.1658  0.3132
 7497TIP3    H143982   2.620   3.075   3.093 -0.5351 -0.6998  0.3872
 7497TIP3    H243983   2.471   3.098   3.081 -0.5587 -0.8922  0.3031
 7498TIP3   OH243984   0.841   3.117  11.936 -0.2505 -0.5555  0.6604
 7498TIP3    H143985   0.861   3.167  11.857 -0.1884  0.3051  1.2138
 7498TIP3    H243986   0.848   3.180  12.007  1.5779 -1.7606  1.5757
 7499TIP3   OH243987   2.923   6.126   1.589  0.1412 -0.1500  0.3411
 7499TIP3    H143988   2.900   6.105   1.679 -1.1293  0.1933  0.1087
 7499TIP3    H243989   2.998   6.070   1.568 -2.3050 -3.4296  0.1573
 7500TIP3   OH243990   3.098   0.808  12.214 -0.3095  0.3499 -0.5304
 7500TIP3    H143991   3.091   0.730  12.160 -1.3125  0.4379 -0.5326
 7500TIP3    H243992   3.069   0.780  12.301 -1.1170  0.8183 -0.6369
 7501TIP3   OH243993   3.505   5.869   4.623 -0.3874 -0.2755 -0.0553
 7501TIP3    H143994   3.498   5.775   4.610 -2.0497 -0.0861 -0.7669
 7501TIP3    H243995   3.566   5.899   4.555  1.3883 -1.0271  1.1877
 7502TIP3   OH243996   4.604   2.801   4.815  0.1377 -0.4944  0.0369
 7502TIP3    H143997   4.591   2.707   4.827 -2.6514 -0.3105 -1.0754
 7502TIP3    H243998   4.699   2.812   4.814  0.5393 -3.4762 -1.1322
 7503TIP3   OH243999   3.278   3.762  14.189  0.4279 -0.2453  0.4319
 7503TIP3    H144000   3.327   3.843  14.179  1.3853 -0.7345  1.1523
 7503TIP3    H244001   3.344   3.694  14.202 -0.4000 -1.0098  0.7583
 7504TIP3   OH244002   4.976   2.097  11.821 -0.2367  0.0873  0.1486
 7504TIP3    H144003   4.910   2.162  11.844  0.0552  1.0660 -1.6910
 7504TIP3    H244004   4.932   2.038  11.760 -0.4948 -1.4679  1.7922
 7505TIP3   OH244005   5.898   3.317  12.139 -0.3476  0.1749 -0.7915
 7505TIP3    H144006   5.898   3.338  12.233 -1.2553  0.7652 -0.9131
 7505TIP3    H244007   5.852   3.391  12.099  0.0757 -0.0571 -1.7084
 7506TIP3   OH244008   3.286   5.201   4.741 -0.0292 -0.1164  0.3752
 7506TIP3    H144009   3.312   5.140   4.673 -0.5666  0.9883 -0.8408
 7506TIP3    H244010   3.191   5.207   4.733  0.2202  2.6243 -1.0576
 7507TIP3   OH244011   4.994   4.336   2.738  0.4089  0.2973  0.2333
 7507TIP3    H144012   4.940   4.412   2.716  0.6984  0.1802 -0.9511
 7507TIP3    H244013   5.078   4.372   2.764  0.7068  0.3828 -0.8062
 7508TIP3   OH244014   3.029   3.616  12.404 -0.6824  0.0578  0.5060
 7508TIP3    H144015   3.046   3.709  12.392  0.5103 -0.2479 -0.2247
 7508TIP3    H244016   3.045   3.601  12.498 -0.7040  0.5545  0.5897
 7509TIP3   OH244017   1.003   5.471  15.883  0.2658  0.6010 -0.0450
 7509TIP3    H144018   1.001   5.408  15.955 -2.3306  0.6443 -0.0446
 7509TIP3    H244019   0.951   5.431  15.814  1.6172  1.1618 -1.4218
 7510TIP3   OH244020   1.438   2.965   3.966  0.4649  0.0502  0.1770
 7510TIP3    H144021   1.508   2.998   4.023  0.6457 -2.7499  1.6747
 7510TIP3    H244022   1.359   2.971   4.019  0.6534 -2.6957  0.8643
 7511TIP3   OH244023   5.430   0.271  12.965 -0.6967 -0.8247 -0.1320
 7511TIP3    H144024   5.358   0.291  13.025  0.3486  0.0896  0.8333
 7511TIP3    H244025   5.437   0.349  12.910 -0.4561 -0.9210 -0.2346
 7512TIP3   OH244026   4.246   5.810   3.947 -0.3967 -0.0680  0.0444
 7512TIP3    H144027   4.256   5.715   3.946  2.2064  0.1621  0.0726
 7512TIP3    H244028   4.329   5.842   3.983 -2.0676  2.1237  2.0275
 7513TIP3   OH244029   0.359   5.114   5.553 -0.0069 -0.2406 -0.8027
 7513TIP3    H144030   0.448   5.146   5.570  0.5995 -0.8694 -2.6535
 7513TIP3    H244031   0.304   5.192   5.559  0.7961  0.3281 -0.6423
 7514TIP3   OH244032   3.121   0.917  11.893  0.1107  0.2762 -0.2569
 7514TIP3    H144033   3.109   0.837  11.843  0.8601  0.9284 -1.5283
 7514TIP3    H244034   3.112   0.987  11.828  0.9884  1.1467  0.5423
 7515TIP3   OH244035   0.985   6.527  11.075  0.3030 -0.1132  0.3725
 7515TIP3    H144036   1.045   6.480  11.133  1.4310  0.7284 -0.0837
 7515TIP3    H244037   1.003   6.492  10.988  1.9857  1.9156 -0.1527
 7516TIP3   OH244038   1.565   5.727  12.122 -1.0681 -0.2870 -0.4154
 7516TIP3    H144039   1.543   5.816  12.150  0.9584  0.1896 -0.3120
 7516TIP3    H244040   1.493   5.702  12.064 -2.8373  0.5363  1.3697
 7517TIP3   OH244041   4.381   4.721  11.846  0.0674 -0.4475  0.5726
 7517TIP3    H144042   4.458   4.665  11.856  1.1079  0.8460 -0.1450
 7517TIP3    H244043   4.370   4.763  11.932  1.8405  1.4894 -0.1129
 7518TIP3   OH244044   6.330   6.238  10.910  0.3290  0.6096  0.2153
 7518TIP3    H144045   6.416   6.275  10.891  0.2333  0.7982  0.1559
 7518TIP3    H244046   6.332   6.153  10.866  0.4155  0.6931  0.0543
 7519TIP3   OH244047   4.594   6.582   2.855  0.0943  0.2149  0.3375
 7519TIP3    H144048   4.661   6.595   2.922 -0.6057 -1.8207  1.4894
 7519TIP3    H244049   4.597   6.488   2.836 -0.6309  0.5450 -1.5140
 7520TIP3   OH244050   2.503   2.050   4.247  0.8979  0.2495 -0.0713
 7520TIP3    H144051   2.483   1.988   4.176  0.2597  1.2949 -0.8081
 7520TIP3    H244052   2.437   2.032   4.314  0.1566  0.7498 -0.6679
 7521TIP3   OH244053   2.092   0.296   6.392 -0.1116 -0.6173  0.7257
 7521TIP3    H144054   2.003   0.266   6.411  0.0467 -0.0821  2.3896
 7521TIP3    H244055   2.090   0.390   6.409 -0.6062  0.4541 -4.4546
 7522TIP3   OH244056   2.080   4.054  15.413  0.5040 -0.1551 -0.1218
 7522TIP3    H144057   2.064   4.123  15.349  0.8857  1.0798  1.1093
 7522TIP3    H244058   2.162   4.014  15.385 -0.5394 -1.2190 -1.7780
 7523TIP3   OH244059   2.235   1.037  12.936  0.2975  0.2265  0.0983
 7523TIP3    H144060   2.266   1.010  13.023 -0.2087 -1.0655 -0.1059
 7523TIP3    H244061   2.177   0.966  12.909  1.4769 -0.0104 -1.8529
 7524TIP3   OH244062   5.280   3.236   3.984  0.3706  0.5511 -0.0722
 7524TIP3    H144063   5.277   3.284   4.067  0.2854 -1.3550  1.0512
 7524TIP3    H244064   5.188   3.218   3.964  0.4304  0.3926 -0.2027
 7525TIP3   OH244065   6.398   1.990   1.150  0.0977 -0.2313 -0.3529
 7525TIP3    H144066   6.458   1.972   1.223  2.4463  0.8152 -1.9676
 7525TIP3    H244067   6.399   1.910   1.097 -1.3677 -0.8736  0.5309
 7526TIP3   OH244068   1.337   5.808   2.323 -0.0832 -0.4285 -0.6106
 7526TIP3    H144069   1.386   5.890   2.334 -1.2267  0.5153 -2.2983
 7526TIP3    H244070   1.357   5.758   2.402  0.2609  1.6816  0.6946
 7527TIP3   OH244071   2.195   2.149   5.106  0.9521 -0.4272 -0.3651
 7527TIP3    H144072   2.196   2.067   5.154  0.7440 -0.2012  0.0273
 7527TIP3    H244073   2.131   2.203   5.152  1.9818  0.3957  0.1340
 7528TIP3   OH244074   4.105   6.709  12.731  0.0958 -0.3626  0.2194
 7528TIP3    H144075   4.145   6.732  12.815  1.4200 -1.9360  0.0465
 7528TIP3    H244076   4.162   6.749  12.666 -1.8606  2.3053  0.0445
 7529TIP3   OH244077   5.358   0.312   4.261  0.0039 -0.3812 -0.1052
 7529TIP3    H144078   5.420   0.266   4.318  0.0451 -1.7305 -1.2142
 7529TIP3    H244079   5.353   0.257   4.182  0.1342  1.5620 -1.5047
 7530TIP3   OH244080   4.471   1.222   3.906  0.2651 -0.0623 -0.5602
 7530TIP3    H144081   4.541   1.282   3.930 -0.3540  0.4506 -0.0270
 7530TIP3    H244082   4.509   1.167   3.837  1.0076  0.5687 -0.6586
 7531TIP3   OH244083   3.883   1.641  16.588 -0.1218 -0.0914  0.2087
 7531TIP3    H144084   3.955   1.702  16.609  0.8748 -1.0181 -0.4513
 7531TIP3    H244085   3.815   1.662  16.652  1.1991 -0.0128  1.6278
 7532TIP3   OH244086   2.160   6.090   1.403  0.3870 -0.1877 -0.0547
 7532TIP3    H144087   2.213   6.032   1.348 -1.2497 -1.8241  0.0458
 7532TIP3    H244088   2.071   6.055   1.396 -0.3392  1.3126  1.3486
 7533TIP3   OH244089   2.442   4.908  17.236 -0.1052 -0.2560  0.0257
 7533TIP3    H144090   2.432   4.983  17.295  0.6085  1.3134 -1.8017
 7533TIP3    H244091   2.460   4.834  17.294  0.8589  1.2975  1.7545
 7534TIP3   OH244092   2.441   0.847  15.510 -0.3380  0.1344  0.3276
 7534TIP3    H144093   2.425   0.899  15.589  0.6277 -0.6373  1.0436
 7534TIP3    H244094   2.460   0.912  15.443  0.2484  0.7466  1.0730
 7535TIP3   OH244095   1.447   2.545  13.199 -0.3817 -0.2942 -0.4634
 7535TIP3    H144096   1.532   2.527  13.241 -1.3323 -0.6500  1.3463
 7535TIP3    H244097   1.457   2.510  13.110  0.7497 -2.0310  0.3117
 7536TIP3   OH244098   2.213   1.086  16.985 -0.5096  0.0886 -0.7430
 7536TIP3    H144099   2.196   1.035  17.064 -0.9585  1.2809 -0.0494
 7536TIP3    H244100   2.175   1.172  17.004  1.7221  1.2042 -1.2111
 7537TIP3   OH244101   2.793   6.752   1.985 -0.5252  0.5476  0.3055
 7537TIP3    H144102   2.709   6.792   1.961  0.8275  1.6492 -2.8196
 7537TIP3    H244103   2.853   6.826   1.996  0.5591 -0.3365  0.4225
 7538TIP3   OH244104   4.556   4.089   1.008 -0.5040  0.4387  0.2819
 7538TIP3    H144105   4.471   4.055   1.036  0.1582 -1.8750 -0.3726
 7538TIP3    H244106   4.538   4.135   0.926 -1.3488  1.2749  0.9308
 7539TIP3   OH244107   3.035   2.998  11.395  0.2371 -0.1884 -0.1172
 7539TIP3    H144108   3.121   2.984  11.357 -0.5365  1.9985 -2.8432
 7539TIP3    H244109   3.048   3.068  11.459  0.2918  1.0727 -1.4734
 7540TIP3   OH244110   2.052   3.585   5.857 -0.5553  0.2759  0.4688
 7540TIP3    H144111   2.122   3.614   5.799 -2.2383  1.8043 -0.8758
 7540TIP3    H244112   2.021   3.503   5.818  0.8568 -0.7180  1.4055
 7541TIP3   OH244113   5.536   1.494  13.945 -0.2122 -0.1331  0.1416
 7541TIP3    H144114   5.624   1.461  13.964  0.5777  0.8886 -1.6561
 7541TIP3    H244115   5.517   1.554  14.017  0.7121 -0.0834  0.3496
 7542TIP3   OH244116   3.715   5.232  15.939 -0.4290 -0.2556 -0.3533
 7542TIP3    H144117   3.726   5.315  15.893 -2.2573 -0.4627 -1.2207
 7542TIP3    H244118   3.790   5.227  15.998 -0.0213  1.7632 -0.6651
 7543TIP3   OH244119   5.521   4.248   3.153 -0.0318  0.5881 -0.3334
 7543TIP3    H144120   5.519   4.171   3.096  0.3269  1.6055 -1.7458
 7543TIP3    H244121   5.431   4.280   3.153 -0.3758 -0.3126  0.9652
 7544TIP3   OH244122   1.569   2.227   4.925 -0.1878 -0.0495  0.3179
 7544TIP3    H144123   1.522   2.310   4.909 -2.0806 -1.4207 -1.5178
 7544TIP3    H244124   1.503   2.170   4.964  0.6690 -1.2068  0.0874
 7545TIP3   OH244125   6.079   1.232   2.764 -0.1470 -0.5391 -0.0361
 7545TIP3    H144126   6.118   1.317   2.785 -0.4644 -0.8845  2.1132
 7545TIP3    H244127   6.154   1.172   2.759  0.1006 -0.1036 -1.8210
 7546TIP3   OH244128   0.195   4.339   5.352 -0.0436  0.3486  0.4045
 7546TIP3    H144129   0.238   4.254   5.364 -1.0635 -0.1498  0.5458
 7546TIP3    H244130   0.103   4.318   5.335 -0.0371  1.3568 -1.0291
 7547TIP3   OH244131   3.000   2.102  17.214 -0.3216 -0.4163  0.2265
 7547TIP3    H144132   2.976   2.190  17.185 -1.0245  0.1633  2.4395
 7547TIP3    H244133   3.094   2.107  17.230 -0.4141  0.0516  0.6665
 7548TIP3   OH244134   3.983   4.356  12.543  0.2606  0.0867  0.0332
 7548TIP3    H144135   4.029   4.437  12.564  0.1336  0.1005  0.2658
 7548TIP3    H244136   3.992   4.347  12.448 -0.3915  0.7817 -0.1022
 7549TIP3   OH244137   6.208   5.576   6.048 -0.4289 -0.2359 -0.4218
 7549TIP3    H144138   6.252   5.581   5.964 -0.1628  0.9618 -0.2128
 7549TIP3    H244139   6.278   5.574   6.113 -0.6545  1.1108 -0.1176
 7550TIP3   OH244140   4.371   5.541  15.489  0.4216 -0.5851  0.2292
 7550TIP3    H144141   4.419   5.564  15.569 -0.0525  0.6029  0.1816
 7550TIP3    H244142   4.436   5.549  15.419  0.2994  0.4527  0.2356
 7551TIP3   OH244143   3.746   1.228  14.780  0.2221  0.1511  0.2417
 7551TIP3    H144144   3.826   1.265  14.743  1.8295 -1.5146  1.9237
 7551TIP3    H244145   3.682   1.299  14.775  1.9949  1.7488 -0.4997
 7552TIP3   OH244146   6.457   6.282  16.815 -0.3536  0.7740 -0.4493
 7552TIP3    H144147   6.439   6.257  16.724 -1.3130  1.0818 -0.3495
 7552TIP3    H244148   6.547   6.314  16.813 -0.1004  0.0623 -1.1428
 7553TIP3   OH244149   3.536   1.383   4.119  0.9371 -0.0376  0.0277
 7553TIP3    H144150   3.494   1.424   4.195 -1.6021 -1.1325 -0.7383
 7553TIP3    H244151   3.516   1.442   4.046  3.1701  0.8911  0.1212
 7554TIP3   OH244152   2.062   0.593   5.566  0.5302 -0.3195 -0.6194
 7554TIP3    H144153   2.119   0.556   5.632 -0.3997  2.2721  1.7431
 7554TIP3    H244154   2.108   0.671   5.535 -0.5870  0.4222 -0.4662
 7555TIP3   OH244155   6.345   1.832   5.630  0.6938 -0.2322 -0.2842
 7555TIP3    H144156   6.342   1.863   5.720  1.4237 -0.4473 -0.1797
 7555TIP3    H244157   6.386   1.904   5.581  2.3902 -0.9997 -0.0405
 7556TIP3   OH244158   3.529   2.899  11.475  0.1593  0.3080 -0.2320
 7556TIP3    H144159   3.521   2.993  11.459 -2.1203  0.1468 -0.2855
 7556TIP3    H244160   3.523   2.891  11.570 -0.1177  0.1952 -0.2577
 7557TIP3   OH244161   6.079   1.382  17.117 -0.2044 -0.1658  0.1091
 7557TIP3    H144162   6.022   1.452  17.085 -1.2283 -1.2996 -0.5810
 7557TIP3    H244163   6.033   1.347  17.194  0.2567 -0.1601  0.3896
 7558TIP3   OH244164   4.343   6.804   5.671  0.3941 -0.8391 -0.5335
 7558TIP3    H144165   4.427   6.785   5.713 -0.4004 -1.3366  0.8651
 7558TIP3    H244166   4.294   6.854   5.735 -0.2507 -0.2224 -1.4871
 7559TIP3   OH244167   6.780   1.366  14.452  0.1993 -0.6736  0.2131
 7559TIP3    H144168   6.839   1.435  14.421 -0.8137  0.6153  1.1444
 7559TIP3    H244169   6.804   1.290  14.399  1.6093  0.2684 -0.5444
 7560TIP3   OH244170   5.708   5.410  16.132 -0.2005  0.8808 -0.0883
 7560TIP3    H144171   5.757   5.341  16.086 -0.6224 -0.7941  1.8986
 7560TIP3    H244172   5.639   5.435  16.071  0.7217  0.4344 -1.3302
 7561TIP3   OH244173   2.178   6.660  11.017  0.0095  0.5009  0.3399
 7561TIP3    H144174   2.141   6.735  11.064 -0.9675  1.6073 -2.1318
 7561TIP3    H244175   2.113   6.639  10.951  1.3700 -1.0084 -0.5441
 7562TIP3   OH244176   2.376   3.116   3.947 -0.3250  0.5416  0.0617
 7562TIP3    H144177   2.470   3.133   3.943 -0.7008  3.3359  1.5006
 7562TIP3    H244178   2.337   3.180   3.887 -1.2886 -0.7537 -0.7078
 7563TIP3   OH244179   3.010   0.890   4.279 -0.1454 -0.6130  0.0089
 7563TIP3    H144180   2.964   0.842   4.349 -2.3714 -0.5405 -1.3359
 7563TIP3    H244181   2.979   0.980   4.288 -1.1521 -0.7738 -1.5959
 7564TIP3   OH244182   3.668   6.264  13.414 -0.3056  0.3499  0.6864
 7564TIP3    H144183   3.668   6.341  13.472 -2.4339  0.8819  0.0390
 7564TIP3    H244184   3.577   6.255  13.387  0.2477 -1.3416 -0.6908
 7565TIP3   OH244185   5.894   4.045  15.551 -0.5292  0.1866  0.2870
 7565TIP3    H144186   5.855   3.964  15.583 -1.9038  0.5741 -0.3650
 7565TIP3    H244187   5.942   4.019  15.472 -1.9690  0.1907 -0.6087
 7566TIP3   OH244188   1.395   4.485   5.557 -0.2294  0.2497 -0.2616
 7566TIP3    H144189   1.418   4.493   5.464  0.8337  1.6472  0.1190
 7566TIP3    H244190   1.311   4.530   5.564 -0.7081 -0.5587 -0.6911
 7567TIP3   OH244191   5.729   5.418  14.233 -0.3529  0.1829  0.2271
 7567TIP3    H144192   5.703   5.447  14.320 -0.0838  1.2210 -0.0340
 7567TIP3    H244193   5.801   5.476  14.208 -0.3393 -0.1938 -0.6367
 7568TIP3   OH244194   3.738   4.792  12.200 -0.1853 -0.4318 -0.0088
 7568TIP3    H144195   3.819   4.776  12.151  0.7569 -0.6394  1.5584
 7568TIP3    H244196   3.765   4.849  12.272 -1.2277 -1.3124  1.1034
 7569TIP3   OH244197   4.736   3.959  11.807 -0.3199 -0.7233  0.4108
 7569TIP3    H144198   4.666   3.894  11.813 -0.9831  0.1183  2.1243
 7569TIP3    H244199   4.691   4.043  11.817  0.3221  0.1407 -3.2511
 7570TIP3   OH244200   4.757   0.881  16.659 -0.1333  0.1165  0.4084
 7570TIP3    H144201   4.802   0.951  16.706  3.3505  0.8629 -3.6505
 7570TIP3    H244202   4.704   0.927  16.594  0.6961 -0.9225 -1.0389
 7571TIP3   OH244203   2.935   3.505  11.940  0.4464 -0.0590 -0.0174
 7571TIP3    H144204   2.999   3.528  11.873  0.0575  0.4630 -0.2173
 7571TIP3    H244205   2.851   3.501  11.894 -0.2281  2.7580  0.8475
 7572TIP3   OH244206   4.237   0.050   4.985  0.0944 -0.7459 -0.3490
 7572TIP3    H144207   4.311  -0.009   4.995 -0.5282 -1.4406  0.2344
 7572TIP3    H244208   4.168   0.012   5.039 -0.7253 -0.1651 -0.9627
 7573TIP3   OH244209   2.215   1.514  13.443 -0.3756 -0.0350  0.1164
 7573TIP3    H144210   2.186   1.454  13.374  1.9890 -1.3728  0.1944
 7573TIP3    H244211   2.175   1.598  13.422 -2.8219 -1.3547 -0.6701
 7574TIP3   OH244212   5.033   3.357  11.087  0.7042 -0.0683  0.2429
 7574TIP3    H144213   5.004   3.301  11.015 -0.1825 -3.2026  2.8555
 7574TIP3    H244214   4.968   3.427  11.091  0.5443 -0.0839 -1.7253
 7575TIP3   OH244215   1.733   1.564  13.876  0.3235 -0.0652  0.4188
 7575TIP3    H144216   1.665   1.552  13.942 -0.3606  1.3207 -0.0198
 7575TIP3    H244217   1.796   1.623  13.918 -1.0362  2.3245 -0.7922
 7576TIP3   OH244218   2.810   5.582   0.412  0.1413  0.4475 -0.3913
 7576TIP3    H144219   2.759   5.603   0.490  0.8637 -1.6394  0.7019
 7576TIP3    H244220   2.746   5.582   0.341 -0.6941  1.4903  0.3421
 7577TIP3   OH244221   4.264   2.806   6.567  0.1351 -0.2475 -0.4786
 7577TIP3    H144222   4.325   2.762   6.508  0.0454 -0.1642 -0.6357
 7577TIP3    H244223   4.197   2.740   6.586  0.0420 -0.2060 -0.6521
 7578TIP3   OH244224   4.903   2.432   0.905 -0.4537 -0.2759 -0.5000
 7578TIP3    H144225   4.810   2.453   0.897 -0.5073  0.3174  1.4440
 7578TIP3    H244226   4.906   2.337   0.894 -1.3980 -0.3977  0.1639
 7579TIP3   OH244227   4.674   4.721  14.674 -0.3769 -0.4501 -0.2118
 7579TIP3    H144228   4.721   4.782  14.731 -1.2841  0.0991 -0.0377
 7579TIP3    H244229   4.645   4.775  14.600 -1.1482 -0.6756 -0.0759
 7580TIP3   OH244230   4.929   5.047   1.527 -0.3854  0.0774 -0.0498
 7580TIP3    H144231   4.885   4.967   1.557  0.2967 -0.8110 -1.3860
 7580TIP3    H244232   4.860   5.096   1.483  0.0468 -1.6020 -2.6998
 7581TIP3   OH244233   4.280   2.442  15.100  0.0815  0.1762  0.3162
 7581TIP3    H144234   4.253   2.489  15.178  1.2585 -0.6912  1.2815
 7581TIP3    H244235   4.376   2.446  15.102  0.1330 -0.3489 -0.7595
 7582TIP3   OH244236   5.531   6.729   4.444 -0.1206  0.1472  0.2326
 7582TIP3    H144237   5.457   6.723   4.383 -0.5393  1.1960  0.6175
 7582TIP3    H244238   5.526   6.649   4.496 -0.7660  0.0349  0.0029
 7583TIP3   OH244239   4.335   6.243  11.941  0.3658 -0.3754  0.4100
 7583TIP3    H144240   4.292   6.199  12.015  0.1371 -0.7478  0.0565
 7583TIP3    H244241   4.305   6.334  11.947 -2.7018 -1.2171 -1.4680
 7584TIP3   OH244242   0.341   4.506  13.407 -0.1741 -0.5487  0.5126
 7584TIP3    H144243   0.429   4.493  13.442  0.5008 -0.9181 -1.2429
 7584TIP3    H244244   0.297   4.562  13.471  1.0977 -0.9509  1.7582
 7585TIP3   OH244245   4.945   4.249  10.184 -0.2224 -0.1827  0.1768
 7585TIP3    H144246   4.951   4.160  10.147  0.8680 -0.8166  1.8322
 7585TIP3    H244247   5.036   4.272  10.204 -0.6788  0.6227  1.3493
 7586TIP3   OH244248   0.171   6.043  12.375 -0.5874 -0.1905  0.4050
 7586TIP3    H144249   0.262   6.053  12.346 -0.3785 -0.7082  0.8937
 7586TIP3    H244250   0.121   6.034  12.293 -0.0918 -0.8454  0.1682
 7587TIP3   OH244251   5.552   3.609  16.805 -0.4029  0.0889 -0.0115
 7587TIP3    H144252   5.516   3.666  16.873  0.4563  1.8423 -1.0021
 7587TIP3    H244253   5.631   3.654  16.774  1.7939 -2.9288  1.0100
 7588TIP3   OH244254   5.052   3.986   0.744  0.2780  0.0171  0.8574
 7588TIP3    H144255   5.095   3.905   0.715 -0.2247  0.1188 -0.2239
 7588TIP3    H244256   5.044   4.037   0.663 -2.3653 -0.2242  0.9311
 7589TIP3   OH244257   5.099   2.007   3.508  0.1945 -0.3444  0.5032
 7589TIP3    H144258   5.032   1.949   3.543  0.5920 -1.4178 -0.4805
 7589TIP3    H244259   5.163   1.948   3.468 -0.9341  0.8375 -3.2518
 7590TIP3   OH244260   2.621   2.927   3.946  0.4686  0.6997 -0.1724
 7590TIP3    H144261   2.667   2.943   3.864  0.3900  1.6892 -0.0387
 7590TIP3    H244262   2.634   2.834   3.964 -0.9663  0.0579 -2.2027
 7591TIP3   OH244263   5.033   0.251  16.029 -0.1502 -0.4485 -0.1279
 7591TIP3    H144264   5.072   0.333  16.059  1.6600 -1.0350 -0.8189
 7591TIP3    H244265   4.972   0.277  15.961 -0.0644  0.3784  0.1080
 7592TIP3   OH244266   5.717   2.307   3.862  0.1702 -0.1648 -0.0336
 7592TIP3    H144267   5.757   2.388   3.892  1.3370 -1.0462  0.8554
 7592TIP3    H244268   5.784   2.240   3.879 -1.1408 -1.4461  0.1367
 7593TIP3   OH244269   0.140   0.441   1.831 -0.6339  0.6121 -0.1978
 7593TIP3    H144270   0.165   0.462   1.741  1.3307  0.6555  0.3489
 7593TIP3    H244271   0.094   0.520   1.861  2.0358  2.1206  0.0793
 7594TIP3   OH244272   0.172   3.862   3.964  0.2049 -0.0001 -0.7196
 7594TIP3    H144273   0.213   3.799   3.905  0.9610  0.0376 -0.2418
 7594TIP3    H244274   0.181   3.823   4.051 -0.2680  0.2782 -0.5412
 7595TIP3   OH244275   2.414   6.151   1.832  0.2231  0.3450 -0.4925
 7595TIP3    H144276   2.336   6.115   1.790  0.2536 -0.9644  0.5401
 7595TIP3    H244277   2.460   6.197   1.761 -0.8591  0.0854 -1.3771
 7596TIP3   OH244278   4.954   2.285  16.977  0.2836 -0.0932  0.2775
 7596TIP3    H144279   4.991   2.318  17.058  1.4345  1.9219 -1.0332
 7596TIP3    H244280   4.860   2.302  16.985  0.7638  3.0733 -0.1059
 7597TIP3   OH244281   2.820   2.738  13.837 -0.1030 -0.7198  0.2057
 7597TIP3    H144282   2.825   2.808  13.902 -0.1765 -0.7682  0.2638
 7597TIP3    H244283   2.812   2.784  13.753 -0.5814 -0.6634  0.2831
 7598TIP3   OH244284   6.395   0.514  13.795  0.1308 -0.0317  0.2554
 7598TIP3    H144285   6.340   0.562  13.733  3.3649  3.2230 -0.2775
 7598TIP3    H244286   6.395   0.567  13.874  1.8081 -0.3909  0.5240
 7599TIP3   OH244287   1.167   6.096  14.008 -0.0621 -0.1189  0.1635
 7599TIP3    H144288   1.253   6.122  13.974 -0.4694  2.0112  0.7030
 7599TIP3    H244289   1.132   6.037  13.941  0.8108  0.9258 -1.2374
 7600TIP3   OH244290   6.131   4.747  14.648  0.5333 -0.0948 -0.4718
 7600TIP3    H144291   6.045   4.741  14.605  0.4108  0.1502 -0.2664
 7600TIP3    H244292   6.164   4.658  14.647 -0.9552 -0.7242  1.9088
 7601TIP3   OH244293   1.878   0.902   5.408 -0.1249  0.8835  0.3310
 7601TIP3    H144294   1.819   0.918   5.483  0.1754 -2.0310  1.2662
 7601TIP3    H244295   1.897   0.989   5.374  0.4279  2.4038  4.2071
 7602TIP3   OH244296   6.193   3.651  13.425  0.4814  0.5726 -0.0750
 7602TIP3    H144297   6.227   3.598  13.353 -0.3415  0.7903 -0.6432
 7602TIP3    H244298   6.135   3.591  13.473  0.2942  0.6834 -0.1590
 7603TIP3   OH244299   2.226   2.096  16.806  0.1642  0.2017 -0.2165
 7603TIP3    H144300   2.186   2.015  16.775  0.2647 -0.0143  0.1989
 7603TIP3    H244301   2.163   2.131  16.869  0.9756 -0.5668  1.0545
 7604TIP3   OH244302   3.688   5.191   6.073  0.4347  0.6110 -0.0162
 7604TIP3    H144303   3.639   5.120   6.115  1.3509  0.6628  1.1414
 7604TIP3    H244304   3.778   5.159   6.069  1.1907  2.3631  2.0516
 7605TIP3   OH244305   0.118   1.176   1.321  0.1481 -0.1409 -0.2154
 7605TIP3    H144306   0.199   1.227   1.319  0.0816  0.0266  1.4843
 7605TIP3    H244307   0.114   1.139   1.409 -0.5940 -1.8136 -0.9189
 7606TIP3   OH244308   3.521   3.762  17.039 -1.0360  0.4766 -0.8430
 7606TIP3    H144309   3.586   3.833  17.041 -0.0104 -0.3832 -3.0144
 7606TIP3    H244310   3.463   3.782  17.113  0.8581  2.0336  0.2986
 7607TIP3   OH244311   5.254   0.410   3.905  0.0703 -0.1766  0.0519
 7607TIP3    H144312   5.171   0.367   3.888  0.1366 -0.5382  0.6212
 7607TIP3    H244313   5.320   0.340   3.898  0.1944 -0.1440  0.8093
 7608TIP3   OH244314   2.404   0.075   4.104 -0.0705 -0.0378  0.3240
 7608TIP3    H144315   2.378   0.092   4.195  1.5923  0.7689  0.6576
 7608TIP3    H244316   2.445  -0.011   4.106 -0.2692 -0.1347  0.2801
 7609TIP3   OH244317   1.592   0.615  11.755  0.5223  0.2377 -0.2182
 7609TIP3    H144318   1.676   0.633  11.796  0.1457  0.8083  0.3210
 7609TIP3    H244319   1.537   0.579  11.825  0.2303  0.1510 -0.4886
 7610TIP3   OH244320   2.915   2.848   2.236  0.2656  0.3969 -0.4563
 7610TIP3    H144321   2.883   2.937   2.251 -0.9268 -0.4102  2.0855
 7610TIP3    H244322   2.853   2.810   2.174 -1.3825  0.1752  1.2936
 7611TIP3   OH244323   1.910   0.560   3.784  0.2920  0.2497  0.2577
 7611TIP3    H144324   1.900   0.537   3.692  0.3326 -0.2648  0.3816
 7611TIP3    H244325   2.005   0.567   3.796  0.2283  2.1556 -0.1867
 7612TIP3   OH244326   4.463   6.169  15.356  0.7893 -0.1908 -0.0985
 7612TIP3    H144327   4.494   6.140  15.442 -0.0545 -0.3690  0.1491
 7612TIP3    H244328   4.377   6.206  15.373  1.6553  2.1002 -0.4619
 7613TIP3   OH244329   3.608   6.235   5.657 -0.3427  0.6577  0.2965
 7613TIP3    H144330   3.591   6.147   5.693  0.3567 -0.0029 -0.9396
 7613TIP3    H244331   3.703   6.242   5.654 -0.3968  1.3742  0.1815
 7614TIP3   OH244332   3.853   5.727   0.188  0.2646 -0.1719 -0.0270
 7614TIP3    H144333   3.856   5.735   0.284  0.7748  0.2592 -0.0790
 7614TIP3    H244334   3.822   5.637   0.173  0.7763 -0.4503  0.5425
 7615TIP3   OH244335   2.131   0.094  15.553 -0.4772 -0.4558  0.1916
 7615TIP3    H144336   2.050   0.132  15.588 -1.7142 -2.1150 -0.7686
 7615TIP3    H244337   2.113   0.084  15.459  0.9675 -0.5596 -0.0851
 7616TIP3   OH244338   2.265   6.176  14.190  0.4161 -0.2068 -0.0169
 7616TIP3    H144339   2.269   6.160  14.284  1.4574 -1.7594 -0.3079
 7616TIP3    H244340   2.172   6.181  14.170  0.2004  0.5656  1.1649
 7617TIP3   OH244341   2.112   4.241   0.763 -0.0281  0.3952  0.0228
 7617TIP3    H144342   2.130   4.149   0.784  0.7254 -0.3628 -3.5665
 7617TIP3    H244343   2.189   4.270   0.715 -0.9484  2.4198 -0.2791
 7618TIP3   OH244344   1.133   0.942  16.838  0.6582  0.3463  0.0626
 7618TIP3    H144345   1.139   0.949  16.742 -0.6523  0.0432 -0.0523
 7618TIP3    H244346   1.221   0.919  16.866  1.4305  2.0114 -0.9296
 7619TIP3   OH244347   6.672   1.980   6.000 -0.3371 -0.4737 -0.0017
 7619TIP3    H144348   6.666   2.004   6.092 -0.8163 -1.6358  0.2738
 7619TIP3    H244349   6.609   2.038   5.956 -0.5202 -0.3073  0.4798
 7620TIP3   OH244350   1.938   5.109  12.001 -0.1631  0.2040  0.1602
 7620TIP3    H144351   1.915   5.139  12.089  0.5023  0.4178  0.2660
 7620TIP3    H244352   2.032   5.090  12.006 -0.3470 -0.8535 -0.2042
 7621TIP3   OH244353   1.981   4.406   2.060 -0.2322  0.1755 -0.5199
 7621TIP3    H144354   2.016   4.480   2.012  0.7419  1.1583  1.6487
 7621TIP3    H244355   2.056   4.349   2.076 -0.0262  1.1121  2.0407
 7622TIP3   OH244356   3.793   1.736   2.171  0.1734 -0.3824 -0.0029
 7622TIP3    H144357   3.818   1.648   2.202 -0.0034 -1.7443 -3.4707
 7622TIP3    H244358   3.699   1.730   2.154 -0.2034  1.0655  1.4709
 7623TIP3   OH244359   4.347   3.592  14.569 -0.0579 -0.6062  0.2164
 7623TIP3    H144360   4.287   3.573  14.496  0.0563 -1.0437  0.2302
 7623TIP3    H244361   4.290   3.612  14.643 -0.1708  0.2758 -0.1044
 7624TIP3   OH244362   4.699   3.844   1.153  0.1923 -0.3007  0.3283
 7624TIP3    H144363   4.708   3.939   1.146  0.7338 -0.3834 -0.1607
 7624TIP3    H244364   4.657   3.830   1.238 -0.1199  0.3894  0.2898
 7625TIP3   OH244365   4.849   5.782  15.796  0.5720  0.3588  0.4534
 7625TIP3    H144366   4.904   5.854  15.825  0.4832  0.7437 -0.3234
 7625TIP3    H244367   4.771   5.824  15.759 -0.0799 -0.1724  1.2082
 7626TIP3   OH244368   6.611   1.825   4.055  0.4937  0.0784 -0.0544
 7626TIP3    H144369   6.628   1.869   3.972  0.6048 -0.7052 -0.4618
 7626TIP3    H244370   6.699   1.806   4.089  0.4906  2.6769  1.5109
 7627TIP3   OH244371   2.722   2.155  12.522  0.8283  0.1958  0.2750
 7627TIP3    H144372   2.774   2.225  12.484  0.1569  0.8100  0.4750
 7627TIP3    H244373   2.711   2.091  12.450 -0.6316  1.4544 -0.6501
 7628TIP3   OH244374   4.512   1.931  17.285  0.0383  0.1346 -0.4790
 7628TIP3    H144375   4.444   1.875  17.248  0.4457 -0.1741 -0.7734
 7628TIP3    H244376   4.544   1.982  17.211 -0.1893  0.6063 -0.2497
 7629TIP3   OH244377   3.884   3.531  16.598 -0.8937 -0.0780  0.2039
 7629TIP3    H144378   3.924   3.453  16.559  0.4762  0.6912  0.0380
 7629TIP3    H244379   3.934   3.545  16.679 -1.0690  0.6958  0.1773
 7630TIP3   OH244380   0.359   0.569  16.233  0.5669  0.2264 -0.4847
 7630TIP3    H144381   0.363   0.476  16.209 -0.8851 -0.5675  2.1793
 7630TIP3    H244382   0.334   0.569  16.325  0.6854  3.2796 -0.4072
 7631TIP3   OH244383   3.947   1.100   3.596  0.0187 -0.0490 -0.4487
 7631TIP3    H144384   3.992   1.170   3.644 -1.0778 -0.7435  1.6503
 7631TIP3    H244385   3.980   1.019   3.635 -2.3594 -0.5885  0.5370
 7632TIP3   OH244386   5.737   0.811   0.601 -0.5727  0.1308 -0.2144
 7632TIP3    H144387   5.716   0.879   0.538  0.1926  0.4125 -0.1674
 7632TIP3    H244388   5.652   0.785   0.637 -1.3510 -1.9604 -3.3085
 7633TIP3   OH244389   6.131   0.223  11.818  0.5638 -0.1213 -0.3636
 7633TIP3    H144390   6.192   0.154  11.844  0.7386 -0.7386 -2.3209
 7633TIP3    H244391   6.045   0.190  11.843  0.7345 -0.6452 -0.4691
 7634TIP3   OH244392   1.000   2.902   1.030 -0.1377 -0.0759 -0.3009
 7634TIP3    H144393   0.990   2.847   1.108  1.4530 -0.0758 -0.0849
 7634TIP3    H244394   1.070   2.963   1.052 -0.1548  0.3817 -1.4818
 7635TIP3   OH244395   0.506   0.319   0.556 -0.2296  0.4381  0.0861
 7635TIP3    H144396   0.599   0.297   0.554 -0.4781 -0.5786 -0.7820
 7635TIP3    H244397   0.462   0.234   0.548 -1.2201  1.0652 -1.2878
 7636TIP3   OH244398   2.901   2.760  11.224 -0.1895 -0.3421 -0.6440
 7636TIP3    H144399   2.863   2.734  11.140  1.8110 -0.2366 -1.6123
 7636TIP3    H244400   2.828   2.801  11.272 -1.1865  0.2502 -2.6095
 7637TIP3   OH244401   4.622   1.349   4.405 -0.2451  0.5065 -0.2259
 7637TIP3    H144402   4.627   1.314   4.316  1.7336 -0.4611  0.2425
 7637TIP3    H244403   4.692   1.414   4.409 -0.3891  0.6107  0.5899
 7638TIP3   OH244404   1.677   6.401  11.522  0.1579 -0.6622 -0.6850
 7638TIP3    H144405   1.759   6.444  11.497 -0.3519  0.7886  0.1303
 7638TIP3    H244406   1.640   6.456  11.590 -1.4132 -1.4140 -0.9056
 7639TIP3   OH244407   2.306   6.312  13.915 -0.0966  0.2818 -0.0788
 7639TIP3    H144408   2.376   6.250  13.894 -0.7875 -0.3661 -0.4855
 7639TIP3    H244409   2.333   6.352  13.997 -0.3261 -1.6111  0.9534
 7640TIP3   OH244410   1.637   1.755   0.065 -0.4422  0.0219  0.0744
 7640TIP3    H144411   1.650   1.725   0.154 -1.4592 -0.3270  0.1165
 7640TIP3    H244412   1.660   1.680   0.010  0.5866  0.3710  0.0187
 7641TIP3   OH244413   0.037   4.192   1.846  0.6259 -0.1498 -0.0541
 7641TIP3    H144414   0.017   4.099   1.835  0.7210 -0.3365  1.3225
 7641TIP3    H244415   0.107   4.195   1.911 -0.6900  0.9794  1.3725
 7642TIP3   OH244416   4.717   4.200  15.639 -0.5730 -0.1353 -0.1157
 7642TIP3    H144417   4.763   4.260  15.580  0.6157 -0.6900  0.2341
 7642TIP3    H244418   4.644   4.252  15.673 -1.9820 -0.2044 -2.9801
 7643TIP3   OH244419   6.289   2.421  15.868 -0.4090  0.1527  0.6215
 7643TIP3    H144420   6.258   2.449  15.954 -0.6442  1.0454  0.2433
 7643TIP3    H244421   6.383   2.410  15.879 -0.3652  0.7449  0.8644
 7644TIP3   OH244422   0.469   5.286  13.356  0.1696  0.0319  0.3813
 7644TIP3    H144423   0.497   5.194  13.356  1.3126  0.3607 -0.5388
 7644TIP3    H244424   0.456   5.307  13.448 -0.9014 -1.2875  0.5452
 7645TIP3   OH244425   0.799   4.897  15.019 -0.4073  0.4716 -0.5779
 7645TIP3    H144426   0.719   4.844  15.016  0.8791 -1.4404 -2.4681
 7645TIP3    H244427   0.805   4.938  14.933  0.9629  0.0849 -0.6828
 7646TIP3   OH244428   4.317   1.422   2.060  0.2371  0.3904 -0.3785
 7646TIP3    H144429   4.310   1.406   1.966  2.1284  2.0243 -0.8408
 7646TIP3    H244430   4.346   1.513   2.067  1.5669 -0.1541  1.7339
 7647TIP3   OH244431   0.199   0.968  11.360  0.1044  0.3664 -0.3856
 7647TIP3    H144432   0.112   0.960  11.321  0.3323  2.0054 -1.2765
 7647TIP3    H244433   0.259   0.960  11.286  0.7008  0.0002  0.1272
 7648TIP3   OH244434   6.672   4.202  12.142  0.1646 -0.3730  0.0520
 7648TIP3    H144435   6.600   4.233  12.197  2.0853  0.0950  2.3568
 7648TIP3    H244436   6.741   4.178  12.203  0.2116 -5.6963 -1.8319
 7649TIP3   OH244437   6.148   2.864   4.944  0.2807 -0.1615 -0.1866
 7649TIP3    H144438   6.126   2.835   4.856  1.4350  0.4282 -0.6788
 7649TIP3    H244439   6.172   2.785   4.991  0.9102 -0.3239 -0.7770
 7650TIP3   OH244440   6.025   4.396  14.233  0.1552  0.1343 -0.0450
 7650TIP3    H144441   6.045   4.315  14.281  0.8169 -1.5053 -2.9558
 7650TIP3    H244442   6.107   4.417  14.188 -0.4958  1.5204 -0.5942
 7651TIP3   OH244443   0.767   6.247  13.013 -0.1128 -0.1512 -1.0980
 7651TIP3    H144444   0.737   6.228  13.102  0.5084 -0.1566 -0.8870
 7651TIP3    H244445   0.701   6.307  12.978 -1.4223 -1.6985 -1.3336
 7652TIP3   OH244446   3.745   4.633  10.288 -0.2518 -0.0538 -0.4096
 7652TIP3    H144447   3.733   4.559  10.347 -0.7085 -1.4001 -2.1381
 7652TIP3    H244448   3.772   4.705  10.345  1.4582 -1.8616  1.1669
 7653TIP3   OH244449   1.363   4.954   2.876 -0.1187 -0.4111  0.2688
 7653TIP3    H144450   1.405   5.029   2.918  0.9900 -1.4969  1.1315
 7653TIP3    H244451   1.279   4.946   2.920  0.5214 -0.7808  1.4339
 7654TIP3   OH244452   1.682   5.857  13.388  0.1647 -0.4067 -0.3804
 7654TIP3    H144453   1.754   5.917  13.410  0.4997 -0.2937 -1.7093
 7654TIP3    H244454   1.603   5.904  13.413  0.4705  0.2390 -0.6137
 7655TIP3   OH244455   6.355   3.128  11.361  0.0300 -0.2001 -0.1671
 7655TIP3    H144456   6.311   3.114  11.445  0.7415 -0.2621  0.2049
 7655TIP3    H244457   6.380   3.040  11.333 -0.7376 -0.2429 -0.7447
 7656TIP3   OH244458   0.160   1.639  16.485 -0.3060  0.1452  0.3238
 7656TIP3    H144459   0.239   1.690  16.501  1.0574 -1.6430 -0.5791
 7656TIP3    H244460   0.130   1.612  16.572  2.4750 -2.7076  0.4677
 7657TIP3   OH244461   1.225   4.689  16.650  0.4208  0.1991  0.2237
 7657TIP3    H144462   1.224   4.774  16.694  1.2736  0.7316 -0.7683
 7657TIP3    H244463   1.257   4.708  16.562  2.6463 -1.4488  0.6344
 7658TIP3   OH244464   5.392   2.349  15.658 -0.2145 -0.0174  0.3592
 7658TIP3    H144465   5.390   2.397  15.741 -0.4667 -0.2380  0.4840
 7658TIP3    H244466   5.482   2.320  15.650 -0.1120  0.2916  0.3936
 7659TIP3   OH244467   2.797   1.281   3.208 -0.1055  0.0959  0.3036
 7659TIP3    H144468   2.891   1.286   3.224  0.5604 -0.6194 -3.0130
 7659TIP3    H244469   2.777   1.358   3.155 -1.6705  0.9444  2.0705
 7660TIP3   OH244470   0.051   6.217  11.743 -0.4996 -0.3135  0.3447
 7660TIP3    H144471   0.100   6.292  11.778 -0.3206  0.6492 -1.8339
 7660TIP3    H244472  -0.038   6.228  11.777 -0.4417  0.8480  0.1421
 7661TIP3   OH244473   2.738   3.147  11.566  0.3681  0.2130 -0.1233
 7661TIP3    H144474   2.681   3.220  11.592  0.7595  0.0608  1.2151
 7661TIP3    H244475   2.679   3.073  11.556  0.1613  0.3512  0.0554
 7662TIP3   OH244476   0.499   6.389   4.908  0.3752  0.6389 -0.5161
 7662TIP3    H144477   0.423   6.330   4.909  1.3220 -0.5894  0.5634
 7662TIP3    H244478   0.542   6.371   4.825  1.7807 -1.6935  0.6686
 7663TIP3   OH244479   3.326   3.079   1.064  0.0921  0.6191  0.3323
 7663TIP3    H144480   3.294   2.989   1.068  0.6350  0.3969 -0.2983
 7663TIP3    H244481   3.341   3.095   0.970 -0.4158  1.5054  0.4020
 7664TIP3   OH244482   2.811   1.752  16.748  0.7950 -0.3159  0.1680
 7664TIP3    H144483   2.751   1.820  16.779 -0.0938 -0.9811 -0.0588
 7664TIP3    H244484   2.763   1.670  16.761  1.4281 -0.8133 -0.5689
 7665TIP3   OH244485   5.653   4.818   5.440  0.7851 -0.3386  0.4752
 7665TIP3    H144486   5.646   4.797   5.347  0.1724  0.7234  0.2624
 7665TIP3    H244487   5.614   4.906   5.447 -0.9114 -1.1687  2.0276
 7666TIP3   OH244488   3.918   2.111  12.958 -0.4367 -0.0122 -0.1878
 7666TIP3    H144489   3.858   2.185  12.955 -0.9122 -0.4394 -1.3073
 7666TIP3    H244490   3.993   2.144  13.008 -0.8363  1.0772 -0.2849
 7667TIP3   OH244491   4.641   1.790  12.644  0.1491 -0.0259 -0.4816
 7667TIP3    H144492   4.732   1.820  12.649  0.2650 -0.4447 -0.0016
 7667TIP3    H244493   4.617   1.801  12.552  0.8325 -0.3474 -0.7011
 7668TIP3   OH244494   1.219   2.284  14.448  0.4252 -0.2621  0.0252
 7668TIP3    H144495   1.154   2.256  14.513 -1.0020 -0.4495 -1.4545
 7668TIP3    H244496   1.301   2.288  14.497 -0.5459 -0.8050  1.7482
 7669TIP3   OH244497   3.679   2.734   3.944 -0.1368  0.3437  0.1288
 7669TIP3    H144498   3.700   2.723   4.037  1.6806 -0.8414 -0.4010
 7669TIP3    H244499   3.585   2.715   3.938 -0.3336  0.7211  1.7598
 7670TIP3   OH244500   1.020   4.704  11.318  0.3641 -0.0028 -0.5869
 7670TIP3    H144501   0.977   4.727  11.401 -1.2242  0.0097 -1.3980
 7670TIP3    H244502   0.974   4.756  11.252  0.3699 -1.4063 -1.7171
 7671TIP3   OH244503   3.558   1.660  14.299  0.7503 -0.6772 -0.4591
 7671TIP3    H144504   3.555   1.569  14.270 -1.2228 -0.6127 -0.5043
 7671TIP3    H244505   3.479   1.671  14.352  0.9648  1.0212 -0.4636
 7672TIP3   OH244506   4.764   1.765  11.742  0.3375 -0.2516  0.2727
 7672TIP3    H144507   4.811   1.689  11.709  0.1242  0.2176 -1.1199
 7672TIP3    H244508   4.679   1.731  11.771  0.7468 -0.7566  0.8701
 7673TIP3   OH244509   0.370   4.165  13.339  0.7530 -0.2524 -0.2004
 7673TIP3    H144510   0.401   4.223  13.270  0.6678 -0.0006 -0.0293
 7673TIP3    H244511   0.333   4.224  13.405 -2.9870 -0.6501 -1.8217
 7674TIP3   OH244512   2.762   3.820   5.394 -0.1271  0.4762  0.4182
 7674TIP3    H144513   2.691   3.840   5.456 -0.8119  1.5063 -0.6779
 7674TIP3    H244514   2.842   3.832   5.445 -0.7631 -2.2652  2.1117
 7675TIP3   OH244515   0.048   0.778  12.683  0.0188  0.0914 -0.1152
 7675TIP3    H144516   0.111   0.847  12.658  0.9446 -0.7606 -0.1848
 7675TIP3    H244517   0.018   0.804  12.770 -0.7183  1.3382 -0.7303
 7676TIP3   OH244518   0.866   1.362   5.193  0.1825 -0.4823  0.2620
 7676TIP3    H144519   0.794   1.311   5.156  0.3090 -1.9001  1.8814
 7676TIP3    H244520   0.942   1.340   5.140 -0.3752  0.3265 -0.8915
 7677TIP3   OH244521   6.138   4.773  15.326  0.0077 -0.4714 -0.1050
 7677TIP3    H144522   6.171   4.698  15.277 -0.6784 -0.4150 -0.6760
 7677TIP3    H244523   6.059   4.740  15.370 -0.4744 -0.0083 -0.6127
 7678TIP3   OH244524   3.922   4.372   1.844 -0.1700 -0.5536  0.0015
 7678TIP3    H144525   3.939   4.448   1.899 -0.4337 -0.9876  0.6863
 7678TIP3    H244526   3.999   4.365   1.788  0.9520 -1.2467  1.6248
 7679TIP3   OH244527   1.194   6.465  14.373  0.2384  0.4061 -0.3921
 7679TIP3    H144528   1.122   6.404  14.353  0.5033  0.1185 -0.4726
 7679TIP3    H244529   1.151   6.550  14.384  0.0601  0.5599 -2.0531
 7680TIP3   OH244530   3.345   6.081   3.143  0.0447  0.2670 -0.0509
 7680TIP3    H144531   3.440   6.080   3.141  0.0789  2.6680 -0.8844
 7680TIP3    H244532   3.322   6.055   3.233  1.6079  4.0978  1.5455
 7681TIP3   OH244533   4.826   2.644  14.322  0.3417  0.8101 -0.0792
 7681TIP3    H144534   4.751   2.633  14.264  0.3409  2.2451 -0.3677
 7681TIP3    H244535   4.894   2.588  14.283 -1.0799 -1.9635  1.2130
 7682TIP3   OH244536   5.943   2.845   4.220  0.1843  0.4133  0.4609
 7682TIP3    H144537   5.933   2.913   4.287  1.9790  2.8497 -1.6174
 7682TIP3    H244538   5.889   2.875   4.147 -1.6049 -2.1101  0.7034
 7683TIP3   OH244539   0.419   4.381  13.802  0.5477 -0.0861  0.1524
 7683TIP3    H144540   0.393   4.299  13.760  1.6058 -0.2924 -0.1149
 7683TIP3    H244541   0.370   4.449  13.755  0.7347 -0.4403 -0.5708
 7684TIP3   OH244542   5.911   2.556  13.954  0.2868  0.0947 -0.3334
 7684TIP3    H144543   5.826   2.599  13.963  0.5296  0.4269  0.4236
 7684TIP3    H244544   5.965   2.596  14.022  0.9359 -0.3834 -0.5679
 7685TIP3   OH244545   1.671   1.659  12.742 -0.0710 -0.2311 -0.2595
 7685TIP3    H144546   1.638   1.620  12.822 -1.4937  2.2306  0.4257
 7685TIP3    H244547   1.711   1.741  12.770  0.3657  0.1488 -1.9321
 7686TIP3   OH244548   0.893   2.913  17.290  0.3770 -0.0987 -0.2581
 7686TIP3    H144549   0.954   2.839  17.296  1.0477  0.4955  0.3746
 7686TIP3    H244550   0.933   2.973  17.228  0.8859  0.6887  0.7997
 7687TIP3   OH244551   0.539   0.722   4.413  0.1588 -0.2742 -0.2941
 7687TIP3    H144552   0.602   0.714   4.485 -0.5086  0.8882  0.4271
 7687TIP3    H244553   0.460   0.758   4.453 -0.7833 -1.1871 -1.3055
 7688TIP3   OH244554   5.485   2.372  13.860 -0.0021 -0.5442 -0.2324
 7688TIP3    H144555   5.550   2.398  13.926  0.1000 -0.4904 -0.3546
 7688TIP3    H244556   5.534   2.368  13.778 -0.3194  0.2894 -0.4758
 7689TIP3   OH244557   0.634   0.043  16.656  0.2010  0.8364 -0.2391
 7689TIP3    H144558   0.657   0.118  16.711  1.3558 -1.1535  2.0446
 7689TIP3    H244559   0.568  -0.005  16.706  0.1499 -0.1940 -1.2711
 7690TIP3   OH244560   4.953   2.294  15.553  0.0924 -0.1055 -0.1121
 7690TIP3    H144561   4.911   2.218  15.512 -0.1719 -0.5720  1.0184
 7690TIP3    H244562   4.917   2.370  15.506  2.1531 -0.7484 -2.9125
 7691TIP3   OH244563   0.782   0.433   4.793  0.1607 -0.3740  1.0245
 7691TIP3    H144564   0.761   0.354   4.744  0.9197  0.2583 -0.3504
 7691TIP3    H244565   0.699   0.456   4.837 -0.1999 -1.6150  1.0138
 7692TIP3   OH244566   3.284   3.688   6.085  0.1432 -0.0547  0.8301
 7692TIP3    H144567   3.354   3.666   6.147  0.8016 -0.3026  0.0244
 7692TIP3    H244568   3.220   3.617   6.094  2.0232 -2.1753 -1.4058
 7693TIP3   OH244569   5.485   1.803   1.019 -0.1913 -0.5847  0.1211
 7693TIP3    H144570   5.543   1.734   0.988 -0.7207 -2.2703  2.6782
 7693TIP3    H244571   5.411   1.802   0.958 -0.2204 -2.3724  0.1596
 7694TIP3   OH244572   2.695   0.355   3.288 -0.6746  0.4006 -0.2569
 7694TIP3    H144573   2.615   0.343   3.340 -0.9398  1.0326 -0.5131
 7694TIP3    H244574   2.744   0.274   3.300 -0.8035  0.4892  0.8581
 7695TIP3   OH244575   0.892   6.030  15.687  0.0337 -0.0212  0.1401
 7695TIP3    H144576   0.900   5.937  15.708  1.2706  0.3665  1.4214
 7695TIP3    H244577   0.802   6.052  15.710 -0.0319 -0.7234  0.5571
 7696TIP3   OH244578   2.262   0.668  10.795  0.6250  0.4608 -0.0727
 7696TIP3    H144579   2.169   0.649  10.787  0.3798  1.8783 -0.8171
 7696TIP3    H244580   2.266   0.737  10.862  1.0874  0.7796 -0.4289
 7697TIP3   OH244581   4.256   1.075   4.652  0.2129 -0.5131 -0.2224
 7697TIP3    H144582   4.270   1.131   4.576 -1.2132 -0.3824 -0.3969
 7697TIP3    H244583   4.344   1.047   4.678  0.7629  0.0911 -1.4221
 7698TIP3   OH244584   1.101   1.965  12.339  0.1844  0.2208  0.1782
 7698TIP3    H144585   1.032   1.924  12.286  0.1457 -0.4650  0.7556
 7698TIP3    H244586   1.154   1.892  12.370 -0.2417  0.5462  1.7108
 7699TIP3   OH244587   6.554   0.693   4.519  0.2937 -0.0664 -0.0172
 7699TIP3    H144588   6.507   0.753   4.577 -1.6244  0.2690 -1.8578
 7699TIP3    H244589   6.601   0.750   4.458 -0.2904 -0.4107 -0.8000
 7700TIP3   OH244590   5.250   0.042  11.158 -0.1446 -0.1270 -0.6176
 7700TIP3    H144591   5.282   0.059  11.069  1.9247  0.9589  0.2879
 7700TIP3    H244592   5.196   0.118  11.179  3.3062  2.0554  0.7882
 7701TIP3   OH244593   2.276   3.571   1.277  0.3425 -0.2806 -0.4340
 7701TIP3    H144594   2.322   3.509   1.334 -1.0451 -0.6417  0.3117
 7701TIP3    H244595   2.225   3.516   1.218  1.7377  0.0913 -2.0295
 7702TIP3   OH244596   6.201   5.974   5.495 -0.2525  0.0486 -0.8185
 7702TIP3    H144597   6.202   5.884   5.528 -1.5196  0.1227 -0.5469
 7702TIP3    H244598   6.180   5.965   5.402 -0.2621  0.0543 -0.8168
 7703TIP3   OH244599   6.421   3.675   3.881 -0.6495  0.7705 -0.0213
 7703TIP3    H144600   6.503   3.677   3.832 -0.0226 -0.2254  0.9679
 7703TIP3    H244601   6.384   3.588   3.865  0.1044  0.0139  2.1091
 7704TIP3   OH244602   1.018   4.131   2.190  0.3327  0.4984 -0.6508
 7704TIP3    H144603   0.979   4.099   2.109  1.3960 -2.3119 -0.1218
 7704TIP3    H244604   0.945   4.135   2.252 -0.1969  1.1463 -1.3037
 7705TIP3   OH244605   3.335   5.717  11.692 -0.8162 -0.2826 -0.5626
 7705TIP3    H144606   3.279   5.727  11.768 -2.1736 -1.8325 -1.3269
 7705TIP3    H244607   3.280   5.674  11.627  1.2071 -1.7883 -1.3532
 7706TIP3   OH244608   4.358   1.068  12.306 -0.7825 -0.3791  0.0086
 7706TIP3    H144609   4.363   0.995  12.368 -0.0526 -0.2498  0.1018
 7706TIP3    H244610   4.402   1.140  12.350 -2.8630  0.6048  0.5754
 7707TIP3   OH244611   6.304   3.279   5.779 -0.0104 -0.1940  0.0169
 7707TIP3    H144612   6.236   3.214   5.796 -0.1878  0.0802  0.3788
 7707TIP3    H244613   6.316   3.323   5.864  0.3802 -0.0190 -0.1293
 7708TIP3   OH244614   5.083   2.545  14.159  0.3591  0.0126 -0.2489
 7708TIP3    H144615   5.167   2.530  14.116 -0.2880  1.6860 -2.1937
 7708TIP3    H244616   5.100   2.529  14.252  2.3409 -1.5221 -0.8461
 7709TIP3   OH244617   1.007   5.856  14.642  0.2631  0.4107 -0.3405
 7709TIP3    H144618   1.029   5.835  14.551  0.8423  1.1618 -0.3809
 7709TIP3    H244619   1.083   5.825  14.693  0.3546  0.8265 -0.2188
 7710TIP3   OH244620   6.633   2.098  12.261  0.0245 -0.3218 -0.1186
 7710TIP3    H144621   6.714   2.085  12.213  1.3050  1.2194  1.5686
 7710TIP3    H244622   6.649   2.057  12.346 -0.7765  0.4280  0.4015
 7711TIP3   OH244623   6.175   5.586  16.163 -0.2961 -0.2020  0.0269
 7711TIP3    H144624   6.225   5.590  16.081  0.9338  0.0995  0.7707
 7711TIP3    H244625   6.092   5.628  16.143 -0.0686 -0.2853 -1.1212
 7712TIP3   OH244626   3.946   4.946  17.084 -0.3731  0.6136 -0.1921
 7712TIP3    H144627   4.002   4.922  17.011 -1.2059 -0.2691 -0.5454
 7712TIP3    H244628   3.936   5.041  17.077 -0.6556  0.4950 -1.3546
 7713TIP3   OH244629   1.832   2.087  14.860 -0.4126  0.6142  0.3498
 7713TIP3    H144630   1.839   2.097  14.955  0.9097 -0.9912  0.4617
 7713TIP3    H244631   1.911   2.037  14.836 -1.1863  0.2233 -1.4595
 7714TIP3   OH244632   1.487   0.903  12.489 -0.4328  0.1007  0.0709
 7714TIP3    H144633   1.579   0.917  12.512 -0.0488 -0.9377 -0.8135
 7714TIP3    H244634   1.452   0.851  12.561 -0.2562  0.2389  0.2574
 7715TIP3   OH244635   2.744   5.702  12.313  0.0605  0.3072 -0.3935
 7715TIP3    H144636   2.741   5.792  12.345 -0.9131  0.8119 -1.8247
 7715TIP3    H244637   2.788   5.653  12.382  0.8133  1.9244  0.2976
 7716TIP3   OH244638   0.202   1.874  12.128 -0.2767  0.5057  0.1837
 7716TIP3    H144639   0.279   1.918  12.164  0.1843 -0.8051  0.8286
 7716TIP3    H244640   0.174   1.814  12.197 -1.3176  0.2942 -0.4077
 7717TIP3   OH244641   1.462   4.002   3.406 -0.8508  0.0228 -0.0256
 7717TIP3    H144642   1.500   3.946   3.339 -0.7271  1.2425 -0.9821
 7717TIP3    H244643   1.527   4.003   3.476 -0.6543 -0.6556 -0.1919
 7718TIP3   OH244644   4.362   4.716  17.171 -0.8189  0.1113 -0.2009
 7718TIP3    H144645   4.373   4.788  17.108  0.3765 -0.6894 -0.9158
 7718TIP3    H244646   4.281   4.673  17.144 -0.7451  0.2748 -0.6945
 7719TIP3   OH244647   3.386   6.397  12.921  0.9391  0.6910 -0.0536
 7719TIP3    H144648   3.363   6.305  12.936  2.9782 -0.2719 -2.4951
 7719TIP3    H244649   3.413   6.429  13.007 -2.9612 -0.0000  1.5054
 7720TIP3   OH244650   1.813   3.745  16.654  0.0128  0.6065 -0.1330
 7720TIP3    H144651   1.819   3.774  16.563 -0.3859 -0.1264 -0.3899
 7720TIP3    H244652   1.792   3.652  16.649 -0.3462  0.6356  0.7128
 7721TIP3   OH244653   4.136   5.725   2.933 -0.1709  0.5378  0.1069
 7721TIP3    H144654   4.127   5.666   3.007 -0.2858 -0.6980 -0.8625
 7721TIP3    H244655   4.230   5.744   2.929 -0.2717  1.2386  1.0350
 7722TIP3   OH244656   5.293   4.675  14.175 -0.2703 -0.0741 -0.0570
 7722TIP3    H144657   5.314   4.588  14.210 -1.4948 -0.4763 -0.2921
 7722TIP3    H244658   5.265   4.658  14.085  1.7708  0.8338 -0.8928
 7723TIP3   OH244659   1.815   1.486   1.776  0.0837  0.3969 -0.3073
 7723TIP3    H144660   1.786   1.569   1.813  1.4092  1.2428 -1.1253
 7723TIP3    H244661   1.829   1.429   1.852 -0.1868  1.1345  0.2970
 7724TIP3   OH244662   3.806   1.980  16.754 -0.2342  0.4648  0.0192
 7724TIP3    H144663   3.769   1.893  16.765  1.1771 -0.2529 -0.8137
 7724TIP3    H244664   3.901   1.967  16.764  0.1182  1.6467 -1.6859
 7725TIP3   OH244665   5.644   0.062   4.977 -0.2300  0.3761  0.3546
 7725TIP3    H144666   5.702   0.137   4.990 -1.5950  1.2001  1.8986
 7725TIP3    H244667   5.666   0.003   5.050 -1.2184  0.6281  0.8604
 7726TIP3   OH244668   5.858   6.112   4.287 -0.3157  0.2895  0.0218
 7726TIP3    H144669   5.830   6.111   4.378  1.2335  0.3224  0.5143
 7726TIP3    H244670   5.840   6.024   4.255 -2.4593  0.7696 -0.1597
 7727TIP3   OH244671   2.780   5.829   3.009 -0.1740  0.5250 -0.1826
 7727TIP3    H144672   2.800   5.874   2.926  1.0911 -1.0482 -0.7541
 7727TIP3    H244673   2.786   5.898   3.075  3.3597  0.9498 -0.8433
 7728TIP3   OH244674   0.528   0.723   5.243  0.1492 -0.3180  0.1857
 7728TIP3    H144675   0.495   0.634   5.231 -2.6699  0.5942  0.6606
 7728TIP3    H244676   0.505   0.745   5.333  1.9137  0.4855  0.4662
 7729TIP3   OH244677   2.471   0.604  17.221 -0.4384 -0.5749  0.2911
 7729TIP3    H144678   2.525   0.526  17.218 -0.1366 -0.3847  0.7027
 7729TIP3    H244679   2.421   0.596  17.302  1.2493  0.7386  1.5070
 7730TIP3   OH244680   1.856   3.223   2.591 -0.3628  0.2292  0.3738
 7730TIP3    H144681   1.909   3.250   2.666  1.3853  0.8944 -1.0756
 7730TIP3    H244682   1.875   3.130   2.581  1.4951  0.7119 -0.8626
 7731TIP3   OH244683   3.161   4.520  14.576 -0.7841 -0.2077 -0.2822
 7731TIP3    H144684   3.153   4.569  14.659  0.2670  0.8266 -0.7757
 7731TIP3    H244685   3.078   4.473  14.569 -0.4116 -1.2781  1.9605
 7732TIP3   OH244686   4.524   0.003   6.308 -0.1938 -0.3787  0.5264
 7732TIP3    H144687   4.587   0.070   6.279 -1.8005 -0.1813 -2.7745
 7732TIP3    H244688   4.578  -0.065   6.348  1.9303  0.7147 -0.3730
 7733TIP3   OH244689   2.017   0.654  11.474  0.8665 -0.4592  0.0608
 7733TIP3    H144690   2.051   0.586  11.416  1.2055 -0.1209 -0.1454
 7733TIP3    H244691   1.977   0.718  11.414  1.2733 -0.0783  0.1897
 7734TIP3   OH244692   5.507   3.023  13.713  0.5209 -0.1704  0.1728
 7734TIP3    H144693   5.538   3.081  13.644 -2.2913  0.0537 -0.9871
 7734TIP3    H244694   5.518   2.935  13.677 -1.0779 -0.0493 -0.6857
 7735TIP3   OH244695   4.812   1.519  15.767 -0.1734 -0.3160 -0.2889
 7735TIP3    H144696   4.896   1.481  15.794  0.0972 -0.3259 -1.1378
 7735TIP3    H244697   4.812   1.607  15.806 -0.7746 -1.1575  1.6240
 7736TIP3   OH244698   0.066   0.222  11.585  0.1929  0.2676  0.4183
 7736TIP3    H144699   0.074   0.160  11.513  0.6795  1.6721 -0.7715
 7736TIP3    H244700   0.031   0.171  11.658  1.6291 -1.6504 -0.1901
 7737TIP3   OH244701   5.721   3.842   4.288 -0.1062 -0.8223  0.1852
 7737TIP3    H144702   5.627   3.861   4.288  0.0972  0.2374  0.9074
 7737TIP3    H244703   5.762   3.920   4.251  0.6217 -0.5693  1.4984
 7738TIP3   OH244704   5.378   2.650   5.443 -0.3038 -0.4479 -0.2444
 7738TIP3    H144705   5.349   2.612   5.360  0.1328 -2.0529  0.3210
 7738TIP3    H244706   5.304   2.638   5.502 -0.6876  0.8707 -0.4302
 7739TIP3   OH244707   4.607   5.574  14.799 -0.1910 -0.4546 -0.1344
 7739TIP3    H144708   4.666   5.525  14.856 -1.5299 -0.1840  1.5294
 7739TIP3    H244709   4.540   5.609  14.858 -2.5804 -1.5653 -2.0687
 7740TIP3   OH244710   5.877   6.533   1.197 -0.7381 -0.0502  0.0776
 7740TIP3    H144711   5.906   6.517   1.287  1.0639  1.8248 -0.1341
 7740TIP3    H244712   5.872   6.446   1.157  2.0486 -0.6355  0.9064
 7741TIP3   OH244713   0.568   4.785  11.804 -0.4115 -0.1845 -0.1657
 7741TIP3    H144714   0.570   4.691  11.785  2.6117 -0.7944  2.7509
 7741TIP3    H244715   0.627   4.824  11.740  0.4957 -0.6613  0.3715
 7742TIP3   OH244716   5.888   5.993   0.634  0.0258  0.1159 -0.2288
 7742TIP3    H144717   5.799   6.019   0.656  0.1249 -0.8220  1.3040
 7742TIP3    H244718   5.931   6.075   0.609 -0.9370  0.7307  0.0901
 7743TIP3   OH244719   5.018   0.594   3.660 -0.3541  0.3264  0.5369
 7743TIP3    H144720   4.930   0.630   3.662 -0.2447  0.5863  0.7016
 7743TIP3    H244721   5.062   0.636   3.734  0.3060  1.2043 -0.3375
 7744TIP3   OH244722   3.234   2.518   0.789 -0.2862  0.4170  0.1389
 7744TIP3    H144723   3.193   2.509   0.703  1.3814 -0.0507 -0.6109
 7744TIP3    H244724   3.252   2.429   0.818  1.4492  0.6710 -0.1393
 7745TIP3   OH244725   3.813   6.502   2.791 -0.3770  0.0669  0.0708
 7745TIP3    H144726   3.768   6.505   2.706  0.1283  1.4651 -0.1611
 7745TIP3    H244727   3.882   6.437   2.779 -0.8655 -0.3840 -0.3180
 7746TIP3   OH244728   1.056   2.304  16.553 -0.2751  0.6446 -0.0267
 7746TIP3    H144729   1.004   2.364  16.606 -0.2869 -2.0486  3.1681
 7746TIP3    H244730   1.000   2.227  16.542  0.8615 -0.0063 -1.5217
 7747TIP3   OH244731   6.383   5.891   6.724  0.0006 -0.5605  0.1914
 7747TIP3    H144732   6.325   5.831   6.772 -1.1202  0.4642  0.1597
 7747TIP3    H244733   6.331   5.919   6.649  1.2100 -1.0010 -0.8253
 7748TIP3   OH244734   3.341   0.886   2.096  0.1666 -0.1287 -0.1955
 7748TIP3    H144735   3.246   0.874   2.099  0.3620 -1.3989  1.2595
 7748TIP3    H244736   3.377   0.800   2.115  1.6104  0.6971  0.9074
 7749TIP3   OH244737   1.145   6.705   0.532 -0.3112 -0.1164  0.5167
 7749TIP3    H144738   1.221   6.736   0.581  1.2588  0.7617 -2.3231
 7749TIP3    H244739   1.139   6.612   0.554  1.7594 -0.2476  0.6147
 7750TIP3   OH244740   0.114   3.779  13.187  1.0411  0.2407  0.3597
 7750TIP3    H144741   0.069   3.761  13.104 -0.0388 -0.7352  1.1231
 7750TIP3    H244742   0.161   3.698  13.206  1.2198  0.4336  0.7350
 7751TIP3   OH244743   0.274   0.504  16.510 -0.0114  0.2569 -0.1683
 7751TIP3    H144744   0.255   0.576  16.571  0.9721  0.0129  0.4395
 7751TIP3    H244745   0.298   0.431  16.567  0.1792 -0.1968 -0.8298
 7752TIP3   OH244746   5.946   2.332  11.455 -0.1113  0.2782  0.6856
 7752TIP3    H144747   5.981   2.421  11.461  0.4223  0.1207 -0.0902
 7752TIP3    H244748   6.005   2.286  11.396 -1.0063 -0.2957  0.2178
 7753TIP3   OH244749   2.387   5.398   0.831 -0.3581 -0.2123  0.0079
 7753TIP3    H144750   2.469   5.420   0.874  0.8754 -2.2257 -1.2137
 7753TIP3    H244751   2.392   5.440   0.745 -1.3252  0.9862  0.5230
 7754TIP3   OH244752   5.833   0.000   2.145  0.4301 -0.2138  0.1350
 7754TIP3    H144753   5.909   0.058   2.147  0.3704 -0.1154 -0.2946
 7754TIP3    H244754   5.805   0.002   2.054 -1.1412  1.1082  0.6284
 7755TIP3   OH244755   1.675   0.861  11.039 -0.6282 -0.0898  0.1816
 7755TIP3    H144756   1.585   0.836  11.062 -0.7240 -0.1611 -0.2647
 7755TIP3    H244757   1.698   0.803  10.966  0.1507 -0.7759  0.9678
 7756TIP3   OH244758   3.350   4.127   3.680  1.0418  0.7767  0.3034
 7756TIP3    H144759   3.347   4.113   3.775  2.4554  0.5799  0.3381
 7756TIP3    H244760   3.270   4.175   3.660 -0.2710 -0.9719  1.2928
 7757TIP3   OH244761   3.659   4.525  11.887 -0.2326  0.3177 -0.2495
 7757TIP3    H144762   3.613   4.457  11.838  1.0242  0.0634 -1.1003
 7757TIP3    H244763   3.658   4.494  11.978 -0.0166 -0.6463 -0.5670
 7758TIP3   OH244764   1.522   6.697  13.236  0.4207  0.0368 -0.4352
 7758TIP3    H144765   1.563   6.696  13.323  0.4729  1.0400 -0.4360
 7758TIP3    H244766   1.428   6.691  13.254  0.4631 -0.3536 -0.3427
 7759TIP3   OH244767   6.653   5.746   4.438 -0.0319 -0.7396 -0.2772
 7759TIP3    H144768   6.723   5.751   4.373 -2.0099  1.6138 -2.3583
 7759TIP3    H244769   6.656   5.830   4.483 -1.5339 -0.5716 -0.4483
 7760TIP3   OH244770   2.222   3.367   3.254  0.1849 -0.2240  0.1875
 7760TIP3    H144771   2.257   3.315   3.326  2.5041  0.1672 -0.6092
 7760TIP3    H244772   2.259   3.455   3.267 -0.3919  0.1736 -0.7728
 7761TIP3   OH244773   1.878   4.195  11.808 -0.2773 -0.0871 -0.4356
 7761TIP3    H144774   1.884   4.174  11.715  0.1554  0.4627 -0.5381
 7761TIP3    H244775   1.939   4.135  11.850 -1.0498 -0.8595 -0.4194
 7762TIP3   OH244776   3.802   3.000   2.098  0.7819  0.0497  0.2332
 7762TIP3    H144777   3.780   3.034   2.185 -0.7555 -0.6814  0.1461
 7762TIP3    H244778   3.731   2.941   2.077  0.5200  1.1390 -2.0716
 7763TIP3   OH244779   0.407   0.007   3.450 -0.1509  0.3483 -0.1474
 7763TIP3    H144780   0.388  -0.073   3.498 -0.5688  0.1211 -0.6880
 7763TIP3    H244781   0.396   0.077   3.515  1.5390 -0.1195  0.6711
 7764TIP3   OH244782   6.066   6.666   4.491  0.2359  0.1939 -0.0361
 7764TIP3    H144783   6.012   6.741   4.465  0.6440  0.5064  0.0099
 7764TIP3    H244784   6.146   6.705   4.526 -0.3611 -0.1999  1.8682
 7765TIP3   OH244785   3.975   0.393  14.269 -0.1789  0.1388 -0.2203
 7765TIP3    H144786   3.995   0.486  14.268 -0.7694  0.2662 -1.1952
 7765TIP3    H244787   4.057   0.351  14.294  0.3029  0.8774 -0.5458
 7766TIP3   OH244788   1.267   1.817  13.726 -0.1330 -0.0508 -0.1926
 7766TIP3    H144789   1.360   1.795  13.731 -0.4887 -1.3531  0.8409
 7766TIP3    H244790   1.246   1.853  13.811 -0.4837  0.6350 -0.5660
 7767TIP3   OH244791   4.513   4.370  14.122 -0.1906  0.3024 -0.0281
 7767TIP3    H144792   4.516   4.465  14.126  0.7976  0.2401  1.0448
 7767TIP3    H244793   4.523   4.349  14.029 -0.8092  1.2501 -0.3082
 7768TIP3   OH244794   5.849   5.127  14.017 -0.7142  1.0024 -0.1596
 7768TIP3    H144795   5.844   5.081  13.933  0.4285 -1.7149  1.1910
 7768TIP3    H244796   5.943   5.140  14.031 -0.8492  0.7073  1.0766
 7769TIP3   OH244797   2.210   3.811  12.732  0.1605  0.2877  0.1326
 7769TIP3    H144798   2.217   3.841  12.822 -0.6250  0.6696  0.0686
 7769TIP3    H244799   2.143   3.743  12.734  1.7361 -1.2992  0.2247
 7770TIP3   OH244800   6.046   0.982   1.945  0.3896  0.0097 -0.1963
 7770TIP3    H144801   6.086   1.047   2.002 -2.1420  1.9834 -0.5715
 7770TIP3    H244802   5.997   1.034   1.880 -0.6114 -2.2434 -1.2991
 7771TIP3   OH244803   4.136   5.214   1.104  0.6194  0.4852 -0.1284
 7771TIP3    H144804   4.226   5.225   1.135  0.5279  0.9889 -0.0440
 7771TIP3    H244805   4.111   5.128   1.137  1.2165  0.1571 -0.5181
 7772TIP3   OH244806   0.698   2.001   6.258  0.0645 -0.2725  0.2594
 7772TIP3    H144807   0.788   2.028   6.242 -0.1300  0.2502  0.0057
 7772TIP3    H244808   0.666   2.063   6.324  0.4413 -1.5743  1.6860
 7773TIP3   OH244809   3.686   5.732   3.102 -0.0550 -0.4037 -0.5880
 7773TIP3    H144810   3.609   5.735   3.046 -0.3514 -1.0697 -0.2330
 7773TIP3    H244811   3.750   5.789   3.060 -1.4568  1.8241  0.1919
 7774TIP3   OH244812   0.916   1.212   3.281  0.3946  0.1535  0.0402
 7774TIP3    H144813   0.946   1.121   3.277  0.6060  0.2740 -1.2824
 7774TIP3    H244814   0.916   1.233   3.374  2.0960 -0.6245  0.2282
 7775TIP3   OH244815   2.202   4.525  15.826 -0.0302  0.0996  0.5075
 7775TIP3    H144816   2.210   4.619  15.814 -1.6640  0.0345 -1.3171
 7775TIP3    H244817   2.115   4.504  15.793  0.1596 -2.0019  1.2688
 7776TIP3   OH244818   0.078   2.382   5.313 -0.1897  0.5093 -0.3025
 7776TIP3    H144819   0.041   2.466   5.341 -1.3862  0.2596 -1.0908
 7776TIP3    H244820   0.023   2.316   5.356  1.3812  0.1081  1.1410
 7777TIP3   OH244821   0.884   0.581   2.202  0.0171 -0.2022  0.3159
 7777TIP3    H144822   0.973   0.572   2.236 -0.0253 -1.9600  0.0247
 7777TIP3    H244823   0.828   0.560   2.277 -0.2000  2.4438  0.9306
 7778TIP3   OH244824   1.071   3.691  14.990  0.4574  0.3973  0.2904
 7778TIP3    H144825   1.017   3.692  14.910 -0.6399 -0.1828  1.0173
 7778TIP3    H244826   1.101   3.601  14.998  2.0161  0.8381 -0.4126
 7779TIP3   OH244827   1.316   0.493   2.698 -0.7539  0.0692  0.2683
 7779TIP3    H144828   1.232   0.527   2.669  0.3717  2.2659 -0.5639
 7779TIP3    H244829   1.342   0.552   2.769  0.0504 -0.5925  0.5246
 7780TIP3   OH244830   4.506   1.607   0.694  0.6585  0.1741 -0.3225
 7780TIP3    H144831   4.532   1.571   0.609  0.4493 -0.3058 -0.1826
 7780TIP3    H244832   4.570   1.677   0.711  2.2516 -1.3786  0.2876
 7781TIP3   OH244833   5.592   4.181  12.517 -0.6597  0.2911  0.3614
 7781TIP3    H144834   5.637   4.249  12.568  1.1913 -1.0788  0.6255
 7781TIP3    H244835   5.570   4.114  12.582  1.0545 -1.1323 -0.4749
 7782TIP3   OH244836   4.877   1.541  13.953  0.1992 -0.1143  0.2267
 7782TIP3    H144837   4.872   1.576  14.041 -1.4670  1.1339 -0.3450
 7782TIP3    H244838   4.971   1.529  13.937  0.5876  1.0446  1.6121
 7783TIP3   OH244839   4.419   2.554  15.527 -0.0181  0.4002 -0.5093
 7783TIP3    H144840   4.436   2.523  15.438  0.2721  1.9996 -1.0271
 7783TIP3    H244841   4.504   2.551  15.570 -0.0499  0.2070 -0.4557
 7784TIP3   OH244842   2.862   1.590   5.223  0.1705 -0.8561 -0.2524
 7784TIP3    H144843   2.781   1.542   5.206 -0.3634  0.2266 -0.8374
 7784TIP3    H244844   2.928   1.522   5.237 -0.4844 -1.7701 -1.4889
 7785TIP3   OH244845   6.420   6.712   0.005 -0.3904  0.1416  0.2692
 7785TIP3    H144846   6.407   6.654   0.080  1.1292 -2.5465 -1.4754
 7785TIP3    H244847   6.504   6.685  -0.032 -0.0169  2.9705 -1.0709
 7786TIP3   OH244848   2.931   2.140  16.817  0.2786 -0.0001  0.3698
 7786TIP3    H144849   2.912   2.066  16.875  1.2916 -1.6806 -1.3927
 7786TIP3    H244850   2.861   2.137  16.752  1.1082 -0.2916 -0.5196
 7787TIP3   OH244851   2.655   2.685  16.766 -0.4992  0.5237  0.1898
 7787TIP3    H144852   2.696   2.751  16.710 -0.4507 -0.1633 -0.5985
 7787TIP3    H244853   2.581   2.730  16.806 -3.3965 -0.2198 -4.0483
 7788TIP3   OH244854   1.225   3.980   5.777 -0.6270  0.0028  0.4390
 7788TIP3    H144855   1.302   4.017   5.821 -0.5405 -1.2745  1.3958
 7788TIP3    H244856   1.200   4.046   5.713  1.4539  0.3096 -0.1004
 7789TIP3   OH244857   2.138   0.350  17.248 -0.3946 -0.3096  0.4768
 7789TIP3    H144858   2.217   0.318  17.205 -0.5094 -1.3924  1.0626
 7789TIP3    H244859   2.119   0.433  17.204  0.3716 -0.6427 -0.5054
 7790TIP3   OH244860   0.740   2.067   5.489  0.3519  0.6090  0.0109
 7790TIP3    H144861   0.696   2.076   5.573  1.9961  3.8616  0.6226
 7790TIP3    H244862   0.832   2.080   5.509  0.8278  0.7937 -2.1923
 7791TIP3   OH244863   4.834   5.553   4.720 -0.5297  0.1085 -0.5541
 7791TIP3    H144864   4.749   5.526   4.684 -0.2765  0.9831 -1.8131
 7791TIP3    H244865   4.823   5.646   4.740 -0.0892  0.0549 -0.0540
 7792TIP3   OH244866   4.276   3.681  16.958 -0.2671 -0.3679  0.7699
 7792TIP3    H144867   4.264   3.655  16.867  1.7455 -0.1793  0.4319
 7792TIP3    H244868   4.367   3.712  16.963 -0.4358 -0.1081  2.7703
 7793TIP3   OH244869   5.428   4.512   1.648  0.9202  0.1903  0.0426
 7793TIP3    H144870   5.424   4.421   1.619  2.0661  0.7535 -1.9027
 7793TIP3    H244871   5.513   4.543   1.620  1.0441  1.5166  1.8146
 7794TIP3   OH244872   4.851   1.027  13.153 -0.0354 -0.0402 -0.1251
 7794TIP3    H144873   4.801   1.037  13.072 -0.9532  1.4223  0.5800
 7794TIP3    H244874   4.787   1.047  13.222  0.9598 -0.3989  0.9120
 7795TIP3   OH244875   2.153   4.572  11.925 -0.9228  0.2435  0.6518
 7795TIP3    H144876   2.183   4.550  11.837  1.5896 -0.6180  1.6913
 7795TIP3    H244877   2.075   4.518  11.938  0.4600 -1.9495  0.0997
 7796TIP3   OH244878   1.061   2.457  13.421 -0.6369 -0.1081 -0.4049
 7796TIP3    H144879   1.074   2.415  13.337 -2.2512 -0.0625 -0.6968
 7796TIP3    H244880   1.021   2.390  13.476  1.0474 -0.3523  0.5548
 7797TIP3   OH244881   0.269   3.542  13.249 -0.5181 -0.3372 -0.5433
 7797TIP3    H144882   0.284   3.451  13.275 -1.7074 -0.3575  0.0933
 7797TIP3    H244883   0.272   3.540  13.153  1.3299 -0.7067 -0.4977
 7798TIP3   OH244884   3.320   4.685   3.029 -0.0611  0.0358  0.0166
 7798TIP3    H144885   3.232   4.671   3.064 -0.7034  1.9548 -0.7707
 7798TIP3    H244886   3.374   4.620   3.074 -1.4581  0.2886  2.1529
 7799TIP3   OH244887   4.597   0.837  17.173  0.3667 -0.4822  0.0435
 7799TIP3    H144888   4.532   0.829  17.103  0.8995  0.7347 -0.5990
 7799TIP3    H244889   4.670   0.885  17.133  0.5090  0.5814  1.5350
 7800TIP3   OH244890   4.054   0.523   3.845  0.9620  0.6447 -0.1427
 7800TIP3    H144891   4.008   0.532   3.928  2.0514 -0.5312  0.5917
 7800TIP3    H244892   4.144   0.502   3.868  1.3438  0.5659 -1.6112
 7801TIP3   OH244893   3.885   0.262  17.288  0.5331  0.3858  0.4927
 7801TIP3    H144894   3.831   0.260  17.209  1.1777 -0.5956  0.0680
 7801TIP3    H244895   3.975   0.258  17.256  0.8016  0.0470  1.2630
 7802TIP3   OH244896   3.358   4.856   1.870 -0.0795 -0.2421 -0.5785
 7802TIP3    H144897   3.442   4.815   1.849  0.9987  1.6052 -0.0919
 7802TIP3    H244898   3.293   4.805   1.823  1.6320  0.0397 -3.3821
 7803TIP3   OH244899   5.000   1.786   1.916  0.1950  0.3330  0.3229
 7803TIP3    H144900   4.982   1.715   1.978 -2.0672  0.4673 -0.1332
 7803TIP3    H244901   4.920   1.794   1.864  1.3260  1.5508 -1.3164
 7804TIP3   OH244902   2.112   5.213   1.201  0.3729  0.1204  0.4909
 7804TIP3    H144903   2.162   5.206   1.283  1.4418 -2.8755 -0.3481
 7804TIP3    H244904   2.146   5.142   1.146 -1.3922  1.1247 -1.9895
 7805TIP3   OH244905   1.914   3.445  13.581 -0.3777 -0.4800 -0.4071
 7805TIP3    H144906   1.865   3.516  13.540  0.0920 -1.3640 -2.5802
 7805TIP3    H244907   1.970   3.488  13.645 -3.1865  0.6616  1.3552
 7806TIP3   OH244908   1.638   3.351   1.437 -0.4806 -0.0806  0.1273
 7806TIP3    H144909   1.656   3.319   1.526  2.7301  1.7046  0.2030
 7806TIP3    H244910   1.623   3.444   1.448  0.9141  0.3402 -1.2718
 7807TIP3   OH244911   6.634   5.657   0.421  0.3625  0.0538  0.2219
 7807TIP3    H144912   6.634   5.681   0.514 -2.1120 -0.4101  0.3858
 7807TIP3    H244913   6.555   5.698   0.386  0.6100 -0.8069 -1.4087
 7808TIP3   OH244914   2.935   5.818  13.312 -0.0040  0.5754 -0.0829
 7808TIP3    H144915   2.846   5.850  13.325  0.8288  2.4461  1.1410
 7808TIP3    H244916   2.952   5.831  13.218 -0.8028  0.7790 -0.1998
 7809TIP3   OH244917   1.098   5.447  15.443 -0.1626  0.1210 -0.1393
 7809TIP3    H144918   1.053   5.499  15.377 -0.0091  1.0245  0.4595
 7809TIP3    H244919   1.181   5.423  15.403  0.6301  2.0532  0.3245
 7810TIP3   OH244920   3.114   4.230  10.667  0.1332  0.1229  0.0137
 7810TIP3    H144921   3.209   4.241  10.660  0.4316 -2.2808 -0.2885
 7810TIP3    H244922   3.078   4.291  10.603  1.4616  0.9955  0.0682
 7811TIP3   OH244923   5.702   3.821   0.948  0.7064 -0.1131  0.6633
 7811TIP3    H144924   5.727   3.897   0.895 -0.3446  1.7036  2.6824
 7811TIP3    H244925   5.753   3.829   1.028 -1.8936  0.4298  2.3489
 7812TIP3   OH244926   5.077   6.462   0.908 -0.2088  0.7490  0.3139
 7812TIP3    H144927   5.163   6.444   0.871 -0.3526 -0.1359  0.4015
 7812TIP3    H244928   5.016   6.448   0.835 -0.3730  0.3229  0.5334
 7813TIP3   OH244929   4.032   5.696  16.618 -0.3918  0.1065 -0.1498
 7813TIP3    H144930   4.106   5.683  16.558  2.5255  1.3450  2.9632
 7813TIP3    H244931   4.031   5.617  16.672  0.1051  1.0238  1.2389
 7814TIP3   OH244932   5.039   6.063  13.176  1.3649  0.0418  0.5381
 7814TIP3    H144933   5.070   6.087  13.263  0.2818 -1.5318  1.3740
 7814TIP3    H244934   5.009   6.146  13.138 -0.2719  0.3996  2.5313
 7815TIP3   OH244935   3.676   1.549  15.156  0.2030 -0.2423  0.1311
 7815TIP3    H144936   3.754   1.495  15.162 -0.7365 -1.7470 -0.8461
 7815TIP3    H244937   3.636   1.543  15.243  0.5660 -0.4181  0.2862
 7816TIP3   OH244938   2.837   2.145   3.465  0.4689 -0.6158 -1.1567
 7816TIP3    H144939   2.746   2.176   3.464  0.7450  0.2166 -0.6538
 7816TIP3    H244940   2.880   2.196   3.395  1.5105  1.9654  1.2771
 7817TIP3   OH244941   3.238   1.844   4.344 -0.4277  0.0083 -0.6982
 7817TIP3    H144942   3.207   1.854   4.254  0.4983 -0.7337 -1.1122
 7817TIP3    H244943   3.293   1.920   4.360  0.3733 -0.4722 -1.1728
 7818TIP3   OH244944   1.308   1.495  15.443 -0.0499 -0.0199  0.3853
 7818TIP3    H144945   1.393   1.534  15.424 -0.8748  1.0150 -1.2291
 7818TIP3    H244946   1.299   1.426  15.377 -1.1579  0.9299 -0.4667
 7819TIP3   OH244947   0.994   3.208  15.743 -0.0926 -0.0480  0.4280
 7819TIP3    H144948   1.073   3.154  15.743 -0.7140 -0.9880 -1.3236
 7819TIP3    H244949   0.969   3.213  15.835  0.5500 -1.8922  0.7237
 7820TIP3   OH244950   0.969   2.078   0.485 -0.0606 -0.0309  0.2484
 7820TIP3    H144951   0.885   2.045   0.453 -1.6687  2.2074  2.0059
 7820TIP3    H244952   1.018   1.999   0.509 -0.9127 -1.4533 -2.5474
 7821TIP3   OH244953   0.983   2.113   0.175 -0.4633  0.4683 -0.1187
 7821TIP3    H144954   0.950   2.087   0.261  0.8333 -0.1436  0.2114
 7821TIP3    H244955   0.940   2.053   0.114 -0.3380 -0.0147  0.2579
 7822TIP3   OH244956   0.973   1.049  16.617 -0.1373  0.1295 -0.0474
 7822TIP3    H144957   1.007   0.969  16.576 -0.7459 -0.6283  0.9323
 7822TIP3    H244958   0.889   1.024  16.655 -0.1597  1.1421  0.5925
 7823TIP3   OH244959   4.865   3.123  13.894  0.1840  0.5057 -0.2436
 7823TIP3    H144960   4.842   3.110  13.986 -2.5948  1.9442 -0.7072
 7823TIP3    H244961   4.825   3.049  13.849  0.3954  0.5355 -0.4805
 7824TIP3   OH244962   6.626   3.013  13.692  0.4770  0.3397 -0.0740
 7824TIP3    H144963   6.718   2.993  13.709  0.4372  0.8040  0.6819
 7824TIP3    H244964   6.589   3.032  13.778 -0.1292  0.9762 -0.4716
 7825TIP3   OH244965   2.448   6.820  11.099 -0.5390 -0.1922 -0.0767
 7825TIP3    H144966   2.428   6.747  11.040  2.2544 -0.9970 -0.0965
 7825TIP3    H244967   2.538   6.804  11.127 -0.6894  2.0086  1.7651
 7826TIP3   OH244968   4.559   3.797  12.505  0.6474 -0.3590  0.1978
 7826TIP3    H144969   4.476   3.755  12.484 -0.0050  0.7420  0.5399
 7826TIP3    H244970   4.589   3.753  12.585 -1.7877  2.1551  2.6113
 7827TIP3   OH244971   5.752   6.190  15.742 -0.3693  0.6379 -0.7595
 7827TIP3    H144972   5.818   6.241  15.789 -1.0994  1.4618 -0.6219
 7827TIP3    H244973   5.758   6.103  15.781  0.5068  0.7513 -0.6246
 7828TIP3   OH244974   3.254   5.057   3.349  0.2041  0.7625 -0.6156
 7828TIP3    H144975   3.260   5.039   3.255  1.6438  1.4144 -0.6581
 7828TIP3    H244976   3.161   5.076   3.363 -0.6067 -2.5034 -1.3074
 7829TIP3   OH244977   2.409   4.305   4.333  0.2893 -0.1752  0.4301
 7829TIP3    H144978   2.503   4.289   4.322  0.4064  0.4483  0.5184
 7829TIP3    H244979   2.390   4.274   4.422  0.7369  1.1716  1.0040
 7830TIP3   OH244980   1.998   2.143  14.487  0.0503  0.3909 -0.2648
 7830TIP3    H144981   1.979   2.195  14.408  2.5385 -0.9675 -1.8443
 7830TIP3    H244982   1.945   2.064  14.477  0.9941 -0.1621 -1.0491
 7831TIP3   OH244983   1.745   3.542   5.503  0.2827 -0.3210 -0.5231
 7831TIP3    H144984   1.697   3.546   5.586 -0.3095 -1.7316 -0.7768
 7831TIP3    H244985   1.711   3.463   5.460 -0.3741  1.1438 -2.7331
 7832TIP3   OH244986   2.463   2.878   2.153 -0.1240 -0.2071  0.0983
 7832TIP3    H144987   2.394   2.864   2.217  1.0650 -0.6216  1.3108
 7832TIP3    H244988   2.520   2.944   2.193  0.2362  0.0653 -0.8434
 7833TIP3   OH244989   1.898   6.216   2.599 -0.1856 -0.0431 -0.1172
 7833TIP3    H144990   1.936   6.162   2.530  0.7604 -1.3546  1.4045
 7833TIP3    H244991   1.804   6.200   2.593 -0.0407 -0.6672 -0.6665
 7834TIP3   OH244992   4.547   5.466   5.837 -0.5042 -0.3529  0.0121
 7834TIP3    H144993   4.511   5.544   5.881  0.9273  0.9985 -1.1355
 7834TIP3    H244994   4.485   5.448   5.767  0.5381  1.4341 -1.4185
 7835TIP3   OH244995   5.056   3.699   1.056 -0.4100  0.1195 -0.2949
 7835TIP3    H144996   5.085   3.623   1.108 -2.1815  0.7596  1.6866
 7835TIP3    H244997   5.117   3.768   1.081  0.4787 -0.3248 -1.2109
 7836TIP3   OH244998   0.529   1.763   3.790 -0.1279 -0.0211  0.2447
 7836TIP3    H144999   0.619   1.750   3.818 -0.2671 -1.3306  0.1157
 7836TIP3    H245000   0.511   1.690   3.731 -1.8817 -0.8873  1.7890
 7837TIP3   OH245001   3.001   6.079  14.134 -0.1032 -0.4920 -0.7233
 7837TIP3    H145002   3.093   6.103  14.141 -0.1758  0.0238 -1.4158
 7837TIP3    H245003   2.998   5.986  14.157  0.7882 -0.8503 -2.0249
 7838TIP3   OH245004   0.069   0.033   0.409  0.0945 -0.5176 -0.8634
 7838TIP3    H145005   0.053  -0.018   0.488  0.1561 -2.5403 -2.1314
 7838TIP3    H245006   0.026  -0.016   0.339  1.0185  0.6503 -2.2815
 7839TIP3   OH245007   0.189   3.482   1.882 -0.0312  0.4944  0.6164
 7839TIP3    H145008   0.278   3.465   1.913  0.2446  0.2823 -0.2666
 7839TIP3    H245009   0.147   3.531   1.953  0.6440  0.1901  1.2262
 7840TIP3   OH245010   3.170   1.123  14.054 -0.0492 -0.6269  0.2084
 7840TIP3    H145011   3.264   1.124  14.037 -0.3262 -0.2738 -1.4001
 7840TIP3    H245012   3.146   1.031  14.048  0.1874 -0.7215  0.6489
 7841TIP3   OH245013   0.466   4.134   4.534 -0.3981  0.1017  0.0803
 7841TIP3    H145014   0.414   4.156   4.457  0.3343 -0.3783 -0.5657
 7841TIP3    H245015   0.457   4.039   4.543  0.7554 -0.0557 -0.3372
 7842TIP3   OH245016   6.015   3.363   2.962  0.1477  0.4627 -0.1476
 7842TIP3    H145017   5.993   3.447   2.922 -0.5343  0.7615  0.8478
 7842TIP3    H245018   6.085   3.383   3.023  1.3429 -0.0333 -1.3356
 7843TIP3   OH245019   4.897   1.611   5.946 -0.2263  0.0452  0.4543
 7843TIP3    H145020   4.894   1.594   5.852  0.1093  0.0639  0.4397
 7843TIP3    H245021   4.819   1.662   5.964  0.6851  1.6703 -0.1310
 7844TIP3   OH245022   3.320   4.573  13.019  0.2379 -1.0500 -0.4043
 7844TIP3    H145023   3.315   4.643  13.085 -1.5878 -1.2338 -0.3077
 7844TIP3    H245024   3.400   4.591  12.970  1.9003 -1.1824  2.1822
 7845TIP3   OH245025   4.966   5.759   4.199  0.1368 -0.5105  0.5616
 7845TIP3    H145026   5.009   5.786   4.280  0.4239 -0.5735  0.4295
 7845TIP3    H245027   4.875   5.742   4.224  0.2603 -0.6707  0.8965
 7846TIP3   OH245028   4.226   5.128   4.302 -0.9339 -0.1597  0.3698
 7846TIP3    H145029   4.222   5.069   4.377 -2.3492 -0.9213 -0.2700
 7846TIP3    H245030   4.151   5.187   4.313 -1.8340 -1.0026 -0.9872
 7847TIP3   OH245031   1.809   2.416   4.587  0.1257 -0.2726 -0.0204
 7847TIP3    H145032   1.803   2.321   4.594 -1.5471 -0.1806 -0.0885
 7847TIP3    H245033   1.771   2.436   4.501  2.5955  0.2805 -1.0468
 7848TIP3   OH245034   2.268   1.032  13.939 -0.0722  0.5285  0.0406
 7848TIP3    H145035   2.326   1.094  13.984 -0.0793  1.1292 -0.7719
 7848TIP3    H245036   2.325   0.989  13.875 -0.2454  0.2358  0.0813
 7849TIP3   OH245037   0.262   0.458  13.372  0.0472  1.1384  0.0364
 7849TIP3    H145038   0.348   0.421  13.393 -0.9210 -0.9992  0.3554
 7849TIP3    H245039   0.263   0.469  13.277 -0.0080 -0.6838 -0.1912
 7850TIP3   OH245040   5.645   6.039   0.938 -0.0714  0.6019 -0.1608
 7850TIP3    H145041   5.668   6.092   1.015  1.0170  0.3985 -0.3448
 7850TIP3    H245042   5.622   6.103   0.871 -0.5439  0.7933  0.1803
 7851TIP3   OH245043   2.632   4.833  15.042 -0.4196  0.0814  0.3251
 7851TIP3    H145044   2.718   4.847  15.002 -1.0053  1.0261 -0.6251
 7851TIP3    H245045   2.574   4.894  14.996 -1.3113  0.4726  1.9436
 7852TIP3   OH245046   4.434   4.293  16.315  0.2188  0.6995  0.3310
 7852TIP3    H145047   4.466   4.380  16.337  0.2804  0.6204  0.5557
 7852TIP3    H245048   4.513   4.238  16.314  0.0830  0.4914  0.9488
 7853TIP3   OH245049   1.528   5.624  13.568 -0.4449  0.0838  0.0726
 7853TIP3    H145050   1.483   5.557  13.516  1.2416 -1.1083  0.0817
 7853TIP3    H245051   1.584   5.670  13.506 -0.0521  0.0964  0.4278
 7854TIP3   OH245052   6.746   0.892   3.502  0.5191 -0.3101 -0.4930
 7854TIP3    H145053   6.653   0.871   3.514  0.0747  0.7537 -1.9866
 7854TIP3    H245054   6.778   0.826   3.441  1.1477 -1.6226  1.2102
 7855TIP3   OH245055   2.025   1.824  16.621 -0.0296  0.2471  0.1557
 7855TIP3    H145056   2.069   1.809  16.705  0.0889  1.2267  0.2797
 7855TIP3    H245057   1.951   1.881  16.643  0.1888  0.7714 -0.4437
 7856TIP3   OH245058   3.371   1.858  11.991 -0.2442  0.3768 -0.2835
 7856TIP3    H145059   3.400   1.774  12.025 -1.0220  0.4250  0.5212
 7856TIP3    H245060   3.452   1.902  11.963  0.4925  0.5441  1.9927
 7857TIP3   OH245061   4.894   3.122   0.499  0.0493  0.7137 -0.0113
 7857TIP3    H145062   4.821   3.143   0.440  0.5360 -1.0681 -1.3090
 7857TIP3    H245063   4.893   3.026   0.503  2.1995  0.6871  0.0998
 7858TIP3   OH245064   0.966   5.360  13.198 -0.1645 -0.0095  0.1355
 7858TIP3    H145065   0.910   5.419  13.147 -0.5419 -0.2490  0.2732
 7858TIP3    H245066   0.990   5.292  13.135  0.3699  0.3550 -0.0582
 7859TIP3   OH245067   5.491   1.458  11.845  0.1750  0.7037 -0.1772
 7859TIP3    H145068   5.459   1.376  11.883  1.2548  0.1132 -0.5386
 7859TIP3    H245069   5.505   1.437  11.753 -0.0607  1.4537 -0.3861
 7860TIP3   OH245070   6.311   6.146   6.071 -0.2569 -0.0923 -0.0012
 7860TIP3    H145071   6.354   6.232   6.077  0.2870 -0.4340  0.9825
 7860TIP3    H245072   6.309   6.128   5.977 -1.2194  1.4126 -0.2997
 7861TIP3   OH245073   0.138   6.409   1.994 -0.0922 -0.4405 -0.4399
 7861TIP3    H145074   0.158   6.468   2.068  0.3198 -2.1967  0.8926
 7861TIP3    H245075   0.077   6.459   1.940 -0.1012  1.0503  0.8789
 7862TIP3   OH245076   4.615   0.270  15.162 -0.0531 -0.4357  0.1614
 7862TIP3    H145077   4.681   0.332  15.193  0.0917 -0.5611  0.1048
 7862TIP3    H245078   4.621   0.273  15.067 -1.1016  0.6009  0.1126
 7863TIP3   OH245079   4.234   6.319  11.194 -0.2685  0.4644 -0.4674
 7863TIP3    H145080   4.179   6.253  11.151 -0.1552 -0.8205  1.2860
 7863TIP3    H245081   4.322   6.280  11.193 -0.1367  0.7276  0.2761
 7864TIP3   OH245082   1.307   0.127   3.895  0.0405  0.7806 -0.3788
 7864TIP3    H145083   1.284   0.047   3.942 -1.9738  2.3354  1.3380
 7864TIP3    H245084   1.232   0.185   3.907  1.2065  2.7251 -2.1230
 7865TIP3   OH245085   1.919   5.409  13.835  0.4017 -0.7424 -0.3161
 7865TIP3    H145086   1.930   5.321  13.798  1.9025 -1.2671  1.2895
 7865TIP3    H245087   1.947   5.468  13.765  2.7421 -1.6969 -0.2221
 7866TIP3   OH245088   5.338   5.886  15.482 -0.6891  0.6073 -0.4391
 7866TIP3    H145089   5.345   5.969  15.528 -1.5278  0.9232 -0.8632
 7866TIP3    H245090   5.292   5.907  15.400 -2.3435 -0.5049  0.1609
 7867TIP3   OH245091   0.366   1.577  14.535 -0.1007  0.2588 -0.2160
 7867TIP3    H145092   0.430   1.647  14.520  0.3475 -0.4701 -1.8088
 7867TIP3    H245093   0.408   1.519  14.599  0.4477  0.2760 -0.5577
 7868TIP3   OH245094   2.648   6.548  13.167  0.2086  0.3096  0.6037
 7868TIP3    H145095   2.702   6.590  13.234  0.3475 -0.6995  1.1428
 7868TIP3    H245096   2.698   6.557  13.086  1.3899 -0.9525  1.1698
 7869TIP3   OH245097   5.908   3.621   5.112  0.1435  0.3990 -0.2589
 7869TIP3    H145098   5.822   3.617   5.154  0.4333  0.0623  0.3110
 7869TIP3    H245099   5.925   3.532   5.083  1.0579  0.0947  1.1769
 7870TIP3   OH245100   5.362   1.772  13.500  0.6649 -0.3677 -0.1611
 7870TIP3    H145101   5.421   1.838  13.536 -1.6211  1.1662  0.8878
 7870TIP3    H245102   5.383   1.770  13.406  1.6180  0.9370  0.0166
 7871TIP3   OH245103   2.694   6.394  16.280 -0.2513 -0.4191  0.6486
 7871TIP3    H145104   2.666   6.465  16.338  0.6678  0.3900  0.1149
 7871TIP3    H245105   2.639   6.403  16.202  0.9528  0.7343 -0.1003
 7872TIP3   OH245106   3.016   0.123   2.352  0.0027  0.1222 -0.6850
 7872TIP3    H145107   3.007   0.218   2.348  2.0973  0.2750 -2.4754
 7872TIP3    H245108   3.082   0.108   2.420 -0.4560 -0.0725 -0.2783
 7873TIP3   OH245109   5.497   4.980  14.333  0.5179 -0.3484 -0.4002
 7873TIP3    H145110   5.524   5.068  14.362 -1.2963 -0.2636  1.1457
 7873TIP3    H245111   5.433   4.953  14.398 -2.6679 -0.8074 -3.6121
 7874TIP3   OH245112   4.264   3.711  14.069 -0.1000  0.2808  0.3331
 7874TIP3    H145113   4.182   3.756  14.088 -0.7336 -0.7629  0.1217
 7874TIP3    H245114   4.268   3.709  13.974  0.1353  0.2725  0.3438
 7875TIP3   OH245115   4.907   4.691   5.699  0.2516 -0.4405 -0.4516
 7875TIP3    H145116   4.833   4.674   5.642 -0.2418 -1.0774  0.3626
 7875TIP3    H245117   4.957   4.760   5.655 -0.2841 -0.7091 -1.4828
 7876TIP3   OH245118   2.931   0.626  14.270  0.2065 -0.2462 -0.1906
 7876TIP3    H145119   2.971   0.625  14.357 -3.5327  1.6233  1.6706
 7876TIP3    H245120   2.922   0.534  14.247  2.4690 -0.7539  0.7471
 7877TIP3   OH245121   5.640   5.847   1.763  1.0509 -0.5821  0.1333
 7877TIP3    H145122   5.593   5.768   1.790 -0.3043  0.1404 -0.0299
 7877TIP3    H245123   5.604   5.867   1.676  1.1172  0.4048  0.3280
 7878TIP3   OH245124   5.865   5.688  12.110  0.3023  0.1684  0.1928
 7878TIP3    H145125   5.910   5.699  12.026  0.6054  0.9991  0.4618
 7878TIP3    H245126   5.794   5.751  12.108  0.7953  0.7488  0.8934
 7879TIP3   OH245127   2.633   0.610  16.663  0.2035 -0.1466  0.2593
 7879TIP3    H145128   2.547   0.636  16.698 -1.0761  0.2522 -3.0311
 7879TIP3    H245129   2.694   0.673  16.702 -1.1160  0.1974  1.8617
 7880TIP3   OH245130   2.814   3.968  12.153 -0.9066  0.0081  0.3116
 7880TIP3    H145131   2.880   4.029  12.119 -0.5694  0.1750  1.2463
 7880TIP3    H245132   2.839   3.883  12.116  0.8201 -0.2322  1.9604
 7881TIP3   OH245133   3.594   4.001  12.253 -0.1418 -0.5949 -0.1948
 7881TIP3    H145134   3.650   4.068  12.214  1.5412 -0.6556  1.9810
 7881TIP3    H245135   3.652   3.927  12.268 -0.6686 -0.5450  2.3998
 7882TIP3   OH245136   6.793   5.772  16.207 -0.0774 -0.2165  0.1238
 7882TIP3    H145137   6.751   5.723  16.278  1.2243 -0.3037  0.8524
 7882TIP3    H245138   6.887   5.768  16.227  0.2113  0.7774 -0.9612
 7883TIP3   OH245139   0.914   2.760   5.083 -0.2932  0.1763 -0.7797
 7883TIP3    H145140   0.926   2.665   5.087 -1.3253  0.1005  0.6184
 7883TIP3    H245141   0.902   2.787   5.174 -1.0007  1.5173 -1.2553
 7884TIP3   OH245142   1.921   3.277   5.998 -0.0034  0.2987 -0.2443
 7884TIP3    H145143   2.011   3.255   6.025 -0.4875 -1.5031 -0.0126
 7884TIP3    H245144   1.890   3.198   5.953 -1.8850  0.4711  0.7124
 7885TIP3   OH245145   5.931   3.674  16.505 -0.1757 -0.1945  0.1103
 7885TIP3    H145146   6.015   3.630  16.518  0.0091  0.4227  1.0503
 7885TIP3    H245147   5.942   3.724  16.424  0.3975 -0.0327  0.2884
 7886TIP3   OH245148   1.496   5.199   0.974  0.0645 -0.1729 -0.0503
 7886TIP3    H145149   1.575   5.219   0.923 -0.1523 -2.4682 -1.4008
 7886TIP3    H245150   1.425   5.203   0.910 -0.8249  1.2611  1.0287
 7887TIP3   OH245151   6.628   3.807   3.243  0.0272  0.6571 -0.2128
 7887TIP3    H145152   6.604   3.890   3.285 -2.6178 -1.6958  3.2607
 7887TIP3    H245153   6.585   3.740   3.296  3.1415 -3.0784 -2.1225
 7888TIP3   OH245154   2.343   6.696   1.184  0.7096 -0.3600  0.0752
 7888TIP3    H145155   2.437   6.678   1.184  0.9097  0.5696  1.5744
 7888TIP3    H245156   2.316   6.684   1.275 -0.3913  0.5406 -0.1184
 7889TIP3   OH245157   4.048   3.137  14.432  0.1529  0.3004  0.2986
 7889TIP3    H145158   4.063   3.185  14.513 -0.6030  2.0148 -0.5587
 7889TIP3    H245159   4.050   3.204  14.363  2.0296 -1.2821 -1.2390
 7890TIP3   OH245160   4.675   0.478   0.736  0.2851  0.6114  0.1268
 7890TIP3    H145161   4.761   0.516   0.756 -0.2666  1.5222  0.8191
 7890TIP3    H245162   4.621   0.554   0.712 -0.3173  0.0394 -0.3336
 7891TIP3   OH245163   4.824   4.605   3.717  0.1977 -0.8178 -0.0907
 7891TIP3    H145164   4.730   4.586   3.723  0.0754 -0.2694 -0.2317
 7891TIP3    H245165   4.833   4.651   3.634  0.6301 -1.0718 -0.1842
 7892TIP3   OH245166   6.364   6.533   2.340 -0.2074 -0.0477  0.3017
 7892TIP3    H145167   6.350   6.535   2.435 -4.2424  0.0841 -0.2186
 7892TIP3    H245168   6.307   6.464   2.308  3.3185 -2.1453 -1.8211
 7893TIP3   OH245169   5.594   6.642   1.508  0.7390 -0.2965 -0.1103
 7893TIP3    H145170   5.667   6.584   1.528  0.5398 -0.0015  1.5876
 7893TIP3    H245171   5.541   6.594   1.444  2.9936 -0.0337 -2.2214
 7894TIP3   OH245172   3.695   4.577   4.485 -0.3946 -0.2731 -0.0207
 7894TIP3    H145173   3.681   4.667   4.514 -0.1956 -0.7187  1.4883
 7894TIP3    H245174   3.634   4.525   4.537  0.7240 -1.2165  0.3757
 7895TIP3   OH245175   0.739   6.132   6.380 -0.5932 -0.1312 -0.3614
 7895TIP3    H145176   0.752   6.083   6.299 -1.2315  2.2470 -1.9479
 7895TIP3    H245177   0.644   6.130   6.394 -0.5668  0.1791 -0.1398
 7896TIP3   OH245178   3.939   0.572   1.430 -0.7701  0.1135  0.7296
 7896TIP3    H145179   3.893   0.655   1.445 -1.4421  0.0004 -0.6708
 7896TIP3    H245180   3.997   0.590   1.356 -0.5778 -0.5365  0.7248
 7897TIP3   OH245181   2.129   5.986   0.699 -0.2777  0.2207  0.0736
 7897TIP3    H145182   2.043   6.010   0.734 -1.4378  0.3051 -2.7179
 7897TIP3    H245183   2.171   6.070   0.680 -0.2895  0.1649 -0.2011
 7898TIP3   OH245184   3.403   6.036   4.033  0.3780 -0.2673 -0.0391
 7898TIP3    H145185   3.370   6.106   3.977  1.0403  0.1189  0.0511
 7898TIP3    H245186   3.400   5.957   3.978  0.7994  0.0658 -0.5330
 7899TIP3   OH245187   0.753   1.712   5.477 -0.0658  0.1868  0.8933
 7899TIP3    H145188   0.710   1.764   5.409 -0.7973 -0.1081  1.1242
 7899TIP3    H245189   0.704   1.732   5.556  1.2966  1.1571  1.5075
 7900TIP3   OH245190   5.297   1.373  14.329 -0.0150 -0.1338  0.2970
 7900TIP3    H145191   5.273   1.465  14.320  2.0978  0.3857 -0.3479
 7900TIP3    H245192   5.288   1.337  14.241  1.0047 -0.0542  0.1500
 7901TIP3   OH245193   3.967   2.582  17.114 -0.6340 -0.0402 -0.0640
 7901TIP3    H145194   3.950   2.509  17.174 -0.7755 -0.1211 -0.2002
 7901TIP3    H245195   3.886   2.633  17.115 -1.1041 -0.7367 -1.1500
 7902TIP3   OH245196   4.906   1.900   4.979 -0.4114  0.7503 -0.2609
 7902TIP3    H145197   4.989   1.938   4.950 -0.7949  1.3927 -0.5428
 7902TIP3    H245198   4.840   1.953   4.935 -0.9569 -0.7404 -1.2390
 7903TIP3   OH245199   0.492   0.552   4.904  0.1824  0.2700  0.1463
 7903TIP3    H145200   0.538   0.636   4.902 -0.2828  0.5500  0.9025
 7903TIP3    H245201   0.437   0.557   4.982  0.7628 -1.0812  0.6348
 7904TIP3   OH245202   0.021   1.269  13.544  0.2583 -0.0928 -0.5319
 7904TIP3    H145203   0.060   1.290  13.460  2.5879  0.9268  0.7661
 7904TIP3    H245204  -0.022   1.351  13.571 -0.8726 -0.5472 -0.8971
 7905TIP3   OH245205   4.761   2.658  13.689  0.0537  0.2088  0.3806
 7905TIP3    H145206   4.748   2.649  13.594  1.2299  0.4230  0.1964
 7905TIP3    H245207   4.841   2.609  13.707  0.3079  0.8953  1.1313
 7906TIP3   OH245208   6.625   6.043   0.626  0.0504  0.0684 -0.3897
 7906TIP3    H145209   6.702   6.010   0.673 -0.1619  0.5079  0.2760
 7906TIP3    H245210   6.567   6.075   0.695  0.9329  3.3134 -1.0337
 7907TIP3   OH245211   1.230   1.470  11.466  0.4910  0.0923  0.3608
 7907TIP3    H145212   1.177   1.405  11.511  0.3068  0.9725  1.4360
 7907TIP3    H245213   1.223   1.447  11.373 -0.8757 -0.4470  0.5872
 7908TIP3   OH245214   5.437   4.521   6.267  0.3769  0.1917  0.0254
 7908TIP3    H145215   5.530   4.503   6.280  0.1805  0.1471  1.4365
 7908TIP3    H245216   5.432   4.557   6.178  1.8990  1.3985  0.4145
 7909TIP3   OH245217   5.561   6.082  11.147  0.3834 -0.0833  0.1091
 7909TIP3    H145218   5.642   6.065  11.100  0.0992  0.4171 -0.5755
 7909TIP3    H245219   5.578   6.162  11.197  1.0542 -1.2272  1.7445
 7910TIP3   OH245220   0.795   5.050  14.222  0.7743  0.3162 -0.1208
 7910TIP3    H145221   0.810   4.995  14.145 -0.2116 -1.1994  0.7560
 7910TIP3    H245222   0.734   5.118  14.192  0.7092 -0.0248 -0.7641
 7911TIP3   OH245223   5.966   3.486  14.082  0.4789  0.1168 -0.2111
 7911TIP3    H145224   5.962   3.466  14.175  0.5450  0.2907 -0.1700
 7911TIP3    H245225   6.002   3.575  14.078 -1.5488  0.9563 -0.3049
 7912TIP3   OH245226   5.989   1.997   5.206 -0.0665  0.2715 -0.2289
 7912TIP3    H145227   5.982   2.060   5.278 -1.5705 -0.8041  0.5861
 7912TIP3    H245228   6.016   1.916   5.248  2.0631  0.3788 -1.3039
 7913TIP3   OH245229   1.856   4.375  13.295  0.5719 -0.4055 -0.0685
 7913TIP3    H145230   1.848   4.285  13.327  0.0082 -0.9631 -1.7119
 7913TIP3    H245231   1.943   4.378  13.256 -0.5281 -1.1593 -2.6933
 7914TIP3   OH245232   2.468   5.858   2.564 -0.0613  0.0516  0.4879
 7914TIP3    H145233   2.463   5.804   2.485  0.7843  1.3070 -0.4388
 7914TIP3    H245234   2.377   5.872   2.590 -0.3058 -1.1968  0.3119
 7915TIP3   OH245235   2.045   6.643   0.350 -0.3234  0.1140  0.6298
 7915TIP3    H145236   2.024   6.712   0.288  1.9763  0.2141 -0.1117
 7915TIP3    H245237   2.027   6.562   0.303  3.7795  0.1396 -1.1915
 7916TIP3   OH245238   6.133   4.879   6.450  0.7097 -0.1945  1.5224
 7916TIP3    H145239   6.070   4.838   6.391  0.2276  0.1798  1.7716
 7916TIP3    H245240   6.196   4.809   6.470 -0.3335 -0.9315  2.2714
 7917TIP3   OH245241   5.382   1.447  12.717  0.2343  0.1295  0.2414
 7917TIP3    H145242   5.385   1.526  12.771  0.5614  0.2990 -0.0270
 7917TIP3    H245243   5.383   1.375  12.781 -1.1836  0.3521  0.5238
 7918TIP3   OH245244   5.055   6.164   3.162  0.1632  0.1816  0.4849
 7918TIP3    H145245   5.065   6.107   3.087 -2.6143  0.7110 -0.3253
 7918TIP3    H245246   5.120   6.233   3.149 -0.7879  0.6672 -1.8270
 7919TIP3   OH245247   4.061   3.602   3.792 -0.4127 -0.4600 -0.0898
 7919TIP3    H145248   4.155   3.593   3.809 -0.4685 -0.1491  0.4120
 7919TIP3    H245249   4.020   3.532   3.843 -0.5148 -0.0709  0.3714
 7920TIP3   OH245250   0.293   4.535  16.630 -0.0568 -0.0308  0.4733
 7920TIP3    H145251   0.255   4.609  16.582 -0.4333 -0.4749  0.0869
 7920TIP3    H245252   0.387   4.546  16.619 -0.0306  1.4822  2.0464
 7921TIP3   OH245253   4.376   4.027  15.167  0.9726 -0.3036  0.6750
 7921TIP3    H145254   4.304   4.011  15.106  0.9842  0.5241  0.4391
 7921TIP3    H245255   4.452   3.984  15.126  0.9996  0.3294  0.0618
 7922TIP3   OH245256   4.168   1.751   2.203  0.2324 -0.1979  0.1590
 7922TIP3    H145257   4.117   1.712   2.274 -1.0813  0.3439 -0.4668
 7922TIP3    H245258   4.172   1.844   2.224  0.6694 -0.1853  0.0216
 7923TIP3   OH245259   6.418   6.669  16.276  0.0354 -0.5105 -0.5439
 7923TIP3    H145260   6.327   6.696  16.291 -0.0017 -0.5235 -0.7490
 7923TIP3    H245261   6.465   6.697  16.355 -0.1157 -0.3610 -0.5081
 7924TIP3   OH245262   4.376   4.623  12.408  0.1834  0.3451 -0.0448
 7924TIP3    H145263   4.351   4.714  12.422  0.9359  0.6562 -0.6804
 7924TIP3    H245264   4.415   4.622  12.320  0.7169 -0.4727  0.1968
 7925TIP3   OH245265   0.842   4.067   5.839 -0.1758 -0.1312  0.1503
 7925TIP3    H145266   0.751   4.046   5.818 -0.4997  0.8988  0.5152
 7925TIP3    H245267   0.882   3.982   5.859 -0.8216 -0.6928 -0.9042
 7926TIP3   OH245268   5.879   0.645   3.736  0.7028 -0.6628 -0.4110
 7926TIP3    H145269   5.880   0.552   3.715 -0.5016 -0.2076 -2.5705
 7926TIP3    H245270   5.870   0.648   3.832 -1.5771 -2.7210 -0.5367
 7927TIP3   OH245271   4.709   4.977  12.037 -0.1631  0.5744 -0.4766
 7927TIP3    H145272   4.785   5.032  12.055  0.5893  0.0344 -1.8921
 7927TIP3    H245273   4.685   4.941  12.122 -0.6387  3.0199  0.4616
 7928TIP3   OH245274   0.786   5.896   1.607  0.3933 -0.0114 -0.2012
 7928TIP3    H145275   0.769   5.807   1.638 -0.2701  0.1485 -0.1029
 7928TIP3    H245276   0.879   5.911   1.628 -0.4353  0.7476  3.3798
 7929TIP3   OH245277   0.679   5.644  11.402  0.1779  0.2642 -0.2851
 7929TIP3    H145278   0.655   5.694  11.324 -0.6465  0.4590  0.0930
 7929TIP3    H245279   0.636   5.690  11.474 -0.3983 -0.8607  0.0952
 7930TIP3   OH245280   3.071   1.036  16.530 -0.5207  0.1842 -0.0822
 7930TIP3    H145281   3.161   1.069  16.524 -0.8651  1.2606  0.6197
 7930TIP3    H245282   3.079   0.953  16.578  0.1937 -0.1483 -0.7605
 7931TIP3   OH245283   5.478   0.108  11.902  0.0243 -0.3836  0.5453
 7931TIP3    H145284   5.512   0.033  11.950  2.1237  0.1884  0.0119
 7931TIP3    H245285   5.465   0.175  11.968 -0.4363 -0.7362  0.8115
 7932TIP3   OH245286   6.377   5.503   0.770 -0.3024 -0.0166 -0.9962
 7932TIP3    H145287   6.380   5.447   0.693  0.5950 -0.6771 -0.4945
 7932TIP3    H245288   6.314   5.572   0.748  1.0546  0.6617 -2.8900
 7933TIP3   OH245289   5.457   4.965  16.287  0.3729 -0.0265 -0.0378
 7933TIP3    H145290   5.529   4.903  16.295 -0.6061 -1.1004  0.5259
 7933TIP3    H245291   5.481   5.037  16.346  1.4612  0.1036 -0.6249
 7934TIP3   OH245292   3.173   0.548   3.347 -0.0586  0.1606  0.0096
 7934TIP3    H145293   3.099   0.605   3.324  0.3349  1.2095  1.3410
 7934TIP3    H245294   3.139   0.490   3.415  0.0637 -0.0267 -0.0870
 7935TIP3   OH245295   3.968   4.618  15.936  0.9702 -0.1265 -0.2150
 7935TIP3    H145296   4.063   4.610  15.943  0.9384  0.3186  0.8409
 7935TIP3    H245297   3.937   4.528  15.930  1.3778 -0.3381  0.7043
 7936TIP3   OH245298   2.162   6.215  15.122  0.0717  0.1405  0.3457
 7936TIP3    H145299   2.139   6.211  15.215  0.4352  0.0309  0.4339
 7936TIP3    H245300   2.246   6.169  15.117 -0.2938 -0.4915 -0.1485
 7937TIP3   OH245301   0.825   4.892   0.383  0.6521  0.0486 -0.0675
 7937TIP3    H145302   0.785   4.825   0.438 -1.9638  1.1453 -0.5719
 7937TIP3    H245303   0.919   4.881   0.398  0.1784 -2.1234  1.7146
 7938TIP3   OH245304   6.698   3.593  13.407  0.5273  0.4021  0.0529
 7938TIP3    H145305   6.742   3.553  13.332  1.0292  0.5726  0.2563
 7938TIP3    H245306   6.761   3.584  13.479 -0.4745 -0.9754  0.7875
 7939TIP3   OH245307   1.984   2.953  16.472 -0.9456 -0.0897  0.3551
 7939TIP3    H145308   1.902   3.003  16.469 -0.8028  0.0899 -0.7677
 7939TIP3    H245309   2.039   3.000  16.535 -1.6892 -0.1916  1.0898
 7940TIP3   OH245310   0.012   3.033  15.052 -0.3454 -0.3028  0.2226
 7940TIP3    H145311   0.034   3.066  15.139 -0.0214  0.6760 -0.2236
 7940TIP3    H245312  -0.067   2.980  15.065 -2.5607  2.9259  0.5392
 7941TIP3   OH245313   3.922   4.531  14.271 -0.4137 -0.2156  0.0475
 7941TIP3    H145314   3.835   4.568  14.257 -0.2061  0.3025  0.1217
 7941TIP3    H245315   3.927   4.518  14.366 -0.9262 -1.5264 -0.0904
 7942TIP3   OH245316   0.582   5.467   5.599 -0.1513  0.1369 -0.7049
 7942TIP3    H145317   0.585   5.372   5.613  0.4661 -0.2197 -3.0767
 7942TIP3    H245318   0.667   5.488   5.561 -0.2583  1.6831 -0.1168
 7943TIP3   OH245319   3.426   3.429  13.797  0.3034 -0.1762 -0.1891
 7943TIP3    H145320   3.392   3.433  13.708  1.3571 -0.8560 -0.6341
 7943TIP3    H245321   3.436   3.521  13.823 -0.0100  0.0232 -0.7710
 7944TIP3   OH245322   6.594   4.210  11.878 -0.1947 -0.4480 -0.2962
 7944TIP3    H145323   6.638   4.196  11.962 -0.7428 -0.4858 -0.0160
 7944TIP3    H245324   6.617   4.300  11.854 -0.5789 -0.2097  0.2171
 7945TIP3   OH245325   4.071   4.732  13.015 -0.3122 -0.5675 -0.2934
 7945TIP3    H145326   4.093   4.823  13.035  1.5055 -0.6522 -1.8191
 7945TIP3    H245327   4.092   4.685  13.096 -3.2038  0.6075  1.2406
 7946TIP3   OH245328   6.188   5.164  12.209 -0.6666 -0.2973  0.2297
 7946TIP3    H145329   6.098   5.130  12.206 -0.7393 -0.3089  2.1365
 7946TIP3    H245330   6.178   5.259  12.210 -0.5765 -0.2529 -1.5041
 7947TIP3   OH245331   2.927   4.942  17.166  0.0161  0.2010 -0.2378
 7947TIP3    H145332   2.927   4.846  17.173  1.0557  0.3197  1.9675
 7947TIP3    H245333   3.003   4.962  17.111  1.1050 -0.1633  1.1057
 7948TIP3   OH245334   2.858   2.634  12.570 -0.0846  0.3800 -0.4752
 7948TIP3    H145335   2.903   2.701  12.519  0.4432 -0.4240 -1.0722
 7948TIP3    H245336   2.913   2.621  12.647  1.7846 -2.0281 -2.1620
 7949TIP3   OH245337   3.053   4.375   0.812 -0.2802  0.1979  0.1458
 7949TIP3    H145338   3.100   4.450   0.775  1.6249  0.7562  3.5583
 7949TIP3    H245339   2.961   4.392   0.791  0.1030  3.5081  0.8350
 7950TIP3   OH245340   1.091   3.152  11.117  0.0226  0.2802 -0.2249
 7950TIP3    H145341   1.072   3.079  11.176 -1.7392  0.8723 -0.0243
 7950TIP3    H245342   1.089   3.113  11.030  4.9295 -1.0761  0.1425
 7951TIP3   OH245343   2.134   0.576   2.001 -0.4045  0.5112  0.0159
 7951TIP3    H145344   2.076   0.509   2.037 -1.6169  3.1373  3.2153
 7951TIP3    H245345   2.114   0.577   1.907 -2.4956 -1.5047  0.3907
 7952TIP3   OH245346   4.365   6.299  16.383 -0.3729  0.2721 -0.8371
 7952TIP3    H145347   4.387   6.385  16.347 -1.5854  0.4877 -1.0754
 7952TIP3    H245348   4.441   6.244  16.362  0.7316  1.4588 -0.0379
 7953TIP3   OH245349   4.818   4.877  13.195 -0.1553 -0.0699 -0.3373
 7953TIP3    H145350   4.863   4.820  13.257 -1.2595 -0.1418  0.4247
 7953TIP3    H245351   4.818   4.829  13.113  0.3499 -0.4598 -0.1107
 7954TIP3   OH245352   1.466   3.143   2.497  0.2898 -0.3179  0.0816
 7954TIP3    H145353   1.490   3.166   2.587 -0.9714 -2.0985  0.8953
 7954TIP3    H245354   1.516   3.204   2.443  1.0283  0.8114  1.9863
 7955TIP3   OH245355   6.242   3.952   2.571  0.0444 -0.7090 -0.3151
 7955TIP3    H145356   6.241   3.879   2.632 -1.3887 -0.5510 -0.1432
 7955TIP3    H245357   6.181   4.015   2.607  2.2716  1.1912  0.2508
 7956TIP3   OH245358   6.130   3.453  12.088 -0.0338 -0.0999  0.1199
 7956TIP3    H145359   6.214   3.408  12.082 -0.4907 -0.7997 -1.1711
 7956TIP3    H245360   6.066   3.383  12.100 -0.6912  0.2237 -1.4073
 7957TIP3   OH245361   0.229   0.208  16.077 -0.1071  0.4225 -0.3660
 7957TIP3    H145362   0.325   0.203  16.084 -0.1342 -0.7650 -0.7020
 7957TIP3    H245363   0.201   0.243  16.161  0.5489 -0.2341  0.1351
 7958TIP3   OH245364   5.314   1.210   5.076  0.2618  0.0342  0.3448
 7958TIP3    H145365   5.327   1.298   5.112  0.8461  0.1293 -0.0867
 7958TIP3    H245366   5.287   1.226   4.985 -2.5588 -0.1641  1.1003
 7959TIP3   OH245367   0.107   6.714   1.715  0.0943  0.1945  0.2501
 7959TIP3    H145368   0.116   6.800   1.756 -0.4438  0.1263  0.5112
 7959TIP3    H245369   0.194   6.675   1.721  0.4547  0.9089 -0.2805
 7960TIP3   OH245370   3.717   2.685  11.446  0.4133  0.1262  0.2561
 7960TIP3    H145371   3.656   2.617  11.473  0.5977  0.7531  2.3251
 7960TIP3    H245372   3.663   2.750  11.402  0.1977 -1.1798 -1.4983
 7961TIP3   OH245373   2.643   6.132  13.625 -0.2986 -0.6253  0.0425
 7961TIP3    H145374   2.667   6.224  13.617 -1.6929 -0.3301 -1.1564
 7961TIP3    H245375   2.709   6.085  13.574  1.3934 -0.4685  2.0573
 7962TIP3   OH245376   0.565   5.533  14.427  0.1159  0.1554 -0.2793
 7962TIP3    H145377   0.627   5.464  14.447 -0.5816  0.0346  1.6028
 7962TIP3    H245378   0.552   5.527  14.332  2.2755 -0.3729 -0.5744
 7963TIP3   OH245379   3.133   2.276  10.481  0.3410 -0.4423  0.1162
 7963TIP3    H145380   3.212   2.250  10.433  0.6192 -1.3559  1.0598
 7963TIP3    H245381   3.152   2.365  10.511 -0.1564  0.4771 -2.1174
 7964TIP3   OH245382   4.072   6.510  12.520  0.2633 -0.5294 -0.4472
 7964TIP3    H145383   4.026   6.577  12.469  0.5655 -0.7527 -1.0132
 7964TIP3    H245384   4.013   6.491  12.594 -0.2143 -0.2714 -0.7613
 7965TIP3   OH245385   5.947   6.704   2.703  0.4659 -0.2618 -0.6455
 7965TIP3    H145386   5.944   6.738   2.793  0.2454 -2.2687  0.1320
 7965TIP3    H245387   5.937   6.782   2.648 -1.5414  0.7605  1.0768
 7966TIP3   OH245388   0.026   0.803   4.665  0.1535  0.2035  0.1673
 7966TIP3    H145389  -0.024   0.876   4.701 -0.0208 -1.2172  3.0075
 7966TIP3    H245390   0.096   0.788   4.728 -1.5373 -3.8904  1.2597
 7967TIP3   OH245391   2.485   5.627   1.853 -0.2738 -0.2084 -0.3839
 7967TIP3    H145392   2.414   5.616   1.916  0.9781 -0.8095  0.9395
 7967TIP3    H245393   2.440   5.643   1.770 -1.9494  0.1242  0.5511
 7968TIP3   OH245394   0.896   5.285  16.072 -1.0471  0.3842 -0.4205
 7968TIP3    H145395   0.863   5.317  16.156 -0.0336 -1.4847  0.7225
 7968TIP3    H245396   0.829   5.223  16.043  0.2636 -1.5968  0.7269
 7969TIP3   OH245397   0.788   0.352   1.242 -0.1923  0.3461  0.0547
 7969TIP3    H145398   0.790   0.439   1.281 -0.9016  0.8484 -1.0386
 7969TIP3    H245399   0.871   0.312   1.269 -0.6717  0.6674  2.1106
 7970TIP3   OH245400   3.205   3.562  12.714  0.3768  0.3018  0.2121
 7970TIP3    H145401   3.241   3.618  12.783 -1.1253 -1.0116  2.1153
 7970TIP3    H245402   3.230   3.473  12.740 -0.1558 -0.2057 -0.9759
 7971TIP3   OH245403   0.163   2.692   3.510  0.0037 -0.2702 -0.2061
 7971TIP3    H145404   0.211   2.703   3.592 -0.7865  0.2755  0.1977
 7971TIP3    H245405   0.164   2.598   3.494 -0.6170 -0.4786  0.9184
 7972TIP3   OH245406   3.416   3.224   3.459 -0.3273 -0.0244  0.5837
 7972TIP3    H145407   3.366   3.160   3.409 -0.9006 -0.7844  2.1168
 7972TIP3    H245408   3.490   3.175   3.494  0.4781  0.6736 -0.0953
 7973TIP3   OH245409   4.915   2.224   4.029 -0.2361  0.2635  0.1598
 7973TIP3    H145410   4.977   2.162   3.990  1.3821  1.6602  0.4564
 7973TIP3    H245411   4.970   2.292   4.066 -1.9956  2.1212 -0.5697
 7974TIP3   OH245412   1.994   2.990   2.838 -0.3939 -0.3847  0.4043
 7974TIP3    H145413   1.951   2.916   2.794 -1.0615 -0.0066  0.4210
 7974TIP3    H245414   1.980   3.064   2.779  2.0495 -0.6913 -0.6335
 7975TIP3   OH245415   0.457   4.334   2.141  0.7104 -0.0563  0.1624
 7975TIP3    H145416   0.462   4.428   2.122 -0.8748 -0.0314 -0.2060
 7975TIP3    H245417   0.465   4.327   2.236 -2.9027  0.7834  0.5876
 7976TIP3   OH245418   6.582   2.919   6.540 -0.3403 -0.1269 -0.5687
 7976TIP3    H145419   6.504   2.884   6.583 -0.1166 -2.3510 -1.8570
 7976TIP3    H245420   6.596   3.005   6.580 -1.4493 -1.1581  2.1408
 7977TIP3   OH245421   2.565   4.884   1.942  0.2133 -0.0689  0.2225
 7977TIP3    H145422   2.623   4.945   1.987 -1.9588  0.8426  1.8803
 7977TIP3    H245423   2.502   4.939   1.896  0.1432 -1.0509 -0.8960
 7978TIP3   OH245424   0.152   5.562  13.501 -0.0468 -0.0959 -0.1908
 7978TIP3    H145425   0.098   5.485  13.520 -0.3238  0.0750 -0.2732
 7978TIP3    H245426   0.213   5.567  13.574 -0.8255  0.3125  0.4389
 7979TIP3   OH245427   2.706   4.151   3.382  0.0756 -0.1275  0.5967
 7979TIP3    H145428   2.687   4.221   3.444  0.0784  1.1411 -0.8099
 7979TIP3    H245429   2.740   4.196   3.305 -0.3645 -1.6301 -0.4937
 7980TIP3   OH245430   5.703   1.159   0.997  0.5704 -0.2342  0.2119
 7980TIP3    H145431   5.737   1.226   0.937 -0.6586 -0.6931 -1.0180
 7980TIP3    H245432   5.713   1.077   0.949  0.5819 -0.7355  1.0740
 7981TIP3   OH245433   0.861   1.988  17.235 -0.1885 -0.3791 -0.5730
 7981TIP3    H145434   0.816   1.979  17.150 -1.5128  0.6475  0.0038
 7981TIP3    H245435   0.811   1.932  17.294 -0.4593  0.4540 -0.0178
 7982TIP3   OH245436   6.100   4.008  13.969 -0.7193 -0.0353 -0.4982
 7982TIP3    H145437   6.088   3.963  14.052 -0.0151  1.1211  0.2415
 7982TIP3    H245438   6.164   3.956  13.921 -0.5243 -0.2592  0.0128
 7983TIP3   OH245439   6.361   2.695   5.486  0.3583 -0.1779  0.0002
 7983TIP3    H145440   6.372   2.615   5.434  0.4131 -0.0518 -0.1829
 7983TIP3    H245441   6.269   2.694   5.512 -0.0836  0.5640 -1.4422
 7984TIP3   OH245442   2.000   0.561   1.765  0.4427 -0.0965 -0.2308
 7984TIP3    H145443   1.992   0.656   1.758 -0.3667 -0.2980 -2.0209
 7984TIP3    H245444   1.911   0.528   1.758  0.7065 -1.0083  0.4877
 7985TIP3   OH245445   5.252   0.896  11.814  0.3437  0.4211  0.2459
 7985TIP3    H145446   5.193   0.823  11.791 -0.7985  1.9202 -1.6555
 7985TIP3    H245447   5.225   0.920  11.903 -0.3991 -0.3997  0.2527
 7986TIP3   OH245448   1.485   6.136  12.618  0.0752  0.2865  0.4423
 7986TIP3    H145449   1.471   6.174  12.705  0.6003 -0.5471  0.8978
 7986TIP3    H245450   1.401   6.148  12.574  0.0531  1.4653  0.7638
 7987TIP3   OH245451   0.195   3.636   4.147  0.1740  0.1645 -0.0636
 7987TIP3    H145452   0.101   3.650   4.135 -0.3177 -1.7796  1.2500
 7987TIP3    H245453   0.217   3.566   4.086  1.2527  2.0817 -1.9406
 7988TIP3   OH245454   5.257   5.699  12.995 -0.1543  0.6974  0.6403
 7988TIP3    H145455   5.169   5.663  12.987  0.5088 -1.2539  1.7577
 7988TIP3    H245456   5.297   5.683  12.909 -0.2517 -0.2021  0.7554
 7989TIP3   OH245457   1.286   3.409   3.692 -0.5375  0.5844 -0.1792
 7989TIP3    H145458   1.319   3.483   3.742  0.9580  0.0746 -0.3705
 7989TIP3    H245459   1.313   3.332   3.743  0.4962  0.0867 -1.4339
 7990TIP3   OH245460   5.884   6.486  13.602  0.1854 -0.0539 -0.3420
 7990TIP3    H145461   5.817   6.538  13.557  0.1630 -1.9069 -2.5506
 7990TIP3    H245462   5.837   6.440  13.671 -0.4083  0.3350 -0.4837
 7991TIP3   OH245463   3.949   1.662   0.114  0.0634  0.0309  0.5106
 7991TIP3    H145464   3.872   1.656   0.172 -0.1721  3.1417  0.5956
 7991TIP3    H245465   4.002   1.732   0.153  1.9388 -0.6936 -0.7247
 7992TIP3   OH245466   3.847   1.797   4.025  0.1242  0.5660 -0.2918
 7992TIP3    H145467   3.760   1.795   3.985 -0.6227  2.9912  1.1010
 7992TIP3    H245468   3.871   1.890   4.024  1.4617  0.2672  1.9485
 7993TIP3   OH245469   2.835   5.426  11.592 -0.0900 -0.7251  0.7374
 7993TIP3    H145470   2.899   5.391  11.654 -0.3715 -0.6251  1.0899
 7993TIP3    H245471   2.806   5.508  11.633  2.0873  1.0104 -1.0493
 7994TIP3   OH245472   3.316   2.177   3.909 -0.2501  0.3978  0.3666
 7994TIP3    H145473   3.284   2.266   3.921  0.0623  0.2742  2.4230
 7994TIP3    H245474   3.328   2.144   3.998  0.0411 -1.5566 -0.3628
 7995TIP3   OH245475   3.728   2.211  14.699 -0.6098  1.1879 -0.1083
 7995TIP3    H145476   3.798   2.226  14.761 -1.0864  1.5975  0.3336
 7995TIP3    H245477   3.755   2.256  14.619  0.0706  0.5360 -0.2492
 7996TIP3   OH245478   0.767   3.086  13.965 -0.0071  0.0370  0.9682
 7996TIP3    H145479   0.693   3.066  13.908  0.1614 -0.5474  0.9555
 7996TIP3    H245480   0.750   3.175  13.996  0.3253  0.6653 -0.6509
 7997TIP3   OH245481   0.608   0.906   2.836  0.1732  0.6519 -0.5675
 7997TIP3    H145482   0.571   0.872   2.754 -1.8486  0.8188  0.2501
 7997TIP3    H245483   0.629   0.997   2.816 -1.1020  0.9399 -0.6868
 7998TIP3   OH245484   5.112   4.828   0.342  0.0484  0.6348  0.1126
 7998TIP3    H145485   5.154   4.914   0.333  2.6857 -0.5323  0.9588
 7998TIP3    H245486   5.142   4.779   0.265 -1.5428  0.4909 -0.4312
 7999TIP3   OH245487   6.759   1.343  15.805  0.4566 -0.0019 -0.2395
 7999TIP3    H145488   6.799   1.430  15.805  1.9231 -0.6392  1.1515
 7999TIP3    H245489   6.753   1.319  15.897  0.9441 -1.7569 -0.6354
 8000TIP3   OH245490   6.188   4.178  15.685  0.2263 -0.2149 -0.4985
 8000TIP3    H145491   6.226   4.109  15.629  0.1898 -0.7331  0.1035
 8000TIP3    H245492   6.258   4.242  15.694  0.9299 -1.1173  0.5215
 8001TIP3   OH245493   3.795   0.242  15.709  0.5462  0.5885  0.1672
 8001TIP3    H145494   3.853   0.309  15.745  1.3519 -0.1694  0.2852
 8001TIP3    H245495   3.754   0.202  15.785  1.2838 -0.1409  0.1914
 8002TIP3   OH245496   5.457   4.579  13.551 -0.3495 -0.1519  0.0403
 8002TIP3    H145497   5.499   4.664  13.567 -0.1826 -0.3288  0.5501
 8002TIP3    H245498   5.417   4.556  13.634  1.0140 -1.3642  0.3893
 8003TIP3   OH245499   3.427   1.553   6.219 -0.1151  0.2276  0.7397
 8003TIP3    H145500   3.498   1.493   6.239 -0.6718 -0.1915  1.4617
 8003TIP3    H245501   3.354   1.524   6.274 -0.8218  0.7003  0.0680
 8004TIP3   OH245502   0.381   1.301  16.020 -0.3141 -0.1444 -0.0629
 8004TIP3    H145503   0.296   1.260  16.034  0.6711 -1.9694  0.6358
 8004TIP3    H245504   0.360   1.385  15.977 -2.5635  0.2699  1.7555
 8005TIP3   OH245505   4.835   1.450  12.648  0.6689  0.1265 -0.0318
 8005TIP3    H145506   4.834   1.524  12.587  1.6471  0.3208  0.1712
 8005TIP3    H245507   4.863   1.376  12.595 -0.2047 -0.0862 -0.2107
 8006TIP3   OH245508   1.365   4.881  16.022  0.1655 -0.1636 -0.2496
 8006TIP3    H145509   1.437   4.850  15.969 -0.4019  0.5238 -1.4571
 8006TIP3    H245510   1.287   4.867  15.968 -0.3973  0.7614  0.2921
 8007TIP3   OH245511   3.943   0.617   1.045  0.7017  0.2157 -0.3877
 8007TIP3    H145512   4.030   0.602   1.083  0.0604 -2.1306  0.2749
 8007TIP3    H245513   3.906   0.688   1.098  1.8651  0.6352 -0.1131
 8008TIP3   OH245514   2.852   2.548  16.186  0.5076 -0.4712  0.2797
 8008TIP3    H145515   2.892   2.584  16.265 -2.3301 -0.0108  1.5581
 8008TIP3    H245516   2.805   2.621  16.147  0.7935 -1.0221 -1.1253
 8009TIP3   OH245517   4.006   0.620  16.052 -0.6323  0.1904 -0.1886
 8009TIP3    H145518   4.084   0.671  16.030 -0.2268 -0.0171  0.7611
 8009TIP3    H245519   3.996   0.559  15.979 -0.0226  0.3559 -0.4097
 8010TIP3   OH245520   0.049   3.383   5.635 -0.7484  0.3860 -0.0318
 8010TIP3    H145521  -0.044   3.388   5.615 -0.8626 -0.8208  0.1665
 8010TIP3    H245522   0.066   3.290   5.647  0.6229  0.5394 -0.7138
 8011TIP3   OH245523   5.754   4.655  15.106  0.9078 -0.8203 -0.0655
 8011TIP3    H145524   5.697   4.703  15.167  0.5645 -1.6093  0.2429
 8011TIP3    H245525   5.781   4.721  15.041  0.6377 -0.1594  0.4882
 8012TIP3   OH245526   6.344   5.161   4.634  0.0498  0.4232 -0.2989
 8012TIP3    H145527   6.363   5.079   4.588  0.3455 -0.1073  0.7475
 8012TIP3    H245528   6.293   5.212   4.572  1.6133  0.2853 -1.7192
 8013TIP3   OH245529   0.627   3.478  14.518 -0.1600  0.3912 -0.1466
 8013TIP3    H145530   0.550   3.433  14.483  0.1755  1.3242 -2.1431
 8013TIP3    H245531   0.601   3.569  14.523  0.4836  0.5620  0.1145
 8014TIP3   OH245532   4.461   1.638  15.826 -0.8259  0.1581 -0.2693
 8014TIP3    H145533   4.433   1.645  15.917  2.8747 -0.7917  1.0338
 8014TIP3    H245534   4.459   1.544  15.807  2.2676 -0.0710  0.2238
 8015TIP3   OH245535   3.907   3.265  14.659 -0.0013  0.0357 -0.1760
 8015TIP3    H145536   3.856   3.312  14.593 -0.6735  0.6266  0.7516
 8015TIP3    H245537   3.841   3.227  14.718  0.6136  0.5852  0.8760
 8016TIP3   OH245538   2.008   1.389   3.561  0.2698  0.2096  0.1572
 8016TIP3    H145539   1.976   1.369   3.473  1.1201  0.8501 -0.3119
 8016TIP3    H245540   2.014   1.304   3.604 -0.5390 -0.0665 -0.2713
 8017TIP3   OH245541   3.874   4.451  10.754  0.3066  0.3363 -0.1580
 8017TIP3    H145542   3.812   4.459  10.681 -0.0986  0.6097  0.2178
 8017TIP3    H245543   3.834   4.386  10.812  0.0742  0.9608  0.3847
 8018TIP3   OH245544   6.524   6.256   2.387  0.0250 -0.1398  0.0068
 8018TIP3    H145545   6.456   6.213   2.439 -1.4656  2.2439  0.0866
 8018TIP3    H245546   6.476   6.312   2.325  1.8591  2.4785  0.8520
 8019TIP3   OH245547   2.375   6.491  10.932 -0.1803  0.1690 -0.3912
 8019TIP3    H145548   2.422   6.559  10.882 -1.0710  0.6312 -0.6149
 8019TIP3    H245549   2.308   6.540  10.980 -2.0490 -0.7494 -1.9819
 8020TIP3   OH245550   2.132   3.139  16.271  0.3555 -0.1377 -0.6013
 8020TIP3    H145551   2.040   3.157  16.248  0.8622 -0.4221 -2.8992
 8020TIP3    H245552   2.155   3.210  16.331 -1.2314  0.1910 -0.3533
 8021TIP3   OH245553   0.240   2.957  14.919  0.2213  0.9381  0.1769
 8021TIP3    H145554   0.171   2.969  14.985 -0.7882  3.2432 -1.2091
 8021TIP3    H245555   0.313   2.918  14.967 -1.4694 -0.0205  2.0417
 8022TIP3   OH245556   4.132   5.234  11.324 -0.2353 -0.2997 -0.5791
 8022TIP3    H145557   4.177   5.222  11.241  0.1399 -2.3817 -0.1095
 8022TIP3    H245558   4.039   5.233  11.302 -0.1142  2.6014 -1.3727
 8023TIP3   OH245559   1.815   3.298  12.069  0.5374  0.0533 -0.3303
 8023TIP3    H145560   1.909   3.282  12.074  0.5265  0.3292  0.9497
 8023TIP3    H245561   1.807   3.393  12.056  0.4453 -0.0071 -0.7112
 8024TIP3   OH245562   2.745   6.549   5.132 -0.1458 -0.3091  0.1180
 8024TIP3    H145563   2.768   6.583   5.219  1.8765 -0.0445 -0.5110
 8024TIP3    H245564   2.711   6.461   5.149  0.0115 -0.1696  1.2028
 8025TIP3   OH245565   2.467   2.228   5.155 -0.2002 -0.3764 -0.0294
 8025TIP3    H145566   2.486   2.146   5.201  0.0626  0.3763  1.2123
 8025TIP3    H245567   2.373   2.224   5.137 -0.0287 -1.3372 -0.7452
 8026TIP3   OH245568   4.688   5.184   4.820 -0.1668 -0.4000 -0.6014
 8026TIP3    H145569   4.632   5.150   4.890  0.5418  1.4468  0.9165
 8026TIP3    H245570   4.753   5.239   4.866  1.3852 -0.5526 -2.5414
 8027TIP3   OH245571   5.397   3.313   5.764  0.0889  0.2063 -0.8666
 8027TIP3    H145572   5.375   3.243   5.825  0.3938  1.4037  0.6642
 8027TIP3    H245573   5.481   3.288   5.727  0.7405  0.3018  0.5195
 8028TIP3   OH245574   2.565   0.333   2.135  0.3400  0.3366 -0.6020
 8028TIP3    H145575   2.570   0.243   2.102 -0.9981  0.4927 -1.2261
 8028TIP3    H245576   2.568   0.323   2.231 -3.5042 -0.6786 -0.4985
 8029TIP3   OH245577   5.331   0.305  15.443 -0.1574 -0.2663  0.0456
 8029TIP3    H145578   5.406   0.350  15.482  0.7992  1.2153 -3.3439
 8029TIP3    H245579   5.255   0.351  15.479  0.7025  1.1118  0.1567
 8030TIP3   OH245580   1.456   1.891  15.505  0.2243  0.8754  0.1105
 8030TIP3    H145581   1.458   1.902  15.600 -0.6960 -2.5126  0.5951
 8030TIP3    H245582   1.370   1.853  15.487 -0.3371  3.1359 -2.3300
 8031TIP3   OH245583   2.807   6.747   3.825 -0.6473  0.1646  0.3255
 8031TIP3    H145584   2.894   6.755   3.785  0.2374  0.9701  2.3402
 8031TIP3    H245585   2.812   6.666   3.877 -1.2226  0.0203  0.1588
 8032TIP3   OH245586   6.534   0.930  15.266 -0.4826  0.1103 -0.1831
 8032TIP3    H145587   6.477   1.000  15.296 -1.8037 -0.0031 -2.2733
 8032TIP3    H245588   6.475   0.856  15.251  0.8229 -1.3022  1.5275
 8033TIP3   OH245589   5.697   2.781  16.712 -0.2390  0.2736 -0.1237
 8033TIP3    H145590   5.659   2.866  16.737 -0.7956 -0.0113  0.0144
 8033TIP3    H245591   5.645   2.717  16.762 -0.3631 -0.1995 -0.8637
 8034TIP3   OH245592   1.968   5.918   1.250 -0.5105  0.3515 -0.2848
 8034TIP3    H145593   2.056   5.885   1.236 -0.5086  0.1474  0.1835
 8034TIP3    H245594   1.932   5.930   1.162 -0.0099  0.4550 -0.4742
 8035TIP3   OH245595   4.600   5.970   4.452 -0.4115 -0.4940 -0.1598
 8035TIP3    H145596   4.511   5.999   4.431  0.1621  0.3925 -1.3653
 8035TIP3    H245597   4.592   5.933   4.540 -1.8540  0.1133 -0.0182
 8036TIP3   OH245598   0.772   4.507   6.396  0.6363  0.1487  0.6715
 8036TIP3    H145599   0.852   4.457   6.380  1.1968  1.2706 -0.0354
 8036TIP3    H245600   0.722   4.501   6.315  0.5991  0.5491  0.6625
 8037TIP3   OH245601   0.022   6.333   4.582  0.3840 -0.0465  0.1696
 8037TIP3    H145602   0.089   6.351   4.649  0.3957  1.1496 -0.1476
 8037TIP3    H245603  -0.048   6.394   4.602  0.2905  0.1601 -0.7784
 8038TIP3   OH245604   2.636   3.270   1.849  0.4451 -0.0471  0.0272
 8038TIP3    H145605   2.589   3.214   1.787  0.2293 -1.5266  1.4660
 8038TIP3    H245606   2.724   3.232   1.852  0.1582 -0.6227  1.3763
 8039TIP3   OH245607   2.761   0.920  11.512  0.5587  0.2805  0.2171
 8039TIP3    H145608   2.696   0.895  11.578 -0.6171  0.7252 -0.7545
 8039TIP3    H245609   2.745   1.013  11.496  0.8927  0.1990 -0.6384
 8040TIP3   OH245610   3.770   5.214  13.788  0.1483 -0.2569 -0.3794
 8040TIP3    H145611   3.843   5.189  13.846 -0.3960 -0.8738  0.0496
 8040TIP3    H245612   3.812   5.232  13.704  1.1423  2.1349  0.5834
 8041TIP3   OH245613   1.192   5.298  12.258  0.3686 -0.3035  0.0580
 8041TIP3    H145614   1.109   5.267  12.293  1.3146 -1.1360  1.6462
 8041TIP3    H245615   1.228   5.224  12.210  0.3537 -0.0603 -0.3319
 8042TIP3   OH245616   0.166   3.975   4.703  0.0730 -0.5213  0.2850
 8042TIP3    H145617   0.206   3.934   4.625 -0.2240 -0.3114  0.0201
 8042TIP3    H245618   0.240   4.006   4.754  0.3257 -1.7410  0.6821
 8043TIP3   OH245619   4.489   2.274   1.873  0.2984 -0.4432  0.0553
 8043TIP3    H145620   4.424   2.336   1.907 -1.3297 -1.6893 -0.6885
 8043TIP3    H245621   4.502   2.211   1.943  2.0816  0.7922  0.8747
 8044TIP3   OH245622   2.598   0.831  16.345  0.2306  0.5703  0.2293
 8044TIP3    H145623   2.609   0.784  16.263  0.3411  1.7050 -0.4162
 8044TIP3    H245624   2.509   0.810  16.374  1.1039 -1.9639  1.2028
 8045TIP3   OH245625   6.485   4.671  14.603 -0.5219 -0.2924 -0.5688
 8045TIP3    H145626   6.395   4.703  14.607 -0.6736 -0.6469 -1.0629
 8045TIP3    H245627   6.496   4.645  14.511  0.6447  1.3757 -0.9250
 8046TIP3   OH245628   6.402   5.577   4.361  0.1314 -0.1117 -0.1807
 8046TIP3    H145629   6.393   5.611   4.272  1.3011 -2.5311 -1.2520
 8046TIP3    H245630   6.493   5.594   4.384  0.3837 -1.3366 -0.2471
 8047TIP3   OH245631   0.594   5.203  14.730 -0.3187 -0.4034  0.0849
 8047TIP3    H145632   0.598   5.296  14.751  0.8613  0.0797 -2.1948
 8047TIP3    H245633   0.504   5.188  14.705 -0.0392  0.5811 -1.5488
 8048TIP3   OH245634   1.711   6.816   3.660 -0.0191  0.1639  0.2365
 8048TIP3    H145635   1.645   6.881   3.682 -0.6852 -0.9634  1.6982
 8048TIP3    H245636   1.790   6.844   3.707 -0.4651 -0.3611  1.3273
 8049TIP3   OH245637   4.091   4.924  10.748  0.1445  0.1360 -0.3355
 8049TIP3    H145638   4.123   4.965  10.667 -0.3424 -0.3000 -0.7472
 8049TIP3    H245639   4.099   4.993  10.814 -1.5036  1.1872 -1.2103
 8050TIP3   OH245640   0.210   5.554   1.271 -0.3342 -0.5958  0.2877
 8050TIP3    H145641   0.211   5.649   1.282  1.5769 -0.2569 -2.1204
 8050TIP3    H245642   0.131   5.525   1.317 -0.9713  2.1456  1.0459
 8051TIP3   OH245643   0.512   1.207  12.988 -0.2349  0.2173 -0.2131
 8051TIP3    H145644   0.443   1.158  13.032 -0.4345 -0.5530 -1.3606
 8051TIP3    H245645   0.467   1.250  12.915  0.2857  0.6239 -0.2920
 8052TIP3   OH245646   5.894   0.315   3.080  0.4632  1.0448 -0.5772
 8052TIP3    H145647   5.817   0.367   3.057 -0.0419  0.2846 -0.6268
 8052TIP3    H245648   5.968   0.365   3.046 -0.0651  1.3779 -1.2538
 8053TIP3   OH245649   5.417   4.409  12.610 -0.0611  0.2659  0.0833
 8053TIP3    H145650   5.386   4.325  12.642  1.5507  0.2743  1.7963
 8053TIP3    H245651   5.495   4.388  12.559  0.3932  0.6986  0.5808
 8054TIP3   OH245652   5.774   4.722  16.979  0.3798 -0.1385  0.2292
 8054TIP3    H145653   5.690   4.742  17.020  0.6449  1.3954  0.0492
 8054TIP3    H245654   5.769   4.628  16.959 -0.7555 -0.3540  1.4320
 8055TIP3   OH245655   0.318   3.012  12.490 -0.4001  0.0853 -0.1306
 8055TIP3    H145656   0.333   3.034  12.398  0.9936  0.2199  0.1207
 8055TIP3    H245657   0.293   3.095  12.531 -0.0158  0.2250 -0.1794
 8056TIP3   OH245658   6.719   3.709  12.699  0.1829 -0.0322 -0.0916
 8056TIP3    H145659   6.811   3.717  12.673  0.2249 -1.0061 -0.2294
 8056TIP3    H245660   6.696   3.618  12.681 -0.7506  0.1517  0.1449
 8057TIP3   OH245661   1.076   2.752   2.165 -1.1868 -0.1497 -0.3149
 8057TIP3    H145662   1.078   2.772   2.071  1.2721  0.0101 -0.2677
 8057TIP3    H245663   0.983   2.748   2.187 -1.7933  0.2156 -2.6726
 8058TIP3   OH245664   0.122   6.458  13.303 -0.4729  0.1223  0.3078
 8058TIP3    H145665   0.158   6.436  13.217 -0.9942 -0.7042  0.2973
 8058TIP3    H245666   0.055   6.523  13.285 -1.0777 -0.5763  0.0091
 8059TIP3   OH245667   6.101   1.317   4.344 -0.0112  0.5802  0.2270
 8059TIP3    H145668   6.160   1.389   4.321 -1.6416  1.0805 -2.6156
 8059TIP3    H245669   6.140   1.240   4.305 -0.2529  0.5974 -0.0537
 8060TIP3   OH245670   3.064   5.831  15.700 -0.4399  0.0222  0.4209
 8060TIP3    H145671   3.051   5.923  15.676  0.6442  0.0515 -0.1166
 8060TIP3    H245672   3.001   5.815  15.770 -0.8630  1.0851  0.2980
 8061TIP3   OH245673   0.849   2.590  11.222 -0.1225  0.0531 -0.0180
 8061TIP3    H145674   0.774   2.539  11.193  0.2101 -0.6277  0.3043
 8061TIP3    H245675   0.837   2.600  11.316  0.8175 -1.1337  0.2486
 8062TIP3   OH245676   3.654   3.147  12.715 -0.1013  0.7156 -0.2407
 8062TIP3    H145677   3.658   3.115  12.624  1.5245 -0.0503  0.0773
 8062TIP3    H245678   3.563   3.174  12.727 -1.1562 -2.2876 -1.0744
 8063TIP3   OH245679   3.302   6.389   0.447  0.1434 -0.1377 -0.7148
 8063TIP3    H145680   3.245   6.460   0.416 -1.2284 -0.4884  0.9269
 8063TIP3    H245681   3.311   6.332   0.371 -0.5763  0.6415 -1.4102
 8064TIP3   OH245682   4.088   6.487   4.338 -0.0501 -0.9272  0.0012
 8064TIP3    H145683   4.082   6.398   4.303  0.3446 -0.7047 -0.6301
 8064TIP3    H245684   4.171   6.487   4.387 -0.0382 -0.8989 -0.0189
 8065TIP3   OH245685   0.531   6.724   0.158  0.1707  0.6768  0.8440
 8065TIP3    H145686   0.443   6.687   0.165  0.0045  0.8560 -0.1952
 8065TIP3    H245687   0.584   6.670   0.217 -0.4464 -0.0129  0.7864
 8066TIP3   OH245688   2.865   3.579   2.830 -0.0349 -0.0240 -0.0514
 8066TIP3    H145689   2.887   3.499   2.877 -1.7929 -0.1335  0.6165
 8066TIP3    H245690   2.784   3.558   2.783 -0.3411  1.2696 -0.1250
 8067TIP3   OH245691   5.993   6.392   1.942 -0.1603 -0.3087 -0.6093
 8067TIP3    H145692   5.917   6.350   1.902 -0.0070 -0.1883 -1.0317
 8067TIP3    H245693   6.066   6.369   1.884  0.2559 -1.0167  0.1692
 8068TIP3   OH245694   5.493   1.992   3.727 -0.1069 -0.3033 -0.4102
 8068TIP3    H145695   5.432   2.046   3.776 -0.2753 -1.7081  0.9598
 8068TIP3    H245696   5.472   1.902   3.752  2.1832 -0.8381 -0.2838
 8069TIP3   OH245697   4.746   0.938   2.946  0.3490 -0.1743 -0.4851
 8069TIP3    H145698   4.725   1.016   2.895 -1.4553 -1.0155 -1.0480
 8069TIP3    H245699   4.720   0.959   3.035 -0.0226 -0.0862 -0.6151
 8070TIP3   OH245700   5.291   1.945  13.881 -0.5602 -0.8558 -0.1691
 8070TIP3    H145701   5.302   1.880  13.811  1.6333 -0.9472  0.2228
 8070TIP3    H245702   5.263   1.893  13.957  1.0146 -1.3501  0.0955
 8071TIP3   OH245703   4.770   4.196  16.949  0.0141 -0.2129 -0.2639
 8071TIP3    H145704   4.743   4.278  16.992  2.9198  1.2185 -1.0662
 8071TIP3    H245705   4.715   4.191  16.871  0.0761  1.1604 -0.4045
 8072TIP3   OH245706   0.298   2.834  16.135  0.0067 -0.3847 -0.6612
 8072TIP3    H145707   0.269   2.922  16.111 -0.6370  0.1994  2.0740
 8072TIP3    H245708   0.219   2.790  16.165  0.4375 -1.6928 -1.4527
 8073TIP3   OH245709   1.416   0.875  11.628 -0.3859 -0.2232 -0.4838
 8073TIP3    H145710   1.392   0.806  11.566 -0.2049  0.3501 -1.1971
 8073TIP3    H245711   1.512   0.871  11.632 -0.4229 -0.6237  0.1917
 8074TIP3   OH245712   1.902   0.572  16.714 -0.4598 -0.1705  0.2825
 8074TIP3    H145713   1.881   0.505  16.780  1.0999 -0.7570  0.2144
 8074TIP3    H245714   1.880   0.531  16.630  0.8711 -0.7670  0.2129
 8075TIP3   OH245715   0.179   2.239   4.192  0.4840  0.1053 -0.1434
 8075TIP3    H145716   0.211   2.157   4.230 -0.5288  0.1941  0.9468
 8075TIP3    H245717   0.094   2.216   4.154  0.1210  0.6713  0.3125
 8076TIP3   OH245718   0.786   3.434   1.145  0.6953  0.7184 -0.5955
 8076TIP3    H145719   0.769   3.356   1.092  0.6268  0.9676 -0.9456
 8076TIP3    H245720   0.730   3.501   1.106 -0.3596  0.5727  0.6127
 8077TIP3   OH245721   0.463   0.045   5.677  0.9045  0.0621 -0.2558
 8077TIP3    H145722   0.538   0.053   5.736  0.7990 -3.4372  0.4919
 8077TIP3    H245723   0.399  -0.005   5.727 -2.4570  3.9526 -0.4792
 8078TIP3   OH245724   2.489   4.982   0.220  0.1887 -0.4110  0.3995
 8078TIP3    H145725   2.461   4.891   0.224  0.3535 -0.4080  1.9602
 8078TIP3    H245726   2.412   5.032   0.245  0.1006 -0.1219 -0.4542
 8079TIP3   OH245727   3.891   1.744  11.784  0.5105  0.1536  0.1155
 8079TIP3    H145728   3.909   1.721  11.875  2.6784  0.4542 -0.2125
 8079TIP3    H245729   3.852   1.831  11.788  0.5770  0.1514  0.7592
 8080TIP3   OH245730   2.017   1.079  16.009  0.0581 -0.1424  0.4603
 8080TIP3    H145731   1.970   1.155  16.043  0.9554 -0.2786  2.0112
 8080TIP3    H245732   2.109   1.104  16.009  0.0396  0.0713 -2.4626
 8081TIP3   OH245733   4.258   5.475  13.919  0.2358 -1.1847 -0.0387
 8081TIP3    H145734   4.232   5.497  14.009 -0.1335  0.8179 -0.6003
 8081TIP3    H245735   4.343   5.518  13.908 -1.0441  1.0808 -1.5543
 8082TIP3   OH245736   6.740   5.762  13.211  0.0245  0.0422 -0.3371
 8082TIP3    H145737   6.711   5.680  13.170 -0.1662  0.0065 -0.1288
 8082TIP3    H245738   6.670   5.824  13.191  0.4935  0.3319 -1.0813
 8083TIP3   OH245739   5.934   3.385   5.014  0.5368  0.1171 -0.1039
 8083TIP3    H145740   6.003   3.324   4.985 -0.2103 -1.7557  1.9220
 8083TIP3    H245741   5.858   3.329   5.030 -0.2092  1.5963  1.6762
 8084TIP3   OH245742   2.729   5.181  12.023  0.4382  0.2259 -0.6059
 8084TIP3    H145743   2.736   5.088  12.047 -0.4630  0.0919 -0.8138
 8084TIP3    H245744   2.635   5.193  12.006  0.1400  1.7817  1.8736
 8085TIP3   OH245745   2.381   1.794  12.276 -0.2913  0.4403  0.7530
 8085TIP3    H145746   2.454   1.781  12.337  0.8832  0.8563 -0.5473
 8085TIP3    H245747   2.350   1.882  12.296 -0.2726  0.3676  1.1193
 8086TIP3   OH245748   1.582   5.038  17.248 -0.0433  0.6258 -0.5963
 8086TIP3    H145749   1.571   5.035  17.153 -0.4358  0.2575 -0.5401
 8086TIP3    H245750   1.667   5.081  17.261  0.3816 -0.0505 -1.1311
 8087TIP3   OH245751   5.067   5.213  12.402 -0.1811  0.3395  0.5080
 8087TIP3    H145752   5.137   5.148  12.394  0.5571  1.2425 -0.6163
 8087TIP3    H245753   5.108   5.295  12.377 -1.7387  0.8349 -0.5081
 8088TIP3   OH245754   2.418   1.657   2.741 -0.1509 -0.3097  0.1433
 8088TIP3    H145755   2.493   1.716   2.750 -0.0207 -0.4616  0.0462
 8088TIP3    H245756   2.347   1.713   2.709 -0.5849  0.2199  1.9867
 8089TIP3   OH245757   5.921   5.658  11.044  0.0562  0.3897  0.0962
 8089TIP3    H145758   6.009   5.694  11.054  0.7017 -0.7860 -1.0983
 8089TIP3    H245759   5.876   5.719  10.986 -0.3771  1.7150  1.7904
 8090TIP3   OH245760   5.604   3.882   4.890  0.8360 -0.3098  0.7469
 8090TIP3    H145761   5.625   3.836   4.808 -1.3239 -2.9591  1.5927
 8090TIP3    H245762   5.519   3.923   4.873  0.7552 -0.2095  1.3856
 8091TIP3   OH245763   3.108   6.313  15.006  0.3124  1.1404 -0.1440
 8091TIP3    H145764   3.121   6.272  15.092  0.4253  0.8133 -0.3140
 8091TIP3    H245765   3.121   6.406  15.021 -0.3330  1.1540  0.3305
 8092TIP3   OH245766   2.515   5.359  15.682  0.1422 -0.5422  0.5528
 8092TIP3    H145767   2.503   5.425  15.614  0.9176  0.8811  1.7882
 8092TIP3    H245768   2.447   5.294  15.663 -1.3771  1.1655 -0.0029
 8093TIP3   OH245769   2.578   4.848  13.847  0.0621 -0.0280  0.4134
 8093TIP3    H145770   2.631   4.928  13.840  0.0090 -0.0384 -0.1499
 8093TIP3    H245771   2.575   4.814  13.758  1.4377 -1.5352  0.9102
 8094TIP3   OH245772   0.245   0.717  12.179  0.1436 -1.0434 -0.5045
 8094TIP3    H145773   0.154   0.690  12.185 -0.2904  0.2584 -1.2489
 8094TIP3    H245774   0.262   0.728  12.086  0.7132 -0.0872 -0.2970
 8095TIP3   OH245775   4.151   3.872   0.861  0.8912 -0.3431 -0.2145
 8095TIP3    H145776   4.228   3.901   0.812  1.4962 -0.6105  0.5846
 8095TIP3    H245777   4.129   3.787   0.821  1.6865 -0.7985  0.3002
 8096TIP3   OH245778   4.223   2.607   3.533 -0.2360  0.3404 -0.4138
 8096TIP3    H145779   4.254   2.627   3.445  1.5946  2.8699  0.7664
 8096TIP3    H245780   4.267   2.525   3.556 -1.0181 -0.5456 -1.9398
 8097TIP3   OH245781   2.125   1.780  15.151  0.3618 -0.1095 -0.0260
 8097TIP3    H145782   2.054   1.773  15.216  0.3472 -0.5976 -0.0924
 8097TIP3    H245783   2.127   1.873  15.128 -1.4831 -0.3850 -1.3946
 8098TIP3   OH245784   2.303   1.634  15.024 -0.0180 -0.2988 -0.0195
 8098TIP3    H145785   2.261   1.564  14.973  0.6272  0.8911 -2.2569
 8098TIP3    H245786   2.230   1.678  15.068 -0.4182 -2.3895  1.4737
 8099TIP3   OH245787   5.496   0.785   0.742  0.4959 -0.0272  0.3623
 8099TIP3    H145788   5.514   0.775   0.835  0.5305  1.5016  0.5449
 8099TIP3    H245789   5.400   0.780   0.736  0.5746 -1.4375  0.3024
 8100TIP3   OH245790   2.899   3.985  13.077 -0.4084  0.9156 -0.5073
 8100TIP3    H145791   2.975   3.929  13.094 -1.1548  0.3458  1.0697
 8100TIP3    H245792   2.839   3.929  13.028 -0.7241  0.6683  0.1635
 8101TIP3   OH245793   0.176   2.176  16.261  0.1458 -0.4654  0.1032
 8101TIP3    H145794   0.213   2.242  16.320 -1.9260 -0.1089  1.0390
 8101TIP3    H245795   0.127   2.227  16.196  2.0121 -0.8821 -1.6772
 8102TIP3   OH245796   2.524   1.756   1.815 -0.1727  0.3680  0.0268
 8102TIP3    H145797   2.601   1.762   1.759 -0.6552 -1.3175 -0.8743
 8102TIP3    H245798   2.482   1.674   1.788 -2.1380  1.1327  0.6777
 8103TIP3   OH245799   0.351   0.543   4.170  0.1598 -0.3192  0.1322
 8103TIP3    H145800   0.367   0.536   4.265  1.0007  0.1994  0.0318
 8103TIP3    H245801   0.434   0.517   4.130  0.2286  0.7751 -0.4424
 8104TIP3   OH245802   0.433   1.150  14.553 -0.0294  0.2947 -0.1525
 8104TIP3    H145803   0.391   1.211  14.614  0.7133  0.6604 -0.0003
 8104TIP3    H245804   0.509   1.198  14.520  0.6212 -0.5813  0.0484
 8105TIP3   OH245805   1.603   4.332  14.464  0.7956  0.8654 -0.2083
 8105TIP3    H145806   1.614   4.239  14.483 -0.7431  0.3014 -1.8349
 8105TIP3    H245807   1.526   4.335  14.406 -0.4502  3.3428  1.4769
 8106TIP3   OH245808   1.759   2.123   0.969 -0.0306 -0.4197 -0.9710
 8106TIP3    H145809   1.800   2.120   1.055 -0.2495  0.5444 -0.8317
 8106TIP3    H245810   1.784   2.040   0.928 -2.3495 -2.2056  1.1124
 8107TIP3   OH245811   3.438   4.150   0.972  0.0878  0.6052 -0.0652
 8107TIP3    H145812   3.500   4.078   0.960  0.7096  0.9288  1.1488
 8107TIP3    H245813   3.395   4.131   1.056 -1.3769  0.4494 -0.8309
 8108TIP3   OH245814   1.993   2.784  15.085  0.1761  0.1413  0.1389
 8108TIP3    H145815   2.071   2.753  15.038 -0.7088  0.8123 -1.8153
 8108TIP3    H245816   2.020   2.787  15.177  1.9875 -1.0760 -0.3273
 8109TIP3   OH245817   6.073   0.475  15.453  0.4555  0.0766  0.2583
 8109TIP3    H145818   6.107   0.404  15.397  3.7373  0.0875  2.1290
 8109TIP3    H245819   6.053   0.546  15.392  1.1613 -0.9706 -1.2301
 8110TIP3   OH245820   5.830   1.370   5.570 -0.1295  0.0221  0.3269
 8110TIP3    H145821   5.782   1.411   5.498 -0.0088 -1.4835 -0.6326
 8110TIP3    H245822   5.890   1.309   5.528  0.9221  0.1117  1.6435
 8111TIP3   OH245823   1.873   5.155  10.844 -0.5746  0.1409 -0.2239
 8111TIP3    H145824   1.870   5.249  10.827  1.9888  0.7726  2.5859
 8111TIP3    H245825   1.802   5.139  10.906 -0.0381  0.4952  0.4825
 8112TIP3   OH245826   2.383   2.995  15.632 -0.4700  0.5597 -0.1845
 8112TIP3    H145827   2.446   2.954  15.573 -0.3327  0.1231  0.2623
 8112TIP3    H245828   2.409   2.966  15.720 -0.9914  0.7766  0.0468
 8113TIP3   OH245829   3.701   1.742  12.744  0.0019  0.2392  0.3581
 8113TIP3    H145830   3.619   1.765  12.788  0.3595  0.6610  0.8049
 8113TIP3    H245831   3.740   1.674  12.800  1.0319  1.6086  1.3555
 8114TIP3   OH245832   5.393   1.389   4.417 -0.4157  0.1904 -0.2207
 8114TIP3    H145833   5.479   1.430   4.419 -1.1849  1.8492 -0.4377
 8114TIP3    H245834   5.370   1.377   4.509 -1.3042  2.7295 -0.0519
 8115TIP3   OH245835   3.248   6.474  11.879 -0.4554 -0.3893  0.3508
 8115TIP3    H145836   3.262   6.540  11.812 -1.4831  0.3047  0.8049
 8115TIP3    H245837   3.333   6.467  11.923  0.1839 -0.7543 -0.9179
 8116TIP3   OH245838   0.146   6.560  10.600 -0.1576  0.3409  0.4053
 8116TIP3    H145839   0.136   6.607  10.517 -1.0188  0.1026  0.3705
 8116TIP3    H245840   0.163   6.628  10.665  0.4259  0.5363  0.0534
 8117TIP3   OH245841   3.461   3.030   6.465  0.8213 -0.3985 -0.8187
 8117TIP3    H145842   3.375   3.038   6.507  1.0130 -1.8330 -0.1265
 8117TIP3    H245843   3.513   3.101   6.503  0.6207 -0.9409  0.5012
 8118TIP3   OH245844   0.674   2.880  13.303  0.0349 -0.0679 -0.4621
 8118TIP3    H145845   0.753   2.853  13.255  0.1799 -0.3083 -0.0912
 8118TIP3    H245846   0.706   2.900  13.391 -0.3921 -0.5604 -0.2008
 8119TIP3   OH245847   4.868   6.002  12.179  0.2384  0.1375 -0.4765
 8119TIP3    H145848   4.902   6.074  12.231  0.6685  0.6863 -1.4872
 8119TIP3    H245849   4.913   5.925  12.212  0.7419  0.5249 -0.2464
 8120TIP3   OH245850   2.380   1.920   6.160  0.2157 -0.5967  0.0858
 8120TIP3    H145851   2.440   1.904   6.233 -0.8716  2.7523  1.8598
 8120TIP3    H245852   2.299   1.876   6.185 -0.0784  0.3450  0.8266
 8121TIP3   OH245853   0.897   4.315   6.052 -0.0024  0.9587 -0.4259
 8121TIP3    H145854   0.955   4.267   6.110  1.1253  1.8707 -0.7943
 8121TIP3    H245855   0.817   4.329   6.104  0.5959  0.8372  0.5283
 8122TIP3   OH245856   0.803   1.282  17.047  0.0281 -0.3547  0.0457
 8122TIP3    H145857   0.864   1.229  17.099 -0.1251  0.8455  1.5072
 8122TIP3    H245858   0.859   1.330  16.986  0.5695  0.5865  1.2460
 8123TIP3   OH245859   0.549   4.080   1.946  0.5090  0.0360 -0.0691
 8123TIP3    H145860   0.621   4.142   1.959  1.2475 -0.7342 -0.4530
 8123TIP3    H245861   0.481   4.131   1.902  1.1887  0.5200 -0.5693
 8124TIP3   OH245862   4.133   3.816  10.962  0.2323  0.3166  0.1099
 8124TIP3    H145863   4.093   3.730  10.949 -0.1707  0.8753 -2.5853
 8124TIP3    H245864   4.148   3.821  11.057 -0.8163 -2.2245  0.4575
 8125TIP3   OH245865   0.800   1.652   2.718 -0.2364 -0.2341 -0.4939
 8125TIP3    H145866   0.842   1.719   2.665 -1.7385  1.1183 -0.0378
 8125TIP3    H245867   0.848   1.652   2.801  1.6681 -1.8594 -1.5833
 8126TIP3   OH245868   3.974   3.553  15.182  0.0697  0.5425  0.1116
 8126TIP3    H145869   3.899   3.570  15.126 -0.1368 -0.4623  0.0678
 8126TIP3    H245870   4.028   3.492  15.132  0.8887  1.2101  0.1665
 8127TIP3   OH245871   2.756   0.109  16.411 -0.3830 -0.1632  0.0150
 8127TIP3    H145872   2.672   0.137  16.374 -0.2368 -1.9511 -1.7746
 8127TIP3    H245873   2.739   0.098  16.504 -2.6925 -2.4409 -0.6459
 8128TIP3   OH245874   5.929   3.592   4.216 -0.0715 -0.0017  0.3661
 8128TIP3    H145875   6.005   3.591   4.158  1.8955 -0.9302  2.9014
 8128TIP3    H245876   5.909   3.685   4.227  1.7995  0.3234  1.0807
 8129TIP3   OH245877   6.187   0.763   4.462  0.2507 -0.4068 -0.1644
 8129TIP3    H145878   6.186   0.844   4.513 -0.7200  1.0028 -2.3503
 8129TIP3    H245879   6.100   0.725   4.477 -0.1305  0.1399 -0.9264
 8130TIP3   OH245880   4.055   5.996  15.288 -0.1912 -0.0172  0.4475
 8130TIP3    H145881   3.983   5.973  15.347 -0.7467  1.4200  0.3538
 8130TIP3    H245882   4.132   5.998  15.345 -0.4658 -0.1589  0.8311
 8131TIP3   OH245883   4.949   0.519  14.147 -0.2331 -0.0205 -0.2912
 8131TIP3    H145884   4.914   0.456  14.211 -0.5426 -1.0452 -1.4289
 8131TIP3    H245885   4.888   0.592  14.150  0.2840  0.3658  1.2558
 8132TIP3   OH245886   2.694   4.633   5.615 -0.0039 -0.0734 -0.2123
 8132TIP3    H145887   2.736   4.558   5.572  0.9151 -1.1327  2.4586
 8132TIP3    H245888   2.765   4.696   5.627 -0.6895  1.0764 -2.0692
 8133TIP3   OH245889   4.940   6.608  17.261 -0.2312 -0.5737 -0.5147
 8133TIP3    H145890   5.030   6.596  17.289 -0.1194 -1.3275 -1.1642
 8133TIP3    H245891   4.935   6.564  17.175 -0.3828  2.2070 -1.9917
 8134TIP3   OH245892   1.814   2.620  10.464 -0.0496  0.0988 -0.1185
 8134TIP3    H145893   1.772   2.563  10.400  1.1130 -0.0794 -0.7293
 8134TIP3    H245894   1.778   2.592  10.548 -1.2508  0.0394 -0.6352
 8135TIP3   OH245895   5.310   0.824   3.012  0.9649 -0.0006  0.2266
 8135TIP3    H145896   5.284   0.891   3.077  0.0746  0.1567 -0.2793
 8135TIP3    H245897   5.234   0.817   2.955  1.2682 -1.0748 -0.0380
 8136TIP3   OH245898   5.854   2.090   0.249 -0.1007 -0.3441  0.2921
 8136TIP3    H145899   5.917   2.114   0.181  0.1399 -0.7796  0.3627
 8136TIP3    H245900   5.803   2.019   0.210  0.6540 -1.2317  0.9161
 8137TIP3   OH245901   6.626   3.361   0.446 -0.3670 -0.0650 -0.3081
 8137TIP3    H145902   6.553   3.412   0.412 -1.1695 -0.9342  0.0910
 8137TIP3    H245903   6.587   3.303   0.511  0.7570 -0.1852  0.2773
 8138TIP3   OH245904   1.010   2.216   5.999 -0.3807  0.2099 -0.0125
 8138TIP3    H145905   0.963   2.182   6.075 -0.2102 -0.4957 -0.2172
 8138TIP3    H245906   0.948   2.206   5.926 -1.1016  2.2719  0.2921
 8139TIP3   OH245907   2.832   4.020  16.112 -0.0362 -0.3650  0.0230
 8139TIP3    H145908   2.919   4.054  16.091  1.0109  0.0355  4.6044
 8139TIP3    H245909   2.774   4.094  16.099  0.8140  0.3545  0.2394
 8140TIP3   OH245910   2.698   0.210   1.584 -0.1784  0.3190 -0.0222
 8140TIP3    H145911   2.773   0.161   1.550  0.6242  0.5638  1.4029
 8140TIP3    H245912   2.626   0.185   1.525  1.0125  0.1488 -1.4520
 8141TIP3   OH245913   5.862   3.696  13.246  0.2469 -0.3183 -0.0106
 8141TIP3    H145914   5.809   3.623  13.214 -0.0013 -0.7984  1.4738
 8141TIP3    H245915   5.858   3.689  13.341 -0.3213  2.0133  0.1618
 8142TIP3   OH245916   0.779   3.612   4.347 -0.6298  0.1593  0.1139
 8142TIP3    H145917   0.756   3.553   4.419 -0.6476  0.7987  0.6323
 8142TIP3    H245918   0.696   3.626   4.301 -0.9024  0.9061  0.8278
 8143TIP3   OH245919   2.916   5.208   3.152  0.1789  0.0180 -0.0560
 8143TIP3    H145920   2.834   5.160   3.157  0.6298 -0.8698 -1.0954
 8143TIP3    H245921   2.893   5.298   3.175 -0.9660 -0.3612  0.2708
 8144TIP3   OH245922   6.196   2.237  12.252 -0.1034 -0.7061  0.0251
 8144TIP3    H145923   6.226   2.324  12.224  0.1277 -1.7513 -3.1981
 8144TIP3    H245924   6.268   2.204  12.306  1.5575 -0.4271 -1.9523
 8145TIP3   OH245925   0.869   3.611  14.075 -0.0547 -0.1545  0.6634
 8145TIP3    H145926   0.937   3.612  14.008 -0.4212 -1.1665  0.2825
 8145TIP3    H245927   0.791   3.646  14.032 -0.2319 -0.5974  0.6218
 8146TIP3   OH245928   1.878   2.770   4.162 -0.0951 -0.2302 -0.1870
 8146TIP3    H145929   1.840   2.738   4.244 -0.4751 -0.5939 -0.5024
 8146TIP3    H245930   1.911   2.857   4.183 -1.2065  0.1464  0.0757
 8147TIP3   OH245931   1.004   4.735  14.941 -0.0608  0.2053 -0.3453
 8147TIP3    H145932   0.959   4.651  14.954  0.3885  0.0272  0.1062
 8147TIP3    H245933   0.951   4.798  14.990  0.8886 -0.2346  1.2934
 8148TIP3   OH245934   3.858   1.952  11.602 -0.2680 -0.1816  0.3617
 8148TIP3    H145935   3.844   2.036  11.644  0.0329  0.8216 -1.5095
 8148TIP3    H245936   3.948   1.928  11.624  0.2670  0.8827 -0.6408
 8149TIP3   OH245937   5.314   3.391  13.460 -0.2341 -0.1010  0.1766
 8149TIP3    H145938   5.233   3.343  13.447  0.5760 -1.5730  0.3813
 8149TIP3    H245939   5.379   3.342  13.410  0.8492  0.1204  1.3457
 8150TIP3   OH245940   5.098   1.167   0.665 -0.2166 -0.2342 -0.2597
 8150TIP3    H145941   5.054   1.115   0.599 -0.9629 -2.2184  1.7556
 8150TIP3    H245942   5.033   1.178   0.734  0.9142  0.8445  0.6549
 8151TIP3   OH245943   1.896   1.765  14.027 -0.2264 -0.5203  0.3863
 8151TIP3    H145944   1.955   1.696  14.059 -0.1936 -0.3070  0.7862
 8151TIP3    H245945   1.950   1.844  14.027 -0.4113 -0.3953  0.4055
 8152TIP3   OH245946   3.010   5.258  14.633  0.3184 -0.5442  0.2060
 8152TIP3    H145947   3.104   5.276  14.623  0.7077 -2.4889  0.1464
 8152TIP3    H245948   2.975   5.335  14.676  1.5710  1.1031 -1.6539
 8153TIP3   OH245949   0.131   3.006   2.659 -0.2487  0.0623 -0.8862
 8153TIP3    H145950   0.093   2.947   2.724 -1.2752  0.5195 -1.0604
 8153TIP3    H245951   0.094   2.977   2.575  0.7198 -0.2410 -1.2177
 8154TIP3   OH245952   3.707   0.392   5.724 -0.2072  0.5812 -0.3291
 8154TIP3    H145953   3.664   0.307   5.709 -0.1050  0.4784 -0.0479
 8154TIP3    H245954   3.714   0.398   5.819 -0.0983  0.8502 -0.3543
 8155TIP3   OH245955   0.382   3.807  15.287  0.2780 -0.3560  0.1927
 8155TIP3    H145956   0.389   3.748  15.213  3.4458 -0.3965  0.4359
 8155TIP3    H245957   0.413   3.756  15.362 -0.2547  0.5347  1.0398
 8156TIP3   OH245958   6.010   5.518   3.704 -0.2992  0.2524 -0.3783
 8156TIP3    H145959   6.073   5.464   3.750  1.1616  1.8428 -0.4836
 8156TIP3    H245960   6.047   5.606   3.705 -1.8024  0.9395 -1.7229
 8157TIP3   OH245961   3.210   6.218  15.238 -0.2242 -0.5038  0.1091
 8157TIP3    H145962   3.203   6.131  15.278  0.0106 -0.4354  0.3024
 8157TIP3    H245963   3.173   6.277  15.304  0.1181 -0.3951  0.2029
 8158TIP3   OH245964   3.681   0.976   3.603 -0.3775 -0.0931 -0.2926
 8158TIP3    H145965   3.762   0.966   3.553  1.6544  1.5277  2.5308
 8158TIP3    H245966   3.696   0.927   3.684 -1.1143  2.4220  1.4396
 8159TIP3   OH245967   6.171   5.777  11.066  0.2647 -0.2059  0.3808
 8159TIP3    H145968   6.216   5.827  11.135  1.0600  0.6384 -0.7305
 8159TIP3    H245969   6.161   5.840  10.994  1.2979 -1.6330 -1.0557
 8160TIP3   OH245970   5.757   5.289   2.934  0.3606  0.0994  0.1131
 8160TIP3    H145971   5.829   5.348   2.910 -0.9673  1.6844 -0.0261
 8160TIP3    H245972   5.740   5.308   3.026 -0.8081  0.7212 -0.2312
 8161TIP3   OH245973   0.552   1.321   6.112  0.1571 -0.5957 -0.1939
 8161TIP3    H145974   0.628   1.378   6.126  0.5898 -1.1760 -0.1458
 8161TIP3    H245975   0.477   1.380   6.109  0.6434  0.0080 -0.4896
 8162TIP3   OH245976   5.997   5.177   5.223  0.4162 -0.0068  0.1679
 8162TIP3    H145977   5.996   5.209   5.132  0.2650  2.6627  1.0673
 8162TIP3    H245978   5.905   5.170   5.247  0.4671  0.9918  0.6749
 8163TIP3   OH245979   3.353   4.482   3.720  0.0222 -0.2638  0.2081
 8163TIP3    H145980   3.297   4.409   3.695  0.9083 -0.7752 -0.3069
 8163TIP3    H245981   3.346   4.486   3.816 -0.0531 -1.0014  0.2354
 8164TIP3   OH245982   6.523   2.282   2.767  0.0729 -0.0902  0.2096
 8164TIP3    H145983   6.530   2.236   2.850 -0.8030 -1.2757 -0.3540
 8164TIP3    H245984   6.518   2.213   2.701 -2.0762  0.7603 -0.5890
 8165TIP3   OH245985   4.862   6.727   3.788 -0.2884 -0.6553 -0.4012
 8165TIP3    H145986   4.864   6.817   3.754 -0.1551 -1.0149 -1.3660
 8165TIP3    H245987   4.855   6.738   3.883 -0.6087  0.3712 -0.5302
 8166TIP3   OH245988   4.937   4.914   4.139  0.2157 -0.0375  0.2737
 8166TIP3    H145989   4.967   4.984   4.081  0.3056  0.6706  1.1654
 8166TIP3    H245990   4.995   4.919   4.214  0.6639 -1.5372  0.0299
 8167TIP3   OH245991   3.207   6.385   2.305  0.2452 -0.0501  0.0210
 8167TIP3    H145992   3.150   6.310   2.285  1.7056 -1.1224 -0.2269
 8167TIP3    H245993   3.150   6.461   2.294 -1.0576 -1.0643 -0.5378
 8168TIP3   OH245994   0.852   3.306   2.600 -0.2895 -0.2484 -0.3061
 8168TIP3    H145995   0.844   3.316   2.695 -0.1221 -0.2013 -0.2972
 8168TIP3    H245996   0.764   3.323   2.567  0.2331  2.4667 -0.3935
 8169TIP3   OH245997   2.858   6.423   2.471  0.8319  0.5907  0.0429
 8169TIP3    H145998   2.946   6.416   2.508  1.0453 -0.7009 -0.6856
 8169TIP3    H245999   2.821   6.502   2.511  2.0702  0.7568  0.8700
 8170TIP3   OH246000   1.164   5.816  16.117 -0.5999 -0.0493  0.4484
 8170TIP3    H146001   1.075   5.786  16.134 -0.4718 -1.0772 -0.6674
 8170TIP3    H246002   1.218   5.737  16.120 -0.0153  0.2822 -0.7927
 8171TIP3   OH246003   5.207   2.592  14.913  0.1960  0.7438 -0.3148
 8171TIP3    H146004   5.303   2.595  14.913  0.2413 -0.6057 -0.2896
 8171TIP3    H246005   5.184   2.548  14.995 -0.4547  1.2400 -0.2257
 8172TIP3   OH246006   6.754   0.974  13.578 -0.7773 -0.0171 -0.0946
 8172TIP3    H146007   6.795   1.061  13.575  0.9183 -0.7439  1.1110
 8172TIP3    H246008   6.752   0.953  13.671 -0.8531 -1.4150 -0.4147
 8173TIP3   OH246009   2.370   6.475   3.221  0.3415 -0.6161 -0.4202
 8173TIP3    H146010   2.358   6.384   3.194  2.7521 -1.5410  1.4513
 8173TIP3    H246011   2.315   6.485   3.298  0.7024 -0.7631 -0.1374
 8174TIP3   OH246012   6.239   1.209  12.950  0.0092 -0.7682 -0.1963
 8174TIP3    H146013   6.282   1.210  13.036 -1.9180 -0.2937  0.7849
 8174TIP3    H246014   6.308   1.233  12.888  1.1143  0.1431  1.3682
 8175TIP3   OH246015   0.956   0.414  11.611 -0.1146  0.1677 -0.2861
 8175TIP3    H146016   0.894   0.386  11.678 -1.0478 -0.2163 -1.2998
 8175TIP3    H246017   1.034   0.362  11.628 -0.4353 -0.1247  0.3348
 8176TIP3   OH246018   3.051   0.867  13.995  0.4259 -0.5620 -0.2785
 8176TIP3    H146019   2.965   0.867  13.952  0.8460  1.7044 -1.1869
 8176TIP3    H246020   3.113   0.856  13.924  0.9262 -1.2809  0.2699
 8177TIP3   OH246021   0.738   4.761   2.740  0.5731  0.1443  0.0210
 8177TIP3    H146022   0.740   4.842   2.792 -0.3657 -0.3269  0.8042
 8177TIP3    H246023   0.645   4.741   2.731  0.7614 -0.1815 -1.2315
 8178TIP3   OH246024   3.178   1.252   3.768  0.5955  0.0176  0.3250
 8178TIP3    H146025   3.270   1.257   3.794  0.5649  0.2568  0.3886
 8178TIP3    H246026   3.129   1.263   3.850  0.5100 -0.1607  0.2984
 8179TIP3   OH246027   4.341   3.844  12.275 -0.3473  0.2185 -0.0318
 8179TIP3    H146028   4.395   3.889  12.210 -2.4505  1.4698 -0.9781
 8179TIP3    H246029   4.330   3.908  12.345 -0.4936 -0.0614  0.2013
 8180TIP3   OH246030   2.504   0.709   5.131  0.6464  0.9036 -0.1149
 8180TIP3    H146031   2.486   0.615   5.135  0.7674  0.9375  1.6591
 8180TIP3    H246032   2.432   0.745   5.079  1.1337 -0.2845 -1.6566
 8181TIP3   OH246033   6.674   1.382  10.972 -0.4007 -0.1152 -0.2619
 8181TIP3    H146034   6.757   1.429  10.960 -0.6647  0.7180  1.1244
 8181TIP3    H246035   6.697   1.309  11.030 -0.7551  0.5000  0.6691
 8182TIP3   OH246036   3.766   0.832   1.960  0.1656  0.4286 -0.2604
 8182TIP3    H146037   3.847   0.786   1.983  0.6223  0.7778 -1.1160
 8182TIP3    H246038   3.784   0.924   1.983 -0.3237  0.3716  0.3806
 8183TIP3   OH246039   4.868   6.788   5.114 -0.6784  0.1749  0.2998
 8183TIP3    H146040   4.777   6.806   5.090 -0.7018  0.6238  0.7230
 8183TIP3    H246041   4.866   6.777   5.209 -0.0304  1.7912  0.5174
 8184TIP3   OH246042   6.432   1.291   0.557  0.2521  0.2436 -0.5169
 8184TIP3    H146043   6.414   1.294   0.651 -1.8566  0.2627 -0.9085
 8184TIP3    H246044   6.464   1.202   0.542 -0.1111  0.0108  0.0925
 8185TIP3   OH246045   2.510   5.931  11.466  0.0473  0.2360 -0.0971
 8185TIP3    H146046   2.511   5.999  11.534  1.6259  0.6471 -0.4998
 8185TIP3    H246047   2.535   5.978  11.386  2.6738 -1.0633 -0.1022
 8186TIP3   OH246048   3.165   5.824  14.531 -0.7367  0.4051  0.0055
 8186TIP3    H146049   3.145   5.914  14.505 -1.4266 -0.3814 -2.2676
 8186TIP3    H246050   3.250   5.805  14.492 -0.3558  0.2411  0.9054
 8187TIP3   OH246051   3.455   5.741   2.906  0.4941  0.1131  0.0267
 8187TIP3    H146052   3.472   5.658   2.861 -1.6909 -0.1683 -0.3419
 8187TIP3    H246053   3.381   5.721   2.964 -1.1194  2.2006 -1.2622
 8188TIP3   OH246054   3.088   4.206  16.582 -0.0038 -0.2400  0.9315
 8188TIP3    H146055   3.042   4.288  16.568  2.2481  0.9094  0.0438
 8188TIP3    H246056   3.018   4.141  16.591 -1.8123  1.6993  1.3784
 8189TIP3   OH246057   0.547   1.580   0.245  0.1022  0.2531 -0.3490
 8189TIP3    H146058   0.558   1.588   0.339 -0.3956  0.5729 -0.3132
 8189TIP3    H246059   0.477   1.642   0.224  0.8440  0.8740 -1.0589
 8190TIP3   OH246060   2.731   1.977  12.731 -0.1051 -0.1043  0.6150
 8190TIP3    H146061   2.728   2.024  12.814 -0.4209  0.0010  0.5439
 8190TIP3    H246062   2.729   2.046  12.664  1.8532 -0.1036  0.5276
 8191TIP3   OH246063   5.933   2.723   5.261  0.2073 -0.0508  0.3169
 8191TIP3    H146064   5.943   2.727   5.356  0.8629 -0.1395  0.2516
 8191TIP3    H246065   5.903   2.811   5.237 -2.9906 -0.8943  0.9361
 8192TIP3   OH246066   4.997   5.967   5.456  0.2582  0.8984  0.4445
 8192TIP3    H146067   5.085   5.930   5.453 -0.3339 -0.6470  1.3805
 8192TIP3    H246068   4.945   5.908   5.402 -0.3035  1.5199  0.2999
 8193TIP3   OH246069   2.723   5.564   2.245  0.1317  0.6317 -0.2003
 8193TIP3    H146070   2.783   5.566   2.319  0.0225 -0.7548 -0.0741
 8193TIP3    H246071   2.636   5.570   2.284  0.1043  0.7140 -0.2722
 8194TIP3   OH246072   0.137   0.591   2.383 -0.1830 -0.0359  0.2582
 8194TIP3    H146073   0.159   0.667   2.330 -1.2705  0.5301  0.5940
 8194TIP3    H246074   0.045   0.604   2.406  0.0587 -0.6516  1.6343
 8195TIP3   OH246075   4.390   0.302  11.726 -0.2499  0.5371 -0.2858
 8195TIP3    H146076   4.351   0.254  11.653  0.5887 -0.6046  0.0085
 8195TIP3    H246077   4.403   0.391  11.692 -0.8416  0.2968 -1.1671
 8196TIP3   OH246078   0.242   4.208  16.531 -0.5749 -0.0774  0.2618
 8196TIP3    H146079   0.257   4.203  16.437 -0.4726  0.2637  0.2608
 8196TIP3    H246080   0.330   4.215  16.569 -0.6662  0.7225  0.3233
 8197TIP3   OH246081   6.261   5.018  11.994 -0.2921 -0.1519  0.0541
 8197TIP3    H146082   6.284   5.090  11.935  1.5991  0.0216  0.9554
 8197TIP3    H246083   6.248   5.060  12.079 -1.8080 -0.5507  0.0276
 8198TIP3   OH246084   0.526   6.271  11.919  0.2382 -0.3187  0.0755
 8198TIP3    H146085   0.518   6.298  12.011 -0.6336  1.0478 -0.3870
 8198TIP3    H246086   0.474   6.334  11.871  3.1198  0.8168 -1.6958
 8199TIP3   OH246087   5.461   0.028  12.872 -0.4333 -0.2782  0.2418
 8199TIP3    H146088   5.443   0.100  12.932  0.3449 -0.5293  0.7811
 8199TIP3    H246089   5.537  -0.017  12.910  0.3779 -0.1366 -1.1997
 8200TIP3   OH246090   6.801   6.557  16.048 -0.2794 -0.4663 -0.5667
 8200TIP3    H146091   6.708   6.539  16.062 -0.1740  0.2233  1.1624
 8200TIP3    H246092   6.824   6.619  16.117  1.6624 -1.2553 -0.4863
 8201TIP3   OH246093   6.377   3.534   2.775  0.5574 -0.8310 -0.2013
 8201TIP3    H146094   6.458   3.546   2.725  1.1629 -0.5828  0.8187
 8201TIP3    H246095   6.350   3.624   2.797  1.2811 -1.0107  1.4618
 8202TIP3   OH246096   0.241   5.883   5.903  0.0979  0.0484 -0.7034
 8202TIP3    H146097   0.315   5.870   5.963 -1.1526  2.2012  1.3739
 8202TIP3    H246098   0.250   5.973   5.873 -2.3015  0.7155  0.4669
 8203TIP3   OH246099   0.227   3.736   1.682 -0.3190  0.1744 -0.3574
 8203TIP3    H146100   0.299   3.689   1.639 -0.3971  0.4939 -0.8269
 8203TIP3    H246101   0.184   3.668   1.734 -0.7812 -0.4046 -1.4800
 8204TIP3   OH246102   3.072   0.131  15.886  0.0606 -0.4373  0.3218
 8204TIP3    H146103   3.045   0.220  15.864  0.5295  0.6219  3.7816
 8204TIP3    H246104   2.991   0.079  15.876 -0.3533  0.4606 -1.1211
 8205TIP3   OH246105   2.369   5.342   3.717  0.4236  0.3342 -0.3754
 8205TIP3    H146106   2.417   5.413   3.760 -0.0876  0.3773  0.1262
 8205TIP3    H246107   2.349   5.281   3.788 -0.8087  0.6203 -0.4679
 8206TIP3   OH246108   1.812   2.761  15.928 -0.1469 -0.2706  0.0034
 8206TIP3    H146109   1.891   2.816  15.932  0.3506 -0.9237 -0.6979
 8206TIP3    H246110   1.804   2.737  15.835 -0.0859 -1.7649  0.3673
 8207TIP3   OH246111   3.227   2.173  11.198  0.1715  1.0757  0.3844
 8207TIP3    H146112   3.245   2.089  11.240  0.5255  0.9162 -0.0890
 8207TIP3    H246113   3.133   2.172  11.180  0.3193  0.4586 -0.3371
 8208TIP3   OH246114   0.457   0.933   2.131  0.0711 -0.4119  0.4028
 8208TIP3    H146115   0.531   0.901   2.184  0.1644  1.0185  1.1452
 8208TIP3    H246116   0.447   0.866   2.063  1.5109 -1.0488  0.7800
 8209TIP3   OH246117   4.750   6.005   3.639 -0.0364  0.2340  0.4254
 8209TIP3    H146118   4.830   6.049   3.667 -0.0622  0.2530  0.4680
 8209TIP3    H246119   4.715   5.966   3.719 -0.8145  1.4064  0.6689
 8210TIP3   OH246120   4.079   3.659   5.113 -0.2558  0.7587  0.1856
 8210TIP3    H146121   4.036   3.589   5.163  1.3565 -0.7012 -0.4169
 8210TIP3    H246122   4.163   3.622   5.087 -0.0582  2.3518 -1.5708
 8211TIP3   OH246123   5.840   0.943   6.555 -0.3011  0.0607  0.3946
 8211TIP3    H146124   5.929   0.978   6.548 -0.6503  0.9404  0.3218
 8211TIP3    H246125   5.847   0.853   6.522  0.1251  0.8595 -1.8221
 8212TIP3   OH246126   1.230   3.454   2.114  0.5484  0.4191  0.1539
 8212TIP3    H146127   1.313   3.493   2.085  0.0129  1.1840 -0.3851
 8212TIP3    H246128   1.181   3.527   2.151 -0.3805  0.2170 -0.6580
 8213TIP3   OH246129   4.363   2.944  11.138  0.1369  0.0530  0.1894
 8213TIP3    H146130   4.397   2.986  11.059 -0.6663  0.6681  0.1665
 8213TIP3    H246131   4.351   2.852  11.112  0.7237  0.0588 -0.1282
 8214TIP3   OH246132   2.494   0.252  12.422 -0.3118  0.2571  0.7669
 8214TIP3    H146133   2.477   0.207  12.339  0.4591 -0.1052  0.8060
 8214TIP3    H246134   2.588   0.268  12.422 -0.2253 -0.2283  1.8216
 8215TIP3   OH246135   1.352   6.818   0.676  0.0038  0.4475 -0.4259
 8215TIP3    H146136   1.403   6.841   0.599  0.7578  1.7038  0.4367
 8215TIP3    H246137   1.371   6.887   0.740 -2.1869  0.5535  0.1755
 8216TIP3   OH246138   5.305   2.368   4.641  0.2681  0.3388 -0.2595
 8216TIP3    H146139   5.362   2.293   4.660 -0.6225 -0.3904 -0.4834
 8216TIP3    H246140   5.337   2.401   4.557  1.4316  0.9511  0.4010
 8217TIP3   OH246141   4.834   2.280  11.442 -0.3244 -0.3725  0.1369
 8217TIP3    H146142   4.875   2.306  11.359  1.2578  0.3470  1.1131
 8217TIP3    H246143   4.812   2.188  11.429 -0.1690 -0.2397 -1.1263
 8218TIP3   OH246144   3.346   0.348  12.572 -0.1573  0.2266  0.1995
 8218TIP3    H146145   3.413   0.323  12.636 -0.7610 -0.9877  0.3748
 8218TIP3    H246146   3.263   0.331  12.615 -0.5844  0.9194 -0.3340
 8219TIP3   OH246147   6.725   5.608  16.835  0.6762  0.2835 -0.4623
 8219TIP3    H146148   6.780   5.541  16.875  1.0300  2.1066  2.3051
 8219TIP3    H246149   6.787   5.676  16.807  0.2180  0.0990 -1.9507
 8220TIP3   OH246150   5.798   1.051  11.262  0.0724  0.0819  0.5427
 8220TIP3    H146151   5.836   1.138  11.265  1.0833 -0.3807  1.9419
 8220TIP3    H246152   5.869   0.993  11.290 -0.7292 -1.1248  0.1161
 8221TIP3   OH246153   2.780   2.389   0.719  0.0626 -0.5760 -0.2696
 8221TIP3    H146154   2.704   2.442   0.745 -0.2004 -0.5405 -1.0777
 8221TIP3    H246155   2.741   2.313   0.676  0.4765 -0.8171 -0.2148
 8222TIP3   OH246156   5.638   1.942  12.302 -0.5415 -0.1668 -0.2690
 8222TIP3    H146157   5.701   1.913  12.235  0.0959  1.7355 -0.5298
 8222TIP3    H246158   5.625   2.035  12.283 -1.1569  0.1442  1.6162
 8223TIP3   OH246159   4.749   3.407   5.160 -0.0070 -0.1225 -0.3485
 8223TIP3    H146160   4.695   3.483   5.183 -0.0319 -0.0385 -0.6760
 8223TIP3    H246161   4.697   3.332   5.189 -0.5933 -0.0688 -1.2254
 8224TIP3   OH246162   1.587   4.002  11.559  0.0523  0.2062 -0.5790
 8224TIP3    H146163   1.656   3.941  11.534  0.4990 -0.2109  1.5390
 8224TIP3    H246164   1.625   4.089  11.546  1.6324 -0.0188  2.1647
 8225TIP3   OH246165   6.494   5.745  16.836 -0.3498 -0.2155 -0.1303
 8225TIP3    H146166   6.512   5.820  16.892  0.8053  0.4619 -1.3837
 8225TIP3    H246167   6.577   5.696  16.834 -0.7219 -0.8540 -0.3223
 8226TIP3   OH246168   5.972   4.527  11.834 -0.0902 -0.1955 -0.2199
 8226TIP3    H146169   5.998   4.527  11.742 -3.8471 -1.5285 -1.3801
 8226TIP3    H246170   5.928   4.612  11.847  0.5341  0.0421  0.4131
 8227TIP3   OH246171   0.608   3.885  14.729  0.6746 -0.5132 -0.1019
 8227TIP3    H146172   0.598   3.872  14.634 -2.4890 -0.9342  0.2601
 8227TIP3    H246173   0.643   3.803  14.761  1.8959 -0.3246 -0.9112
 8228TIP3   OH246174   4.654   4.423   3.333 -0.5583  0.7569 -0.8267
 8228TIP3    H146175   4.654   4.346   3.275  0.1994  0.1415 -0.0317
 8228TIP3    H246176   4.575   4.413   3.386 -0.6058  0.6702 -0.9138
 8229TIP3   OH246177   3.400   1.561   0.817  0.1385  0.3582  0.1508
 8229TIP3    H146178   3.332   1.528   0.759  0.5627  1.0332 -0.7495
 8229TIP3    H246179   3.372   1.534   0.904 -1.5892  1.0940 -0.1324
 8230TIP3   OH246180   0.842   2.309   3.617 -0.0032 -0.2999 -0.7168
 8230TIP3    H146181   0.883   2.294   3.532  0.7995 -1.7415 -0.0880
 8230TIP3    H246182   0.749   2.313   3.598  0.0488 -2.1105 -1.4871
 8231TIP3   OH246183   4.562   6.422  11.933 -0.2727 -0.4687 -0.3213
 8231TIP3    H146184   4.523   6.338  11.958 -1.2581  0.2027  0.3988
 8231TIP3    H246185   4.491   6.485  11.940 -0.0708  0.0910 -2.9440
 8232TIP3   OH246186   2.029   3.273   2.798 -0.3224 -0.2405  0.6135
 8232TIP3    H146187   2.064   3.327   2.868 -0.6683  1.0072 -0.1529
 8232TIP3    H246188   2.098   3.273   2.731 -0.9492  0.5794 -0.0546
 8233TIP3   OH246189   1.906   6.143  15.890 -0.3116  0.1538 -0.0795
 8233TIP3    H146190   1.881   6.227  15.928 -0.3551 -0.0932  0.4465
 8233TIP3    H246191   1.914   6.084  15.965  0.2195 -0.1845 -0.3967
 8234TIP3   OH246192   6.487   4.748  11.697 -0.8048  0.3122 -0.1972
 8234TIP3    H146193   6.414   4.750  11.758 -1.4053  0.8123 -0.9254
 8234TIP3    H246194   6.504   4.840  11.677  0.9231  0.2823  1.0269
 8235TIP3   OH246195   2.440   3.078  13.210  0.1692 -0.8833 -0.1812
 8235TIP3    H146196   2.390   3.080  13.291  0.3110  0.2891 -0.1275
 8235TIP3    H246197   2.441   2.985  13.186 -0.2918 -1.1743  0.8878
 8236TIP3   OH246198   1.366   6.519   5.485  0.1310 -0.2443 -0.1036
 8236TIP3    H146199   1.340   6.561   5.403 -0.5407 -1.2599 -0.4133
 8236TIP3    H246200   1.338   6.428   5.475 -0.5832 -0.2046  1.5415
 8237TIP3   OH246201   5.405   0.595   4.260 -0.6790  0.0220 -0.0014
 8237TIP3    H146202   5.373   0.506   4.249 -1.3523  0.1720  0.7018
 8237TIP3    H246203   5.462   0.610   4.184 -1.2551 -0.6918 -0.5806
 8238TIP3   OH246204   3.083   0.162   4.596  0.1241 -0.0807 -0.5678
 8238TIP3    H146205   3.100   0.238   4.541 -0.1639  0.7280  0.4514
 8238TIP3    H246206   2.988   0.160   4.606  0.2654  0.5739  1.0161
 8239TIP3   OH246207   0.794   2.865  15.595 -0.2237 -0.2124 -0.2839
 8239TIP3    H146208   0.734   2.867  15.670 -1.8537  0.6386 -1.5851
 8239TIP3    H246209   0.750   2.811  15.530  1.0164 -0.6531 -0.7861
 8240TIP3   OH246210   3.169   0.567   5.110 -0.1178 -0.4317  0.0445
 8240TIP3    H146211   3.256   0.558   5.072 -0.6247  2.7744 -2.1309
 8240TIP3    H246212   3.113   0.511   5.056 -0.2540  1.5930 -2.0154
 8241TIP3   OH246213   5.283   5.008  15.279  0.3968 -0.3545 -0.7197
 8241TIP3    H146214   5.199   5.047  15.301  0.5736 -0.4001  0.0469
 8241TIP3    H246215   5.262   4.939  15.216 -0.0144  0.3552 -1.3579
 8242TIP3   OH246216   4.664   2.832  15.595 -0.1229 -0.2237  0.1862
 8242TIP3    H146217   4.674   2.848  15.501  0.5068 -1.5965  0.0024
 8242TIP3    H246218   4.753   2.817  15.627 -0.3975 -0.4597  0.8638
 8243TIP3   OH246219   4.734   3.996  16.481  0.1262  0.1362 -1.1421
 8243TIP3    H146220   4.793   4.060  16.519 -1.3711  1.9605 -1.8291
 8243TIP3    H246221   4.669   3.979  16.550 -1.5235  2.0585 -2.1730
 8244TIP3   OH246222   6.706   5.575  14.058 -0.1469  0.0701 -0.5278
 8244TIP3    H146223   6.745   5.489  14.077  0.2553  0.4274  0.3115
 8244TIP3    H246224   6.779   5.626  14.023 -0.0279  0.5112  0.3443
 8245TIP3   OH246225   0.044   2.364   3.309 -0.1445 -0.2912 -0.0342
 8245TIP3    H146226   0.115   2.395   3.253  0.3238 -0.8999  0.2138
 8245TIP3    H246227  -0.033   2.410   3.277  0.4940  0.9438  0.1780
 8246TIP3   OH246228   5.952   1.648   5.807  0.0184  0.4627 -0.1087
 8246TIP3    H146229   5.998   1.706   5.746  1.1364  0.4465  0.7114
 8246TIP3    H246230   5.988   1.670   5.893 -0.2831 -0.7448  0.3305
 8247TIP3   OH246231   5.146   2.526  13.490  0.4394 -0.0430 -0.1078
 8247TIP3    H146232   5.150   2.540  13.584  1.3734  0.1144 -0.1664
 8247TIP3    H246233   5.168   2.611  13.452  0.7067 -0.2732 -0.4713
 8248TIP3   OH246234   0.731   1.990  12.814 -0.4809 -0.3022  0.2669
 8248TIP3    H146235   0.810   2.000  12.868 -0.5430 -1.6478  0.6458
 8248TIP3    H246236   0.698   2.079  12.801  1.1966  0.2834 -0.0412
 8249TIP3   OH246237   4.380   2.734   5.815  0.4914  0.4265  0.4689
 8249TIP3    H146238   4.358   2.737   5.908 -0.5225 -3.2454  0.4081
 8249TIP3    H246239   4.405   2.643   5.799 -0.0470  0.8336 -3.0299
 8250TIP3   OH246240   3.743   3.105   3.337  0.2183 -0.4117  0.2621
 8250TIP3    H146241   3.688   3.043   3.291 -1.2917 -0.7852  2.4967
 8250TIP3    H246242   3.709   3.107   3.426  2.1046  1.4020  1.0081
 8251TIP3   OH246243   0.578   4.705   5.762 -0.4159 -0.2457 -0.6515
 8251TIP3    H146244   0.662   4.706   5.808 -1.1009  0.1428  0.6027
 8251TIP3    H246245   0.535   4.625   5.792 -2.3231  1.7250  2.0894
 8252TIP3   OH246246   5.363   0.249  14.061  0.3396 -0.5615  0.3589
 8252TIP3    H146247   5.342   0.245  13.967  0.8875 -1.1831  0.2596
 8252TIP3    H246248   5.420   0.326  14.068 -0.0495 -0.2584  0.2573
 8253TIP3   OH246249   3.237   0.199   3.314  0.2467 -0.1567 -0.0151
 8253TIP3    H146250   3.155   0.245   3.330 -0.3959 -1.2389 -0.1391
 8253TIP3    H246251   3.277   0.189   3.400 -0.2031 -0.4469  0.1630
 8254TIP3   OH246252   2.312   4.068  17.249  0.3363 -0.5197 -0.4086
 8254TIP3    H146253   2.370   4.031  17.182 -0.4920 -1.3219 -0.6907
 8254TIP3    H246254   2.241   4.109  17.200 -0.1989 -0.9852 -0.0434
 8255TIP3   OH246255   2.717   0.934  15.543 -0.8934  0.1444 -0.8758
 8255TIP3    H146256   2.752   1.001  15.601  1.7601 -2.9871  1.3747
 8255TIP3    H246257   2.627   0.921  15.572  0.1031 -0.7088  2.0708
 8256TIP3   OH246258   1.236   3.487  13.376  0.1503  0.3148 -0.4639
 8256TIP3    H146259   1.212   3.413  13.320  0.9050  0.9863 -1.6817
 8256TIP3    H246260   1.327   3.470  13.401 -0.4210 -0.3933  1.2443
 8257TIP3   OH246261   0.612   2.492  15.584 -0.1466 -0.2606 -0.1749
 8257TIP3    H146262   0.585   2.583  15.597 -0.4633 -0.7391  2.7016
 8257TIP3    H246263   0.669   2.473  15.658  0.0889 -2.3623 -0.8642
 8258TIP3   OH246264   2.653   4.934   5.912  0.2254  0.2396  0.2024
 8258TIP3    H146265   2.728   4.928   5.852 -0.5949 -1.4635 -0.6936
 8258TIP3    H246266   2.687   4.981   5.988  1.9834  0.2093 -0.5335
 8259TIP3   OH246267   1.939   3.498  11.401 -0.1262  0.4633 -0.3197
 8259TIP3    H146268   2.002   3.447  11.453  0.7384  1.5995 -0.2238
 8259TIP3    H246269   1.924   3.444  11.323  0.0197 -0.3857  0.2233
 8260TIP3   OH246270   5.630   5.575  13.451 -0.6746 -0.0171 -0.3607
 8260TIP3    H146271   5.675   5.627  13.518  0.5367 -0.0359 -1.1443
 8260TIP3    H246272   5.628   5.486  13.487 -0.9381  0.1749  0.0984
 8261TIP3   OH246273   2.859   6.243  14.901  0.1594  0.0646 -0.0468
 8261TIP3    H146274   2.854   6.150  14.879 -0.7659 -0.2590  1.4223
 8261TIP3    H246275   2.943   6.254  14.945 -0.8620 -0.6583  2.1890
 8262TIP3   OH246276   1.481   6.407   4.027 -0.3539 -0.0415 -0.3703
 8262TIP3    H146277   1.515   6.333   3.976 -1.9009  0.2254 -1.7985
 8262TIP3    H246278   1.404   6.371   4.072  0.1191  0.1422  0.6081
 8263TIP3   OH246279   5.559   0.769   5.173 -0.1739  0.4370 -0.1444
 8263TIP3    H146280   5.493   0.738   5.236  0.7319 -0.0105  0.5912
 8263TIP3    H246281   5.629   0.804   5.227  0.4944  0.2997 -0.9100
 8264TIP3   OH246282   5.204   4.624  12.958 -0.5022  0.0947  0.2601
 8264TIP3    H146283   5.167   4.536  12.964 -1.0470  0.2231 -1.0554
 8264TIP3    H246284   5.293   4.610  12.925 -0.5222  0.0162  0.2371
 8265TIP3   OH246285   3.822   2.373  14.923  0.1918 -0.1878  0.6816
 8265TIP3    H146286   3.882   2.405  14.856  1.8770  1.3352  2.8525
 8265TIP3    H246287   3.758   2.443  14.935  0.0472 -0.3518  0.8769
 8266TIP3   OH246288   6.815   0.116   1.604  0.6736  0.2307  0.1096
 8266TIP3    H146289   6.856   0.030   1.596  0.5995  0.1601  0.5262
 8266TIP3    H246290   6.765   0.126   1.523 -0.2357 -0.5942  0.5568
 8267TIP3   OH246291   4.013   4.874  11.433 -0.4231  0.2510 -0.4435
 8267TIP3    H146292   3.931   4.900  11.474 -1.6192  0.6814 -2.9945
 8267TIP3    H246293   4.006   4.906  11.343  2.2280 -0.3760 -0.9160
 8268TIP3   OH246294   4.822   6.108   4.470  0.5051  0.1377  0.1636
 8268TIP3    H146295   4.848   6.016   4.466  0.8170  0.1753  1.0764
 8268TIP3    H246296   4.728   6.105   4.487  0.4472 -0.0106 -0.1804
 8269TIP3   OH246297   4.281   5.119   0.034 -0.5583 -0.3173 -0.4116
 8269TIP3    H146298   4.308   5.211   0.030  1.8650 -1.0666 -2.9682
 8269TIP3    H246299   4.187   5.121   0.013  0.0744  1.3786 -3.4678
 8270TIP3   OH246300   2.629   5.228   5.599  0.4247  0.4961 -0.2449
 8270TIP3    H146301   2.684   5.196   5.528 -1.6688 -0.4933 -1.4416
 8270TIP3    H246302   2.611   5.151   5.653  1.4377  1.1116  1.0135
 8271TIP3   OH246303   6.800   6.673   0.178  0.0876 -0.5713  0.4592
 8271TIP3    H146304   6.833   6.737   0.115  0.2586 -0.0240  1.0892
 8271TIP3    H246305   6.716   6.645   0.142 -0.0038  0.0372  0.1943
 8272TIP3   OH246306   0.093   0.689  15.125 -0.3935  0.0954 -0.3674
 8272TIP3    H146307   0.180   0.723  15.106 -0.0785 -1.0310 -0.9759
 8272TIP3    H246308   0.039   0.767  15.137  0.7770  0.8053  0.4116
 8273TIP3   OH246309   6.269   2.524  14.436 -0.3738  0.0796 -0.4445
 8273TIP3    H146310   6.316   2.604  14.411 -1.7629  0.5215 -1.7585
 8273TIP3    H246311   6.299   2.459  14.372 -1.9469  0.5188 -1.6660
 8274TIP3   OH246312   5.598   4.949   2.084  0.3065 -0.1805  0.3507
 8274TIP3    H146313   5.547   4.867   2.080  1.0068 -0.7490  2.3530
 8274TIP3    H246314   5.532   5.018   2.091 -0.2447 -0.9117  2.9221
 8275TIP3   OH246315   1.940   2.381   1.432 -0.0879  0.3187  0.1024
 8275TIP3    H146316   1.875   2.433   1.384 -0.5992 -1.2797 -0.9790
 8275TIP3    H246317   1.919   2.397   1.524 -0.8332  1.2811 -0.2153
 8276TIP3   OH246318   0.417   0.933  14.729 -0.0199 -0.1411  0.4044
 8276TIP3    H146319   0.410   0.987  14.650  0.6514 -0.6856 -0.0317
 8276TIP3    H246320   0.510   0.914  14.737  0.1455  1.2408  2.2278
 8277TIP3   OH246321   6.630   2.285   6.469  0.0173  0.0598 -0.0890
 8277TIP3    H146322   6.650   2.195   6.492  0.7829 -0.5890 -3.1500
 8277TIP3    H246323   6.694   2.337   6.517  3.9185 -1.4843 -3.3069
 8278TIP3   OH246324   2.905   0.104   4.939  0.1654  0.5245  0.3495
 8278TIP3    H146325   2.812   0.109   4.961 -0.8788 -1.8253 -3.0734
 8278TIP3    H246326   2.936   0.023   4.979  0.1443  0.1079 -0.4661
 8279TIP3   OH246327   2.349   2.964   3.487 -0.3159  0.7489  0.8521
 8279TIP3    H146328   2.421   2.952   3.425 -1.6593 -2.7002 -0.1480
 8279TIP3    H246329   2.376   2.913   3.564 -1.3657 -0.0430  0.7060
 8280TIP3   OH246330   5.808   3.801  14.385  0.0476  0.7208  0.0299
 8280TIP3    H146331   5.826   3.707  14.395 -0.4095  0.5787 -0.4349
 8280TIP3    H246332   5.762   3.807  14.301 -1.4070  1.1533  0.8448
 8281TIP3   OH246333   1.089   2.447   2.987  0.3528  0.0547  0.4238
 8281TIP3    H146334   1.068   2.355   2.972  0.8812 -0.4685  2.7071
 8281TIP3    H246335   1.056   2.465   3.075 -0.0040  2.1417 -0.1125
 8282TIP3   OH246336   4.232   2.041   3.218  0.6428 -0.3058  0.2364
 8282TIP3    H146337   4.245   2.096   3.295  2.1829  1.5751 -1.3078
 8282TIP3    H246338   4.313   2.051   3.168 -0.4936 -1.1772 -1.8317
 8283TIP3   OH246339   0.003   4.581   0.421 -0.3645  0.7582  0.4943
 8283TIP3    H146340   0.061   4.622   0.485 -2.4865  2.8334  1.1332
 8283TIP3    H246341   0.022   4.626   0.338  1.6249 -1.2028 -0.1644
 8284TIP3   OH246342   4.648   4.240   1.653  0.1511 -0.3737  0.6983
 8284TIP3    H146343   4.603   4.277   1.578  1.7113  2.4489  1.0547
 8284TIP3    H246344   4.591   4.261   1.728 -0.0216 -0.6054  0.6290
 8285TIP3   OH246345   3.968   3.857  14.144 -0.0209 -0.4190 -0.1582
 8285TIP3    H146346   3.932   3.866  14.232 -1.0857  1.5598 -0.7547
 8285TIP3    H246347   3.898   3.814  14.094 -0.6498  1.2237 -0.7364
 8286TIP3   OH246348   1.162   2.525   4.575  0.1942 -0.3337  0.1045
 8286TIP3    H146349   1.124   2.607   4.542 -1.3760 -0.9247  0.3886
 8286TIP3    H246350   1.100   2.495   4.641  1.8626 -0.6454  1.5579
 8287TIP3   OH246351   2.551   1.694  14.075 -0.7622  0.1778 -0.0340
 8287TIP3    H146352   2.527   1.664  14.163 -0.0868 -1.9976 -0.5706
 8287TIP3    H246353   2.639   1.661  14.061 -0.8030  0.6512 -1.4785
 8288TIP3   OH246354   1.277   4.553  11.159  0.1399 -0.3552 -0.3665
 8288TIP3    H146355   1.230   4.538  11.241  0.5772  0.5880  0.0674
 8288TIP3    H246356   1.246   4.640  11.130 -0.8103 -1.1312 -1.7478
 8289TIP3   OH246357   6.089   0.803  11.910 -0.1222 -0.1206  0.5197
 8289TIP3    H146358   5.995   0.790  11.899  0.4708 -2.8713 -1.7525
 8289TIP3    H246359   6.124   0.715  11.923  2.3675  0.6844 -0.5387
 8290TIP3   OH246360   3.024   0.621   4.244  0.4306  0.2381 -0.3672
 8290TIP3    H146361   2.967   0.578   4.180 -0.3049  0.9075 -0.1822
 8290TIP3    H246362   2.999   0.713   4.240 -0.8926  0.0442  2.1377
 8291TIP3   OH246363   1.031   1.102   2.989  0.0794  0.2747  0.3902
 8291TIP3    H146364   0.956   1.055   3.023  0.7519  0.0264  1.5610
 8291TIP3    H246365   1.089   1.114   3.064  0.8455  1.1725 -0.3178
 8292TIP3   OH246366   1.086   1.745   2.213 -0.1038  0.0886  0.2325
 8292TIP3    H146367   1.141   1.735   2.135  0.8694  1.1612  0.7659
 8292TIP3    H246368   1.042   1.661   2.222 -1.0412  0.2977 -2.0816
 8293TIP3   OH246369   6.458   1.527  11.633 -0.1017 -0.1554 -0.1346
 8293TIP3    H146370   6.449   1.516  11.728  0.9851 -0.0146 -0.0128
 8293TIP3    H246371   6.509   1.451  11.604  1.0289  0.6812 -0.3580
 8294TIP3   OH246372   5.800   2.580   5.043  0.6623 -0.4037  0.1816
 8294TIP3    H146373   5.772   2.499   5.086  0.5097 -1.0649 -1.1239
 8294TIP3    H246374   5.841   2.631   5.113 -1.0901 -0.7025  1.4680
 8295TIP3   OH246375   5.129   3.331   4.669  0.0620 -0.0883  0.0047
 8295TIP3    H146376   5.202   3.320   4.730  0.1932  0.3846 -0.0629
 8295TIP3    H246377   5.050   3.317   4.721  0.2104 -0.9483  0.0053
 8296TIP3   OH246378   1.103   4.799   5.243 -0.4841 -0.0599  0.2442
 8296TIP3    H146379   1.020   4.816   5.289  0.2735 -0.0595  1.6401
 8296TIP3    H246380   1.088   4.716   5.197 -1.0153 -0.4484  1.0930
 8297TIP3   OH246381   1.907   6.339   1.329  0.5271 -0.1940 -0.1907
 8297TIP3    H146382   1.961   6.285   1.270 -0.0621 -1.3662  0.3304
 8297TIP3    H246383   1.956   6.421   1.338  1.8433 -0.9549 -0.3442
 8298TIP3   OH246384   2.340   6.447  14.233 -0.2101 -0.2965 -0.3659
 8298TIP3    H146385   2.431   6.459  14.260 -0.4257  0.2434  0.1223
 8298TIP3    H246386   2.332   6.354  14.213  0.8572 -0.0841 -1.8771
 8299TIP3   OH246387   5.823   5.344   2.533  0.2052 -0.0542  0.2313
 8299TIP3    H146388   5.811   5.422   2.588  1.0175 -0.3143  0.7875
 8299TIP3    H246389   5.797   5.271   2.589 -0.2003 -0.2235 -0.1687
 8300TIP3   OH246390   2.997   3.837  13.546 -0.2129 -0.5291 -0.1149
 8300TIP3    H146391   2.927   3.902  13.537  1.5155  1.6735  1.7924
 8300TIP3    H246392   2.987   3.803  13.635 -0.4910 -2.1888 -0.7641
 8301TIP3   OH246393   6.335   4.212   3.104  0.3717 -0.1707 -0.6350
 8301TIP3    H146394   6.297   4.136   3.059  1.8899 -0.1999 -1.9079
 8301TIP3    H246395   6.360   4.178   3.190 -3.4269  0.1204  0.6574
 8302TIP3   OH246396   4.182   5.534   3.914 -0.3794 -0.4530 -0.4427
 8302TIP3    H146397   4.101   5.569   3.879 -0.4530 -2.3227 -2.2343
 8302TIP3    H246398   4.238   5.521   3.837  1.6141  0.7826  0.7491
 8303TIP3   OH246399   0.170   1.844   1.016  0.1596  0.2579 -0.0187
 8303TIP3    H146400   0.218   1.786   1.075  0.7945 -0.0857 -0.8669
 8303TIP3    H246401   0.196   1.932   1.042  0.9729  0.0834 -0.2259
 8304TIP3   OH246402   3.825   2.617   0.581 -0.0611  0.1889 -1.0747
 8304TIP3    H146403   3.881   2.596   0.655  0.2795  1.0758 -1.0768
 8304TIP3    H246404   3.769   2.540   0.570  0.1159 -0.0747 -0.1134
 8305TIP3   OH246405   2.878   4.289   0.352  0.1940  0.1295 -0.2353
 8305TIP3    H146406   2.959   4.283   0.401 -0.2712 -0.1036  0.5062
 8305TIP3    H246407   2.858   4.199   0.328 -0.1563  0.1211  0.0869
 8306TIP3   OH246408   1.541   0.444  16.526  0.0943  0.3163 -0.1201
 8306TIP3    H146409   1.508   0.474  16.441 -2.0931 -1.2056  0.1595
 8306TIP3    H246410   1.521   0.351  16.528  2.3679 -0.1790  1.0652
 8307TIP3   OH246411   5.767   6.624   4.192  0.3857  0.1960  0.3396
 8307TIP3    H146412   5.679   6.587   4.186 -0.2423  1.5333  0.9204
 8307TIP3    H246413   5.808   6.578   4.265 -0.4035  0.6839  1.0972
 8308TIP3   OH246414   0.303   6.447  12.607 -0.3613  0.1038 -0.2846
 8308TIP3    H146415   0.315   6.355  12.630 -0.1619  0.3040  0.4555
 8308TIP3    H246416   0.330   6.494  12.686 -0.1717  0.8067 -0.7658
 8309TIP3   OH246417   5.334   2.299   0.984  0.6812 -0.1902  0.3043
 8309TIP3    H146418   5.395   2.250   1.040 -0.8740 -0.3142  1.9374
 8309TIP3    H246419   5.269   2.335   1.045 -1.2622 -0.6139 -1.4673
 8310TIP3   OH246420   3.394   3.014  12.225 -0.2136  0.3680 -0.8533
 8310TIP3    H146421   3.322   3.077  12.228 -0.1508  0.4763 -1.5444
 8310TIP3    H246422   3.371   2.955  12.153 -0.9177 -1.1854  0.6054
 8311TIP3   OH246423   4.071   2.956  15.053 -0.0327  0.4541  0.0416
 8311TIP3    H146424   4.071   3.041  15.009 -0.0648  0.3112 -0.2352
 8311TIP3    H246425   4.144   2.908  15.013  0.6250  0.7171  0.9149
 8312TIP3   OH246426   6.092   2.557  12.333 -0.5566 -0.2296  0.0002
 8312TIP3    H146427   6.062   2.644  12.309  2.6394  1.0101  0.3038
 8312TIP3    H246428   6.023   2.522  12.390 -2.2853  1.7069 -0.8677
 8313TIP3   OH246429   3.949   6.776  12.443  0.1842  0.0247 -0.1805
 8313TIP3    H146430   3.863   6.817  12.440 -1.1430 -2.6771 -1.3623
 8313TIP3    H246431   3.992   6.804  12.363 -0.6079 -0.6109 -0.8443
 8314TIP3   OH246432   1.086   1.799   5.353  0.7788  0.4833  0.0723
 8314TIP3    H146433   1.047   1.711   5.354  1.5508  0.1392  0.5209
 8314TIP3    H246434   1.180   1.783   5.363  0.8358  1.4171  1.0413
 8315TIP3   OH246435   0.039   4.103   3.702  0.0141 -0.6169  0.1905
 8315TIP3    H146436   0.090   4.108   3.782 -0.1897 -1.8584  0.4055
 8315TIP3    H246437   0.084   4.038   3.648  0.4623  0.6075 -0.9362
 8316TIP3   OH246438   5.188   3.746  13.992  0.0059 -0.3041 -0.3591
 8316TIP3    H146439   5.108   3.779  14.032  0.8944  0.8635  0.4631
 8316TIP3    H246440   5.158   3.702  13.912 -1.3071  1.3746 -0.8129
 8317TIP3   OH246441   6.800   3.893  13.386 -0.1787  0.1150  0.5589
 8317TIP3    H146442   6.847   3.861  13.309 -1.5067 -0.8518  0.1193
 8317TIP3    H246443   6.716   3.848  13.383 -0.0966 -0.2411  2.8179
 8318TIP3   OH246444   0.771   3.014  11.473 -0.5840  0.4295 -0.0660
 8318TIP3    H146445   0.719   3.019  11.393 -0.3930  1.8669 -0.0993
 8318TIP3    H246446   0.757   2.924  11.505  0.4569 -0.6313 -2.4548
 8319TIP3   OH246447   1.739   6.496  16.961 -0.2107  0.1516  0.2702
 8319TIP3    H146448   1.722   6.403  16.944  0.1498 -0.1950  1.7625
 8319TIP3    H246449   1.776   6.529  16.879 -2.1181 -0.5711 -0.9013
 8320TIP3   OH246450   4.464   6.811  14.074  0.3720  0.1122  0.3445
 8320TIP3    H146451   4.510   6.761  14.141 -0.8260  1.4538  2.2114
 8320TIP3    H246452   4.511   6.791  13.993  2.2384 -1.0398  1.6708
 8321TIP3   OH246453   6.421   3.725  13.794  0.2503  0.7193  0.6000
 8321TIP3    H146454   6.515   3.730  13.813  0.2472  2.3897  0.3080
 8321TIP3    H246455   6.417   3.691  13.704  0.5148 -0.7761  1.1522
 8322TIP3   OH246456   5.829   4.421   4.055  0.1947  0.1362  0.6767
 8322TIP3    H146457   5.786   4.414   4.140  1.8246  0.3414  1.5367
 8322TIP3    H246458   5.806   4.341   4.009  0.6544 -0.7317  1.9524
 8323TIP3   OH246459   6.794   0.990  16.344  0.3897 -0.1204 -0.0169
 8323TIP3    H146460   6.741   0.937  16.284  0.8866 -0.4468 -0.1774
 8323TIP3    H246461   6.737   1.005  16.419  0.3370 -1.1501  0.1650
 8324TIP3   OH246462   3.283   1.808  16.753 -0.5344 -0.1421 -0.4603
 8324TIP3    H146463   3.203   1.763  16.728 -1.7241  0.7608  1.5931
 8324TIP3    H246464   3.352   1.762  16.707 -1.9335 -2.7166 -0.0651
 8325TIP3   OH246465   3.813   1.094   2.034  0.0546 -0.3251  0.7752
 8325TIP3    H146466   3.899   1.054   2.050 -0.9548 -1.8942  2.4113
 8325TIP3    H246467   3.829   1.188   2.044  1.7736 -0.5276  0.1547
 8326TIP3   OH246468   5.688   3.425   2.875  0.0015 -0.6200  0.2492
 8326TIP3    H146469   5.612   3.368   2.890 -1.2326  0.8650 -0.1726
 8326TIP3    H246470   5.752   3.368   2.832 -0.7149 -1.9999  0.9641
 8327TIP3   OH246471   4.150   2.228   4.201 -0.2298  0.0240  0.2447
 8327TIP3    H146472   4.243   2.229   4.221  0.0010  0.3956 -0.8208
 8327TIP3    H246473   4.141   2.166   4.129 -0.8181 -0.0592  0.3808
 8328TIP3   OH246474   1.922   5.979   4.271  0.1147 -0.1852 -0.0646
 8328TIP3    H146475   1.851   6.018   4.221 -0.1699  0.6909  1.0148
 8328TIP3    H246476   1.992   5.966   4.207 -0.0022  1.5251 -0.5695
 8329TIP3   OH246477   6.169   0.936  17.187 -0.2706 -0.8367  0.1994
 8329TIP3    H146478   6.136   1.002  17.248 -0.3904  0.9536 -1.7761
 8329TIP3    H246479   6.230   0.884  17.239  0.3307  1.2365  1.6258
 8330TIP3   OH246480   2.007   6.297  16.975  0.3161 -0.4706 -0.1238
 8330TIP3    H146481   1.981   6.324  17.063 -0.9297  0.7039 -0.8202
 8330TIP3    H246482   2.102   6.299  16.975  0.2903  1.2180  0.6939
 8331TIP3   OH246483   3.162   3.534  13.950  0.0929 -0.5868  0.5522
 8331TIP3    H146484   3.235   3.561  13.896 -0.3181 -0.6622 -0.0513
 8331TIP3    H246485   3.196   3.532  14.040  0.9517 -1.0876  0.2158
 8332TIP3   OH246486   6.804   6.561   0.781 -0.1410 -0.8935 -0.7510
 8332TIP3    H146487   6.774   6.646   0.750 -1.1746 -1.3128 -0.9216
 8332TIP3    H246488   6.893   6.577   0.812 -1.5600  1.0736  2.5858
 8333TIP3   OH246489   5.776   1.823  12.111 -0.3908 -0.3202  0.1330
 8333TIP3    H146490   5.716   1.749  12.097 -0.2676 -0.2735 -0.6135
 8333TIP3    H246491   5.827   1.828  12.031 -0.7199  0.8818 -0.0062
 8334TIP3   OH246492   4.310   3.118  11.783 -0.1174  0.1197 -0.1659
 8334TIP3    H146493   4.215   3.121  11.773 -0.3371 -1.9360  1.0486
 8334TIP3    H246494   4.327   3.162  11.866 -0.1017 -0.3567  0.0858
 8335TIP3   OH246495   0.505   1.410   2.525 -0.3168  0.5625  0.0364
 8335TIP3    H146496   0.560   1.420   2.447 -1.5118  2.5246 -0.5728
 8335TIP3    H246497   0.416   1.420   2.494 -0.9306 -0.4072  1.3941
 8336TIP3   OH246498   1.419   1.890   4.201  0.1076  0.7411 -0.2040
 8336TIP3    H146499   1.328   1.859   4.201  0.2087  0.4024  0.8574
 8336TIP3    H246500   1.424   1.949   4.276  0.7135  0.9056 -0.3712
 8337TIP3   OH246501   0.052   4.659  15.934  0.0880  0.0762 -0.6036
 8337TIP3    H146502   0.115   4.611  15.987  1.6838  1.0004 -1.6466
 8337TIP3    H246503   0.093   4.669  15.849 -2.5209 -1.5436 -2.1150
 8338TIP3   OH246504   5.014   3.768   3.386 -0.0164  0.3955 -0.5520
 8338TIP3    H146505   5.056   3.709   3.323  2.4010 -0.9949  2.2494
 8338TIP3    H246506   4.922   3.742   3.385  0.0880 -0.0172 -3.0031
 8339TIP3   OH246507   6.405   1.018   5.609 -0.6386 -0.0183  0.3902
 8339TIP3    H146508   6.333   0.970   5.651 -0.7041 -0.0652  0.2243
 8339TIP3    H246509   6.377   1.028   5.518 -0.9263  0.9065  0.5746
 8340TIP3   OH246510   1.703   0.867  12.681  0.7081 -0.1615 -0.2245
 8340TIP3    H146511   1.622   0.883  12.728 -0.6981 -1.7996 -1.9918
 8340TIP3    H246512   1.764   0.932  12.715 -1.2038  0.7977  1.4683
 8341TIP3   OH246513   3.882   3.660  11.878  0.2694  0.1494  0.7134
 8341TIP3    H146514   3.949   3.692  11.817  0.9650 -0.2559  1.2571
 8341TIP3    H246515   3.857   3.574  11.844 -0.5471  0.6308  0.0738
 8342TIP3   OH246516   2.969   6.384   1.189  0.2634  0.1474 -0.5220
 8342TIP3    H146517   3.052   6.430   1.181  0.6068 -0.2875  0.4247
 8342TIP3    H246518   2.966   6.357   1.281 -0.4732 -0.6870 -0.7878
 8343TIP3   OH246519   4.362   1.496  11.489 -0.0199 -0.4132 -0.1272
 8343TIP3    H146520   4.403   1.491  11.402  1.4041  1.0939  0.4444
 8343TIP3    H246521   4.430   1.468  11.550 -0.2739  0.7598  0.7087
 8344TIP3   OH246522   2.126   5.780  15.081  0.2046 -0.3313 -0.0814
 8344TIP3    H146523   2.073   5.735  15.016 -0.6081  0.9154 -0.3118
 8344TIP3    H246524   2.194   5.825  15.030  1.0782 -1.3578  0.1553
 8345TIP3   OH246525   6.143   2.640   6.365  0.0835 -0.2008  0.2291
 8345TIP3    H146526   6.153   2.728   6.330 -0.8852 -0.3658 -0.4824
 8345TIP3    H246527   6.223   2.625   6.415  1.8843 -0.2523 -2.5619
 8346TIP3   OH246528   0.289   0.993  15.365  0.5870 -0.2441  0.7651
 8346TIP3    H146529   0.234   0.992  15.286  0.0059 -0.2304  1.1686
 8346TIP3    H246530   0.377   0.973  15.332  0.3113 -0.4651  0.1409
 8347TIP3   OH246531   3.222   1.892  13.809  0.0196 -0.1604 -0.7666
 8347TIP3    H146532   3.290   1.830  13.784  0.0097 -0.8530  0.8509
 8347TIP3    H246533   3.140   1.846  13.790  0.0116 -0.8775  0.9547
 8348TIP3   OH246534   5.555   3.595  10.992 -0.2669  0.0449  0.6034
 8348TIP3    H146535   5.540   3.518  11.047 -0.9834  0.1148  0.5041
 8348TIP3    H246536   5.599   3.561  10.914 -1.5618 -0.4195  0.0701
 8349TIP3   OH246537   1.942   2.978  12.799 -0.0427 -0.3530  0.3411
 8349TIP3    H146538   1.855   2.939  12.809 -0.6720  0.5232 -1.4771
 8349TIP3    H246539   1.974   2.987  12.889 -0.4558 -3.6786  0.8977
 8350TIP3   OH246540   0.749   0.381  11.808 -0.6684 -0.4670 -0.1488
 8350TIP3    H146541   0.704   0.297  11.817 -1.7756  0.3008  1.6978
 8350TIP3    H246542   0.680   0.444  11.788  0.0810  0.0970 -1.0138
 8351TIP3   OH246543   4.217   5.184   5.619  0.4259  0.3242  0.2922
 8351TIP3    H146544   4.203   5.177   5.525 -1.0663  2.8164  0.2795
 8351TIP3    H246545   4.138   5.147   5.658  0.0048  1.3902  0.4862
 8352TIP3   OH246546   0.790   1.697  11.568 -0.1369 -0.6927 -0.4025
 8352TIP3    H146547   0.780   1.756  11.642 -2.1092 -1.4203 -0.0721
 8352TIP3    H246548   0.883   1.705  11.543  0.3626  0.1102  1.6456
 8353TIP3   OH246549   4.501   5.792   6.650  0.1629  0.3163  0.0945
 8353TIP3    H146550   4.430   5.824   6.594  0.2327 -2.3918 -1.6348
 8353TIP3    H246551   4.581   5.814   6.602  0.2969 -0.4624 -0.0440
 8354TIP3   OH246552   4.540   4.036  15.509  0.2816 -0.4757  0.3313
 8354TIP3    H146553   4.575   3.949  15.488 -1.8855 -1.4164  0.4758
 8354TIP3    H246554   4.606   4.075  15.566  1.2387 -2.0883  0.3717
 8355TIP3   OH246555   2.182   3.216   2.581  0.8465  0.2857 -0.4124
 8355TIP3    H146556   2.274   3.242   2.588  0.8930  0.6869 -2.2027
 8355TIP3    H246557   2.174   3.180   2.493 -0.8260  0.7086 -0.4525
 8356TIP3   OH246558   1.320   4.927  14.323  0.1357 -0.2668  0.0117
 8356TIP3    H146559   1.308   5.021  14.329  1.2015 -0.0836 -0.5328
 8356TIP3    H246560   1.243   4.895  14.276 -0.9911  0.1234  1.5500
 8357TIP3   OH246561   0.851   1.114  16.343  0.1716  0.2524 -0.5506
 8357TIP3    H146562   0.918   1.104  16.275 -0.9370  1.5580 -1.8806
 8357TIP3    H246563   0.899   1.109  16.425  1.8832  0.9960 -1.4802
 8358TIP3   OH246564   3.664   1.371  11.480  0.0672 -0.3561  0.0284
 8358TIP3    H146565   3.635   1.390  11.391  0.2564  2.5036  0.5563
 8358TIP3    H246566   3.750   1.330  11.469 -0.3293 -0.9065 -1.1201
 8359TIP3   OH246567   5.459   4.441   2.911  0.2867  0.1417 -0.0083
 8359TIP3    H146568   5.531   4.483   2.863 -0.1750 -0.1012 -0.9361
 8359TIP3    H246569   5.499   4.361   2.946  0.3891 -0.1864 -0.8402
 8360TIP3   OH246570   1.612   1.255  15.074  0.2324 -0.2651 -0.3029
 8360TIP3    H146571   1.683   1.319  15.074  0.7581 -0.8360 -1.3817
 8360TIP3    H246572   1.532   1.307  15.077  0.7047  0.3651  1.7565
 8361TIP3   OH246573   1.493   4.965  12.980 -0.3895 -0.2222 -0.1477
 8361TIP3    H146574   1.481   4.880  12.937 -0.6451 -1.2511  1.9109
 8361TIP3    H246575   1.581   4.961  13.017 -0.0052  0.8342 -0.9138
 8362TIP3   OH246576   4.751   5.746  12.044 -0.3882  0.2570  0.3846
 8362TIP3    H146577   4.745   5.836  12.076 -2.4300 -0.1002  1.0389
 8362TIP3    H246578   4.844   5.734  12.026  0.2401  1.7316  2.4830
 8363TIP3   OH246579   6.219   1.067   4.980 -0.1795  0.1078  0.0151
 8363TIP3    H146580   6.203   1.100   5.068  0.6767  2.8087 -0.7879
 8363TIP3    H246581   6.146   1.009   4.962 -0.7823  0.1546  2.1948
 8364TIP3   OH246582   0.836   1.280  14.077  0.8634 -0.3416  0.4831
 8364TIP3    H146583   0.859   1.214  14.142 -1.0886  2.1201  3.8458
 8364TIP3    H246584   0.756   1.247  14.037  2.8005 -2.5172 -1.7215
 8365TIP3   OH246585   3.714   5.061   2.715 -0.5263 -0.0773  0.6264
 8365TIP3    H146586   3.686   5.042   2.625  1.0015 -0.1812  0.1581
 8365TIP3    H246587   3.788   5.003   2.730 -1.9968 -1.5063  2.6929
 8366TIP3   OH246588   5.293   1.607  15.545  0.9001  0.3459  0.9598
 8366TIP3    H146589   5.200   1.619  15.528  1.0993  0.3650 -0.1271
 8366TIP3    H246590   5.296   1.566  15.631 -0.1667 -0.9205  0.4016
 8367TIP3   OH246591   5.742   5.077  15.292  0.0426 -0.9603  0.6496
 8367TIP3    H146592   5.788   5.131  15.356 -0.9075 -0.4806  0.9370
 8367TIP3    H246593   5.806   5.011  15.266  1.2344  0.3618  0.2208
 8368TIP3   OH246594   2.418   2.506  11.422 -0.2677  0.0078  0.5674
 8368TIP3    H146595   2.337   2.556  11.423  0.0723  0.5645  0.4351
 8368TIP3    H246596   2.485   2.568  11.450  0.8788  0.9814 -3.9502
 8369TIP3   OH246597   5.049   3.681  10.903  0.8662  0.0123  0.6923
 8369TIP3    H146598   5.135   3.657  10.936  0.7144 -1.3029  0.1494
 8369TIP3    H246599   5.052   3.663  10.809  0.4550  1.3023  0.4134
 8370TIP3   OH246600   5.632   4.191  12.816 -0.0236 -0.6984 -0.3334
 8370TIP3    H146601   5.693   4.256  12.781 -0.0558  0.8083  2.2787
 8370TIP3    H246602   5.689   4.125  12.856 -0.0504 -0.9176 -0.6543
 8371TIP3   OH246603   4.247   6.334  12.438  0.1577  0.6062  0.2322
 8371TIP3    H146604   4.186   6.405  12.457  0.2690  0.0249  2.9080
 8371TIP3    H246605   4.313   6.374  12.381 -0.2509  2.4219  0.9949
 8372TIP3   OH246606   6.210   2.235   4.652 -0.4487  0.3361 -0.0046
 8372TIP3    H146607   6.163   2.317   4.637  1.2246  1.2201 -0.4703
 8372TIP3    H246608   6.199   2.217   4.745  1.0483  2.2828  0.5742
 8373TIP3   OH246609   3.152   0.948   0.300 -0.2244 -0.5774  0.2040
 8373TIP3    H146610   3.186   0.997   0.375  2.0077 -0.1760 -1.0165
 8373TIP3    H246611   3.227   0.895   0.271 -1.0994 -0.8419 -1.6268
 8374TIP3   OH246612   4.322   1.113  13.944 -0.1610 -0.1895  0.1937
 8374TIP3    H146613   4.264   1.061  13.889  1.2434 -1.6859  0.0865
 8374TIP3    H246614   4.360   1.178  13.885 -0.9023  0.1031  0.0380
 8375TIP3   OH246615   4.806   2.946  16.583 -0.4923 -0.0443 -0.3254
 8375TIP3    H146616   4.856   2.871  16.616 -1.8753 -0.1878  1.5093
 8375TIP3    H246617   4.873   3.012  16.565  0.5451 -0.9214  0.2318
 8376TIP3   OH246618   5.774   5.812  10.869  0.4946  0.1868 -0.1904
 8376TIP3    H146619   5.823   5.796  10.788 -0.8026 -0.4297 -0.8617
 8376TIP3    H246620   5.686   5.778  10.851 -0.1002  1.0116  1.1083
 8377TIP3   OH246621   0.221   5.668   0.212 -0.1381  0.0683  0.3563
 8377TIP3    H146622   0.242   5.575   0.218 -2.9578 -0.6440  0.0192
 8377TIP3    H246623   0.195   5.693   0.300  2.7968  1.1485  0.9639
 8378TIP3   OH246624   1.477   1.215   4.455 -0.2962 -0.2194 -0.3351
 8378TIP3    H146625   1.471   1.310   4.447 -2.0657 -0.2223  0.7345
 8378TIP3    H246626   1.399   1.190   4.506  1.0958 -2.0377  0.9732
 8379TIP3   OH246627   3.699   5.284  16.255 -0.1999 -0.2361  0.1405
 8379TIP3    H146628   3.725   5.367  16.215  0.1115 -0.1731  0.4731
 8379TIP3    H246629   3.776   5.228  16.248  0.2099  0.1198  1.5734
 8380TIP3   OH246630   1.430   2.484   2.183 -0.2934 -0.6031 -0.1821
 8380TIP3    H146631   1.462   2.448   2.266  0.0132 -0.3258 -0.1764
 8380TIP3    H246632   1.375   2.415   2.146 -0.0935 -0.8899  0.0518
 8381TIP3   OH246633   6.078   1.231  16.281 -0.0397 -0.5006 -0.6190
 8381TIP3    H146634   6.005   1.291  16.298 -0.8972 -1.9033  0.8466
 8381TIP3    H246635   6.056   1.152  16.331  3.3251 -0.3550  1.2275
 8382TIP3   OH246636   4.539   0.224  13.285 -0.1975  0.3638  0.5912
 8382TIP3    H146637   4.627   0.229  13.248 -1.6726  1.4815 -2.9478
 8382TIP3    H246638   4.513   0.315  13.299 -0.6921  0.0379  1.8730
 8383TIP3   OH246639   2.099   0.221  16.669  0.2812 -0.3782 -0.1977
 8383TIP3    H146640   2.034   0.261  16.611  1.1345  0.8620 -0.3216
 8383TIP3    H246641   2.169   0.286  16.674  0.6633 -0.8995  1.4287
 8384TIP3   OH246642   1.809   1.404  16.742  0.1550  0.0569 -0.1073
 8384TIP3    H146643   1.728   1.362  16.771 -0.5311 -0.3135 -2.4544
 8384TIP3    H246644   1.818   1.481  16.798 -2.0661  0.3404 -0.0935
 8385TIP3   OH246645   6.792   4.911  13.736 -0.4171  0.5396 -0.1348
 8385TIP3    H146646   6.710   4.871  13.709 -0.1891  1.0793 -1.6944
 8385TIP3    H246647   6.818   4.965  13.661  0.8309  1.1804  0.7419
 8386TIP3   OH246648   3.688   2.720   4.575 -0.8959 -0.2221 -0.3268
 8386TIP3    H146649   3.706   2.736   4.667 -0.0667 -1.1746 -0.3086
 8386TIP3    H246650   3.606   2.670   4.574 -0.1376 -1.5129  0.0055
 8387TIP3   OH246651   5.065   1.918  17.152 -0.4457 -0.0200 -0.2530
 8387TIP3    H146652   4.982   1.928  17.105 -0.8861  0.9006  0.6817
 8387TIP3    H246653   5.040   1.924  17.245  0.5809 -0.3784  0.0507
 8388TIP3   OH246654   6.331   3.161  15.421  0.7999  0.1919 -0.0084
 8388TIP3    H146655   6.406   3.106  15.402  0.7046 -0.2872  0.9638
 8388TIP3    H246656   6.268   3.141  15.352  0.3783 -1.6486  0.8804
 8389TIP3   OH246657   6.757   6.541   1.856  0.1112 -0.8982  0.0207
 8389TIP3    H146658   6.678   6.519   1.806 -0.5980  0.4116  0.5430
 8389TIP3    H246659   6.816   6.579   1.791  0.0919 -1.3140 -0.2497
 8390TIP3   OH246660   6.546   4.108   4.784  0.6592  0.1576 -0.1225
 8390TIP3    H146661   6.568   4.053   4.708 -1.0923 -0.1268 -0.4414
 8390TIP3    H246662   6.591   4.066   4.857  1.2856 -0.3375 -0.7746
 8391TIP3   OH246663   6.090   1.469   5.246  0.5912  0.1941  0.4192
 8391TIP3    H146664   6.035   1.506   5.315 -1.5111 -0.2318 -0.9635
 8391TIP3    H246665   6.063   1.515   5.166  0.4226 -1.8077 -0.7167
 8392TIP3   OH246666   5.899   3.280   1.221  0.4732 -0.1752  0.1163
 8392TIP3    H146667   5.813   3.250   1.251  0.2811 -1.1765 -1.3688
 8392TIP3    H246668   5.950   3.199   1.211  1.4513  0.3775  0.5467
 8393TIP3   OH246669   4.404   2.377   6.315  0.3574  0.1590 -0.4615
 8393TIP3    H146670   4.335   2.311   6.310  0.4293  0.0549 -0.0720
 8393TIP3    H246671   4.455   2.352   6.391 -0.4280  1.4565  0.5096
 8394TIP3   OH246672   5.555   2.082   4.103  0.0803  0.1384  0.2416
 8394TIP3    H146673   5.616   2.156   4.101 -0.4135  0.5867  1.6451
 8394TIP3    H246674   5.611   2.005   4.118  0.4548  0.3724  0.0511
 8395TIP3   OH246675   5.241   1.024   2.240  0.0536  0.0763 -0.6893
 8395TIP3    H146676   5.312   0.962   2.225 -0.0347 -0.4807  1.0552
 8395TIP3    H246677   5.273   1.082   2.309 -0.7936  0.4676 -0.6106
 8396TIP3   OH246678   0.553   5.519  14.156 -0.2575 -0.2251  0.5989
 8396TIP3    H146679   0.599   5.455  14.103 -0.0595 -0.2594  0.8114
 8396TIP3    H246680   0.553   5.599  14.103 -0.2171 -0.3075  0.4746
 8397TIP3   OH246681   2.479   4.643  15.583  0.1246 -0.0896 -0.0788
 8397TIP3    H146682   2.409   4.693  15.626  0.4261 -0.7918  1.2750
 8397TIP3    H246683   2.437   4.601  15.508 -0.2475  1.7870 -0.9464
 8398TIP3   OH246684   0.509   3.350  12.479  0.0857 -0.1127 -0.0361
 8398TIP3    H146685   0.432   3.294  12.489  0.2707 -0.3050  0.3402
 8398TIP3    H246686   0.529   3.379  12.568  1.0260 -0.8463  0.0115
 8399TIP3   OH246687   5.382   0.106  10.918 -0.4689 -0.3353  0.3429
 8399TIP3    H146688   5.456   0.049  10.899 -0.7462 -0.1204 -1.4147
 8399TIP3    H246689   5.336   0.115  10.835 -2.0359  0.1598  1.2439
 8400TIP3   OH246690   5.962   0.949   5.076 -0.1902  0.0810 -0.1893
 8400TIP3    H146691   5.913   0.991   5.147 -2.6884 -1.3646 -0.9928
 8400TIP3    H246692   5.936   0.997   4.997  1.1798  0.5127 -0.3953
 8401TIP3   OH246693   6.400   2.585   6.537 -0.0770 -0.5200 -0.5999
 8401TIP3    H146694   6.406   2.666   6.588 -1.1696 -0.4518 -0.5820
 8401TIP3    H246695   6.419   2.516   6.600  2.1006 -0.2180 -0.8809
 8402TIP3   OH246696   5.958   0.569  16.482  0.5870 -0.0918 -0.0370
 8402TIP3    H146697   5.888   0.569  16.416  0.0476 -3.0154  0.4521
 8402TIP3    H246698   5.915   0.599  16.562  0.1232 -0.8901  0.0190
 8403TIP3   OH246699   6.514   0.556   2.306 -0.6602 -0.1288 -0.2257
 8403TIP3    H146700   6.585   0.614   2.331 -0.6246 -1.5847  3.2810
 8403TIP3    H246701   6.558   0.479   2.270 -0.4431 -0.8124  1.4656
 8404TIP3   OH246702   2.197   3.587   0.968 -0.0020 -0.1343 -0.6041
 8404TIP3    H146703   2.142   3.625   1.037  0.0405 -1.1558  0.0030
 8404TIP3    H246704   2.235   3.662   0.923 -1.7943  0.5873 -0.9440
 8405TIP3   OH246705   6.417   2.972   4.818 -0.4808 -0.7067  0.5630
 8405TIP3    H146706   6.349   3.036   4.839  0.0571 -0.5410  1.8151
 8405TIP3    H246707   6.391   2.937   4.732 -0.2265  1.9288 -0.6496
 8406TIP3   OH246708   5.641   3.754  16.386 -0.7079 -0.0970  0.3886
 8406TIP3    H146709   5.643   3.711  16.301 -1.3402  1.3693 -0.3819
 8406TIP3    H246710   5.732   3.773  16.406 -0.6495  0.6202 -0.5256
 8407TIP3   OH246711   0.292   4.543   2.896 -0.4963 -0.0897  0.2111
 8407TIP3    H146712   0.344   4.462   2.898  1.3285  1.0567 -0.1505
 8407TIP3    H246713   0.234   4.531   2.821  0.6026 -0.5573 -0.5785
 8408TIP3   OH246714   1.314   5.406   2.064  0.1960 -0.7008 -0.7526
 8408TIP3    H146715   1.234   5.459   2.063 -1.7869 -3.5566  0.7562
 8408TIP3    H246716   1.373   5.454   2.123 -1.7446 -0.3835  0.9833
 8409TIP3   OH246717   3.668   6.790  15.009 -0.0723 -0.1906 -0.4050
 8409TIP3    H146718   3.639   6.858  15.069 -0.7727 -0.7237 -0.1351
 8409TIP3    H246719   3.650   6.707  15.055 -0.8937 -0.6088 -1.4617
 8410TIP3   OH246720   6.467   6.298   5.406 -0.2727 -0.3318  0.1742
 8410TIP3    H146721   6.375   6.281   5.426 -0.4019  0.7994  0.5948
 8410TIP3    H246722   6.503   6.212   5.386 -1.5214 -0.7361 -0.4336
 8411TIP3   OH246723   3.733   5.914  12.307 -0.2996  0.5009 -0.5025
 8411TIP3    H146724   3.673   5.929  12.234 -0.5464  0.6055 -0.2827
 8411TIP3    H246725   3.715   5.824  12.334 -1.8404  1.1959  0.8915
 8412TIP3   OH246726   3.753   3.588   3.181 -0.2294  0.2269  0.0524
 8412TIP3    H146727   3.694   3.623   3.114 -1.1053  1.3137  1.3530
 8412TIP3    H246728   3.747   3.651   3.253  1.5362 -0.3375  0.7237
 8413TIP3   OH246729   0.824   3.719   5.813 -0.7357  0.1393 -0.6355
 8413TIP3    H146730   0.902   3.707   5.867 -0.7668  0.7873 -0.4506
 8413TIP3    H246731   0.854   3.703   5.723 -0.0880  1.6680 -0.7079
 8414TIP3   OH246732   6.407   2.876   5.123 -0.4747 -0.1128 -0.5258
 8414TIP3    H146733   6.371   2.923   5.048 -1.8424 -0.1458  0.0904
 8414TIP3    H246734   6.331   2.857   5.178  0.2868 -1.6218  0.0233
 8415TIP3   OH246735   5.856   4.170   1.820  0.5312 -0.4377 -0.2165
 8415TIP3    H146736   5.810   4.098   1.777  0.1446 -0.2490 -0.1263
 8415TIP3    H246737   5.919   4.201   1.755  0.1254 -0.3218 -0.5586
 8416TIP3   OH246738   6.405   6.534   2.732 -0.6018 -0.9954 -0.3370
 8416TIP3    H146739   6.367   6.447   2.735 -1.9374 -0.4199 -0.4010
 8416TIP3    H246740   6.500   6.519   2.735 -0.8408 -2.4067  0.3804
 8417TIP3   OH246741   5.664   3.087   5.656 -0.4943 -0.2456 -0.0535
 8417TIP3    H146742   5.703   3.002   5.636 -0.4462 -0.3386  0.4493
 8417TIP3    H246743   5.714   3.149   5.603  0.2181 -0.3833  0.4550
 8418TIP3   OH246744   4.183   3.172  15.746 -0.3785 -0.0846  0.2386
 8418TIP3    H146745   4.216   3.114  15.814 -0.6636 -0.2983  0.1965
 8418TIP3    H246746   4.179   3.117  15.668 -1.5149 -0.2633  0.4106
 8419TIP3   OH246747   1.312   3.201  13.247  0.3000  0.0051  0.1179
 8419TIP3    H146748   1.355   3.166  13.169  1.0765  1.9864 -0.3617
 8419TIP3    H246749   1.384   3.225  13.305 -0.1028  2.7034 -0.4139
 8420TIP3   OH246750   0.178   5.266  11.799  0.1832 -0.0157 -0.4940
 8420TIP3    H146751   0.185   5.349  11.752  0.9538 -0.1216 -0.5698
 8420TIP3    H246752   0.246   5.270  11.866 -1.1327  0.2702  0.8596
 8421TIP3   OH246753   3.791   2.980   5.003  0.0350 -0.6877  0.4452
 8421TIP3    H146754   3.777   3.029   5.084 -1.8346 -1.0664  0.3642
 8421TIP3    H246755   3.799   3.047   4.935  0.2366 -0.4091  0.7454
 8422TIP3   OH246756   0.325   2.321  16.749 -0.5106  0.2273 -0.3628
 8422TIP3    H146757   0.403   2.335  16.803 -0.8378  0.2119  0.1124
 8422TIP3    H246758   0.255   2.302  16.811 -0.9618  0.5194 -0.7734
 8423TIP3   OH246759   6.036   1.566  15.569 -0.1524  0.5415  0.2756
 8423TIP3    H146760   6.119   1.525  15.543 -0.3239 -0.5199  1.3977
 8423TIP3    H246761   6.060   1.627  15.638 -0.2524  0.5365  0.3152
 8424TIP3   OH246762   2.614   1.948  16.445 -0.3558 -0.2553  0.6967
 8424TIP3    H146763   2.532   1.970  16.489  0.7696  0.1067  2.6830
 8424TIP3    H246764   2.633   2.024  16.390 -1.3357 -0.3262  0.2624
 8425TIP3   OH246765   3.823   0.965  12.584 -0.0597 -0.5407 -0.1777
 8425TIP3    H146766   3.810   0.871  12.574  0.7600 -0.6995  0.2096
 8425TIP3    H246767   3.795   1.002  12.500 -0.6325 -1.0988 -0.2363
 8426TIP3   OH246768   0.401   6.552  17.128  0.6425 -0.0236 -0.2691
 8426TIP3    H146769   0.390   6.646  17.110  0.2373 -0.1933 -0.9498
 8426TIP3    H246770   0.486   6.545  17.172 -0.0611  0.8450  1.2567
 8427TIP3   OH246771   4.391   4.364   5.427  0.2953  0.0371 -0.5419
 8427TIP3    H146772   4.300   4.338   5.409  0.0651  1.6013 -1.6789
 8427TIP3    H246773   4.389   4.394   5.518 -0.2261 -0.3439 -0.4217
 8428TIP3   OH246774   1.760   3.646   3.160 -0.1107 -0.4796  0.6463
 8428TIP3    H146775   1.818   3.709   3.117 -0.4115 -0.2884  0.5211
 8428TIP3    H246776   1.751   3.574   3.098 -0.0649 -0.4760  0.6357
 8429TIP3   OH246777   5.881   6.031   5.421  0.0166  0.0414 -0.2030
 8429TIP3    H146778   5.920   6.111   5.387 -1.4520  0.2989 -1.3549
 8429TIP3    H246779   5.886   5.969   5.348  0.8881 -0.8286  0.5861
 8430TIP3   OH246780   0.207   3.665   0.589  0.4838  0.0557  0.3982
 8430TIP3    H146781   0.169   3.585   0.553  0.8257  0.0945 -0.0528
 8430TIP3    H246782   0.228   3.642   0.680 -1.7210  0.4043  1.0387
 8431TIP3   OH246783   0.280   0.714  15.485 -0.1243  0.6107  0.0453
 8431TIP3    H146784   0.270   0.799  15.443  0.4886  0.7936  0.2592
 8431TIP3    H246785   0.198   0.700  15.532 -0.3143  0.9763 -0.1725
 8432TIP3   OH246786   6.727   6.489   2.780  0.1948  0.8128  0.0048
 8432TIP3    H146787   6.728   6.534   2.865  0.3377  1.5552 -0.3807
 8432TIP3    H246788   6.782   6.544   2.724  0.6923 -0.0688 -0.3698
 8433TIP3   OH246789   5.716   4.611   0.542  0.2136 -0.4473  0.3405
 8433TIP3    H146790   5.801   4.599   0.585  0.7576 -0.1628 -0.6340
 8433TIP3    H246791   5.673   4.680   0.591  1.6639  1.2932 -0.7701
 8434TIP3   OH246792   3.096   1.923   0.215 -0.4611 -0.4217 -0.0967
 8434TIP3    H146793   3.113   1.829   0.206  0.4316 -0.4704  1.8291
 8434TIP3    H246794   3.161   1.964   0.159 -0.4233 -0.9443 -0.4421
 8435TIP3   OH246795   1.911   2.764  11.261  0.0622  0.1604  0.6668
 8435TIP3    H146796   1.885   2.778  11.170  2.1664  0.4298  0.0939
 8435TIP3    H246797   1.839   2.712  11.299 -0.7552 -0.0742 -1.1758
 8436TIP3   OH246798   2.395   1.772   3.719  0.3729 -0.0194 -0.3782
 8436TIP3    H146799   2.328   1.811   3.775 -1.2314  1.5399 -3.3040
 8436TIP3    H246800   2.362   1.685   3.699 -0.6634  0.6469 -1.5947
 8437TIP3   OH246801   1.632   5.228  16.452  0.3392  0.2623 -0.3641
 8437TIP3    H146802   1.634   5.133  16.440 -1.8257  0.1812 -0.1646
 8437TIP3    H246803   1.705   5.260  16.398 -0.5769 -1.2765 -2.5799
 8438TIP3   OH246804   2.107   6.130   2.090  0.2285  0.1322 -0.1424
 8438TIP3    H146805   2.122   6.051   2.039  2.2021 -0.8927  1.9379
 8438TIP3    H246806   2.173   6.192   2.059 -2.8963  1.9911 -3.5725
 8439TIP3   OH246807   6.357   0.322   2.649 -0.6602  0.6315 -0.3298
 8439TIP3    H146808   6.403   0.365   2.577  0.3306 -0.4514 -0.3728
 8439TIP3    H246809   6.422   0.318   2.719 -1.1457  0.3409  0.1050
 8440TIP3   OH246810   5.836   1.791  14.346  0.4368  0.5563 -0.1683
 8440TIP3    H146811   5.886   1.752  14.418  1.6349 -0.1586 -1.3681
 8440TIP3    H246812   5.897   1.792  14.273 -0.7314  1.4209 -1.1398
 8441TIP3   OH246813   6.216   5.059   4.166 -0.7268  0.3128  0.5757
 8441TIP3    H146814   6.133   5.016   4.144 -0.4671  0.1346 -0.0574
 8441TIP3    H246815   6.210   5.074   4.261 -0.4287 -1.9757  0.9879
 8442TIP3   OH246816   5.229   4.808  14.411  0.5251 -0.2382  0.3797
 8442TIP3    H146817   5.285   4.745  14.457  1.7873 -0.7959 -1.8246
 8442TIP3    H246818   5.245   4.791  14.318 -1.6002  1.1571 -0.2868
 8443TIP3   OH246819   3.058   2.918   3.104  0.1335  0.1167  0.5144
 8443TIP3    H146820   3.050   2.827   3.132  0.6197 -0.6766 -1.8341
 8443TIP3    H246821   3.148   2.926   3.073  0.5191  1.7908  1.9919
 8444TIP3   OH246822   1.488   3.097  13.457  0.0796 -0.6742 -0.2381
 8444TIP3    H146823   1.456   3.080  13.545  1.4581  0.4439  0.5011
 8444TIP3    H246824   1.514   3.011  13.424  0.8505 -0.9180  0.9670
 8445TIP3   OH246825   5.177   5.351  11.473  0.1917 -0.3394 -0.0570
 8445TIP3    H146826   5.202   5.384  11.559 -0.6506 -0.5342  0.2661
 8445TIP3    H246827   5.251   5.297  11.446  1.5314  1.6673 -0.5293
 8446TIP3   OH246828   1.352   2.919   0.025 -0.1583 -0.0232 -0.3683
 8446TIP3    H146829   1.365   2.934   0.119 -0.0386 -0.3323 -0.3368
 8446TIP3    H246830   1.440   2.904  -0.009 -0.3840 -1.6348 -0.2407
 8447TIP3   OH246831   1.703   1.181  16.582  0.8354 -0.6521  1.0824
 8447TIP3    H146832   1.629   1.156  16.638 -0.7907  1.9091  0.1507
 8447TIP3    H246833   1.738   1.260  16.623  1.7960 -0.7037  0.3617
 8448TIP3   OH246834   2.448   1.911  11.869  0.1931 -0.1230 -0.4666
 8448TIP3    H146835   2.381   1.969  11.906 -1.0321 -1.1980 -0.9653
 8448TIP3    H246836   2.470   1.950  11.785 -0.7345 -0.4450 -0.8653
 8449TIP3   OH246837   3.616   3.755   0.748  0.3342  0.5831  0.3448
 8449TIP3    H146838   3.708   3.729   0.742 -0.4710 -2.3478 -0.0950
 8449TIP3    H246839   3.616   3.848   0.725  3.2140  0.7329  0.6992
 8450TIP3   OH246840   1.660   0.071   2.269 -0.5327  0.0175 -0.3460
 8450TIP3    H146841   1.627   0.097   2.355 -0.3844 -3.6912  0.9474
 8450TIP3    H246842   1.747   0.037   2.286 -0.7597 -1.3961 -1.8316
 8451TIP3   OH246843   0.880   4.376   4.442 -0.5265  0.0596  0.6416
 8451TIP3    H146844   0.967   4.338   4.452 -0.8916 -1.2209 -0.9222
 8451TIP3    H246845   0.827   4.334   4.510 -0.3390 -0.4452  0.4739
 8452TIP3   OH246846   4.744   4.698   5.458 -0.0063  0.1533  0.1036
 8452TIP3    H146847   4.750   4.603   5.473  0.0654  0.4452  2.1152
 8452TIP3    H246848   4.663   4.709   5.409 -0.3747 -0.8984  0.4553
 8453TIP3   OH246849   3.331   6.400   2.538  0.0871  0.2495 -0.1443
 8453TIP3    H146850   3.270   6.409   2.465 -1.2116  0.0381  0.9188
 8453TIP3    H246851   3.355   6.490   2.560  1.4831  0.2833 -1.6359
 8454TIP3   OH246852   3.741   2.048   6.355  0.1797  0.3267 -0.3478
 8454TIP3    H146853   3.738   2.092   6.270  0.1035  1.6546  0.3153
 8454TIP3    H246854   3.649   2.035   6.379  0.1781  1.1122  0.0968
 8455TIP3   OH246855   4.619   0.425  12.954  0.3945 -0.2499  0.6100
 8455TIP3    H146856   4.687   0.475  12.999  0.6335  0.1657 -0.2069
 8455TIP3    H246857   4.601   0.475  12.874 -0.9123 -0.3254  0.8492
 8456TIP3   OH246858   3.453   0.698  11.022 -0.6632 -0.3001 -0.1587
 8456TIP3    H146859   3.538   0.660  11.046 -1.5773 -2.8492 -0.8120
 8456TIP3    H246860   3.456   0.703  10.927 -0.3067  1.9846 -0.0611
 8457TIP3   OH246861   3.254   1.480   6.434  0.6272 -0.0081 -0.3209
 8457TIP3    H146862   3.267   1.574   6.449  0.3014 -0.2485  1.5278
 8457TIP3    H246863   3.159   1.470   6.430  0.6216 -0.4255  0.6836
 8458TIP3   OH246864   6.143   5.713   3.412  0.0627  0.1698 -0.1187
 8458TIP3    H146865   6.185   5.717   3.498  0.3531  0.5708 -0.2794
 8458TIP3    H246866   6.213   5.732   3.349  0.1956 -1.7109 -0.5559
 8459TIP3   OH246867   2.397   3.211  14.192 -0.6949 -0.2549  0.0086
 8459TIP3    H146868   2.331   3.157  14.236  0.8722 -0.4915  2.1470
 8459TIP3    H246869   2.367   3.301  14.208 -1.2258 -0.3962 -0.1895
 8460TIP3   OH246870   4.548   1.110   2.782  1.0595  0.1551  0.0749
 8460TIP3    H146871   4.539   1.028   2.733  2.7055  0.5323 -0.8949
 8460TIP3    H246872   4.563   1.176   2.715  0.2112  1.1735  0.8892
 8461TIP3   OH246873   6.491   6.513   3.924 -0.1152  0.2537  0.4383
 8461TIP3    H146874   6.552   6.565   3.976 -0.7606  0.1938  1.2703
 8461TIP3    H246875   6.407   6.520   3.971 -0.4069 -0.8192  0.0894
 8462TIP3   OH246876   6.284   2.011  12.982 -0.6313 -0.1225  0.3358
 8462TIP3    H146877   6.331   1.989  13.062 -1.5432 -2.2280  0.3338
 8462TIP3    H246878   6.304   1.939  12.922 -0.6902  0.9611 -1.0301
 8463TIP3   OH246879   3.408   3.894   3.126  0.3686  0.2922  1.4048
 8463TIP3    H146880   3.433   3.960   3.061 -0.8444  0.9264  1.5614
 8463TIP3    H246881   3.490   3.872   3.170  1.4429 -1.0623 -1.1579
 8464TIP3   OH246882   3.263   0.825   4.196 -0.0275 -0.2742  0.2949
 8464TIP3    H146883   3.168   0.836   4.190  0.2514  1.7947 -0.7525
 8464TIP3    H246884   3.289   0.883   4.268  0.3286 -1.5904  1.2308
 8465TIP3   OH246885   2.040   2.615   3.577  0.2548  0.0223  0.2262
 8465TIP3    H146886   2.119   2.581   3.619 -0.1829 -0.5522  0.5912
 8465TIP3    H246887   1.968   2.576   3.626 -0.2737  1.7294  0.8688
 8466TIP3   OH246888   1.494   3.494  17.114 -0.0937 -0.4227  0.0043
 8466TIP3    H146889   1.542   3.463  17.038  0.6060 -1.1988  0.7468
 8466TIP3    H246890   1.503   3.589  17.112 -1.6540 -0.2656 -1.9102
 8467TIP3   OH246891   5.785   5.300   5.855  0.2114 -0.5800  0.3413
 8467TIP3    H146892   5.847   5.293   5.782 -1.5749 -0.0505 -1.2526
 8467TIP3    H246893   5.831   5.354   5.920  1.3929 -0.0853 -0.8770
 8468TIP3   OH246894   5.329   3.958  14.853 -0.1025  0.4612  0.5554
 8468TIP3    H146895   5.394   3.938  14.785 -0.6971  2.8472 -0.7667
 8468TIP3    H246896   5.248   3.918  14.822  0.1205 -0.3199  0.9566
 8469TIP3   OH246897   2.897   1.101   4.665 -0.2490 -0.0339  0.4078
 8469TIP3    H146898   2.964   1.037   4.639 -0.3362 -0.3480  0.9325
 8469TIP3    H246899   2.816   1.049   4.672 -0.8062  0.5418 -1.3181
 8470TIP3   OH246900   5.494   0.408   0.946  0.1072 -0.4227  0.4889
 8470TIP3    H146901   5.553   0.378   0.876 -0.2290 -0.3691  0.1853
 8470TIP3    H246902   5.429   0.461   0.902 -0.4902 -0.9286  0.7584
 8471TIP3   OH246903   0.667   2.434   2.289  0.3073  0.5046 -0.0512
 8471TIP3    H146904   0.620   2.450   2.370  1.6582 -0.9481  1.0621
 8471TIP3    H246905   0.599   2.418   2.224 -0.7768  1.4645  0.8376
 8472TIP3   OH246906   3.527   0.005   5.007 -0.0177 -0.3042 -0.1531
 8472TIP3    H146907   3.581  -0.025   4.934  0.6144 -1.4173  0.7624
 8472TIP3    H246908   3.444  -0.041   4.996  0.2227 -0.7986  0.0467
 8473TIP3   OH246909   5.242   3.695  14.354  0.9244  0.5624 -0.0132
 8473TIP3    H146910   5.192   3.636  14.298  2.1255  0.1805 -0.6877
 8473TIP3    H246911   5.197   3.779  14.347 -1.7226 -0.5662  2.1372
 8474TIP3   OH246912   5.294   3.244   3.112  0.1254  0.5151  0.0841
 8474TIP3    H146913   5.328   3.265   3.025 -0.0110 -0.5759 -0.2382
 8474TIP3    H246914   5.306   3.325   3.162  1.0911  0.8584 -0.6748
 8475TIP3   OH246915   4.142   2.243  15.898 -0.0634  0.0662 -0.0638
 8475TIP3    H146916   4.104   2.191  15.827 -0.7401  2.7327 -1.6911
 8475TIP3    H246917   4.158   2.329  15.860 -0.0005  1.4262  2.9003
 8476TIP3   OH246918   4.099   4.934  16.398  0.0743 -0.3289 -0.0213
 8476TIP3    H146919   4.117   4.882  16.477 -1.9548 -0.4556  0.3759
 8476TIP3    H246920   4.014   4.975  16.415  2.4745  4.8115  0.5707
 8477TIP3   OH246921   6.060   4.454   4.754 -0.5200 -0.1257 -0.4740
 8477TIP3    H146922   6.002   4.476   4.681  1.3667  1.6749 -1.4773
 8477TIP3    H246923   6.142   4.427   4.712  1.0070  2.1423  0.9628
 8478TIP3   OH246924   2.945   1.934   4.628 -0.8288  0.7457 -0.3644
 8478TIP3    H146925   2.945   1.854   4.575 -0.5417  0.0726  0.6367
 8478TIP3    H246926   2.876   1.988   4.590 -0.3507  0.4497 -1.6819
 8479TIP3   OH246927   3.496   5.520   3.378  0.9151 -0.1573 -0.3800
 8479TIP3    H146928   3.566   5.581   3.354  1.8946 -0.9381  0.4832
 8479TIP3    H246929   3.541   5.439   3.402 -0.0872  0.2099  2.9345
 8480TIP3   OH246930   6.031   5.974  16.789 -0.6517  0.2240  0.9257
 8480TIP3    H146931   5.945   6.016  16.783  0.0334  1.7143  1.1730
 8480TIP3    H246932   6.046   5.964  16.883 -0.2105  0.7310  0.9150
 8481TIP3   OH246933   2.007   0.651  16.023  0.0626  0.2621  0.0264
 8481TIP3    H146934   2.064   0.706  15.969  0.5118  0.4330  0.6713
 8481TIP3    H246935   1.923   0.650  15.975 -0.0940  1.8705  0.2113
 8482TIP3   OH246936   3.672   2.262   5.682  1.0146 -0.0027 -0.1342
 8482TIP3    H146937   3.745   2.290   5.737 -0.5029  2.7829  0.5712
 8482TIP3    H246938   3.641   2.343   5.640 -1.4861 -1.1622 -0.6325
 8483TIP3   OH246939   0.518   1.546  15.403  0.1781 -1.2677 -0.1607
 8483TIP3    H146940   0.478   1.560  15.489 -0.2365  0.9424 -0.6806
 8483TIP3    H246941   0.533   1.451  15.398 -2.9877 -1.8966  0.9398
 8484TIP3   OH246942   4.209   3.686   3.303 -0.4572  0.1940 -0.5751
 8484TIP3    H146943   4.187   3.720   3.390 -1.5942 -0.2786 -0.6714
 8484TIP3    H246944   4.293   3.641   3.315  0.1461  1.4339 -0.0534
 8485TIP3   OH246945   3.362   3.429  15.535  0.0446 -0.4031  0.2104
 8485TIP3    H146946   3.305   3.412  15.460 -1.2989  1.6246  0.7222
 8485TIP3    H246947   3.324   3.506  15.577  1.0740 -1.1926  2.6931
 8486TIP3   OH246948   5.173   2.701  16.065  1.0521 -0.2426 -0.5897
 8486TIP3    H146949   5.150   2.782  16.110 -0.8674 -0.2963 -1.3778
 8486TIP3    H246950   5.241   2.726  16.003  1.2436  0.5398 -0.0662
 8487TIP3   OH246951   1.479   4.581   4.164 -0.3693 -0.4534  0.2112
 8487TIP3    H146952   1.481   4.611   4.073  1.8019 -0.5809  0.1833
 8487TIP3    H246953   1.503   4.659   4.215 -0.5253 -0.6503  0.5830
 8488TIP3   OH246954   0.484   3.805   6.441  0.2855 -0.0055  0.5091
 8488TIP3    H146955   0.437   3.877   6.484  2.4274  0.5836  1.9680
 8488TIP3    H246956   0.502   3.743   6.512  1.2212 -0.4719 -0.1368
 8489TIP3   OH246957   3.133   2.876   4.844  0.2962 -0.3932  0.8270
 8489TIP3    H146958   3.181   2.943   4.796 -1.8496  0.3381 -0.3551
 8489TIP3    H246959   3.142   2.797   4.791  0.6940 -0.4166  0.9260
 8490TIP3   OH246960   6.386   6.420   0.932 -0.2077 -0.5895 -0.0780
 8490TIP3    H146961   6.371   6.500   0.881  1.5405 -0.6962 -0.7925
 8490TIP3    H246962   6.427   6.452   1.013 -0.9483 -0.6182  0.3063
 8491TIP3   OH246963   5.948   2.089  11.611 -0.3144  0.6916  0.1507
 8491TIP3    H146964   5.951   2.183  11.591 -0.5986  0.3728 -1.4365
 8491TIP3    H246965   5.871   2.057  11.564 -0.4629 -0.2704  1.0280
 8492TIP3   OH246966   1.505   5.882   3.570 -0.3685  0.3512 -0.5035
 8492TIP3    H146967   1.509   5.976   3.584  0.3249  0.1334  0.8906
 8492TIP3    H246968   1.552   5.867   3.488  0.5904  1.0935 -0.0882
 8493TIP3   OH246969   1.294   6.694  16.629 -0.2004 -0.4007 -0.0986
 8493TIP3    H146970   1.218   6.635  16.626 -0.8204  0.1933  2.6441
 8493TIP3    H246971   1.358   6.648  16.684 -0.0366  0.7067  0.6561
 8494TIP3   OH246972   6.650   0.170   1.826  0.7327 -0.7229 -0.1624
 8494TIP3    H146973   6.704   0.164   1.747 -0.0022 -0.6368 -0.6883
 8494TIP3    H246974   6.560   0.157   1.794  0.1285  2.1214  0.1978
 8495TIP3   OH246975   4.577   4.179   5.389 -0.2031  0.1134 -0.6219
 8495TIP3    H146976   4.518   4.254   5.404 -0.4727 -0.4771  1.3872
 8495TIP3    H246977   4.648   4.191   5.452 -0.0540 -1.1049 -0.5442
 8496TIP3   OH246978   3.193   3.906  13.064 -0.0241 -0.8612  0.0122
 8496TIP3    H146979   3.180   3.931  13.155 -0.6382 -1.5209  0.1078
 8496TIP3    H246980   3.244   3.978  13.026 -1.9963  0.6835  0.2289
 8497TIP3   OH246981   1.409   1.526   1.633 -0.1562  0.1696  0.3905
 8497TIP3    H146982   1.457   1.445   1.650 -0.0115 -0.3640 -2.4292
 8497TIP3    H246983   1.344   1.530   1.704  0.5065 -1.8663  1.1458
 8498TIP3   OH246984   3.795   2.646   2.501  0.1457  0.1475 -0.0319
 8498TIP3    H146985   3.825   2.736   2.512  0.6436 -0.0498  0.2226
 8498TIP3    H246986   3.830   2.619   2.416  1.1398 -0.2645  0.5111
 8499TIP3   OH246987   4.311   3.938  10.212  0.3119 -0.3284  0.3383
 8499TIP3    H146988   4.322   4.032  10.227  4.2973 -0.2600 -2.3713
 8499TIP3    H246989   4.237   3.932  10.151  1.0405  1.1463 -0.6936
 8500TIP3   OH246990   5.406   4.262   6.185 -0.2162  0.1951  0.0281
 8500TIP3    H146991   5.352   4.274   6.107  2.5158 -0.0034 -1.9663
 8500TIP3    H246992   5.412   4.349   6.224  0.5488  0.8478 -1.4953
 8501TIP3   OH246993   4.072   6.246  10.934 -0.1358  0.3971  0.0947
 8501TIP3    H146994   4.164   6.275  10.927  0.5269 -0.8025  2.8785
 8501TIP3    H246995   4.069   6.164  10.886  0.7349 -0.5136  1.5615
 8502TIP3   OH246996   4.101   4.054  14.028  0.0570  0.2693  0.0796
 8502TIP3    H146997   4.053   3.980  14.067 -0.9374  0.2724 -1.0981
 8502TIP3    H246998   4.075   4.129  14.080 -3.0056  0.6639 -1.8449
 8503TIP3   OH246999   0.827   0.083  12.072 -0.1031  0.2288  0.1624
 8503TIP3    H147000   0.867   0.026  12.006  0.3947  0.5261  0.2054
 8503TIP3    H247001   0.751   0.121  12.028 -1.1066 -1.3411  0.4912
 8504TIP3   OH247002   6.728   3.382   2.960 -0.1438  0.6965  0.1888
 8504TIP3    H147003   6.746   3.332   2.881 -0.6617  1.4386 -0.4031
 8504TIP3    H247004   6.813   3.394   3.002  0.0484 -0.2059  0.0483
 8505TIP3   OH247005   4.503   2.854  16.681  0.0437  0.5324  0.6753
 8505TIP3    H147006   4.549   2.938  16.677 -1.1762  1.2365  0.9890
 8505TIP3    H247007   4.561   2.797  16.732  0.5189  1.4297  1.1584
 8506TIP3   OH247008   0.945   5.478   1.872 -0.0628  0.1075  0.0314
 8506TIP3    H147009   0.861   5.439   1.896 -0.3233  1.2919  1.0930
 8506TIP3    H247010   0.975   5.426   1.797 -2.5131  0.6341 -1.3956
 8507TIP3   OH247011   0.633   1.650  15.793  0.2754  0.0746 -0.0267
 8507TIP3    H147012   0.629   1.716  15.862  0.7354  0.8349 -0.7116
 8507TIP3    H247013   0.685   1.579  15.830  0.4696  0.4531  0.4296
 8508TIP3   OH247014   2.677   0.446  16.334 -0.4068 -0.3213 -0.0829
 8508TIP3    H147015   2.740   0.499  16.285  0.6182  0.5397  2.1015
 8508TIP3    H247016   2.722   0.425  16.416 -2.6104 -0.4994  1.1237
 8509TIP3   OH247017   5.017   1.081   2.118 -0.2142  0.2039  0.2765
 8509TIP3    H147018   5.086   1.039   2.168 -1.3286 -1.4368  0.4811
 8509TIP3    H247019   5.028   1.174   2.134  2.5306  0.0370 -0.4710
 8510TIP3   OH247020   5.716   1.064  13.744 -0.6565  0.0652  0.0769
 8510TIP3    H147021   5.652   1.121  13.703  0.6721  1.6916  0.2034
 8510TIP3    H247022   5.799   1.087  13.703  0.2140 -0.3894  1.5356
 8511TIP3   OH247023   2.500   2.192  16.923  0.4355  0.0904  0.1326
 8511TIP3    H147024   2.548   2.273  16.939 -0.2648  0.7091 -0.8292
 8511TIP3    H247025   2.436   2.187  16.994  0.0921  0.6774 -0.1382
 8512TIP3   OH247026   1.250   3.645   0.994 -0.1995 -0.0954 -0.4604
 8512TIP3    H147027   1.314   3.620   0.928  0.6661  0.1133  0.2840
 8512TIP3    H247028   1.172   3.669   0.945  0.8964  1.4454 -1.4783
 8513TIP3   OH247029   1.565   2.580  16.696  0.7419 -0.1817  0.1054
 8513TIP3    H147030   1.477   2.560  16.664  1.2712 -1.6259 -0.4496
 8513TIP3    H247031   1.621   2.576  16.619  1.5644 -0.9352  0.7253
 8514TIP3   OH247032   0.896   4.865   2.521 -0.7518 -0.2347  0.4364
 8514TIP3    H147033   0.815   4.866   2.572 -0.3442  0.1739  1.0834
 8514TIP3    H247034   0.917   4.957   2.506 -1.2601 -0.3574 -1.1176
 8515TIP3   OH247035   5.699   2.521   4.509 -0.0041  0.1782  0.1224
 8515TIP3    H147036   5.757   2.532   4.434  0.4625 -0.7423  0.3454
 8515TIP3    H247037   5.611   2.516   4.471  0.3097 -1.2323 -0.4472
 8516TIP3   OH247038   5.450   3.005   0.847 -0.0375 -0.0198 -0.1422
 8516TIP3    H147039   5.360   3.023   0.876 -0.3153  0.3563 -1.2262
 8516TIP3    H247040   5.500   3.002   0.928 -0.7365  1.4639  0.3787
 8517TIP3   OH247041   1.151   5.144  16.124  0.9512  0.2012 -0.0218
 8517TIP3    H147042   1.068   5.192  16.118  0.2024 -0.9976  0.6630
 8517TIP3    H247043   1.218   5.213  16.132 -0.2364  1.1236  2.3639
 8518TIP3   OH247044   1.753   2.042   5.550  0.2147 -0.2892 -0.0991
 8518TIP3    H147045   1.758   2.135   5.526 -2.1239  0.3974  1.7805
 8518TIP3    H247046   1.708   2.001   5.477  0.2090  0.2866 -0.4234
 8519TIP3   OH247047   6.382   4.935  15.914  0.2683 -0.4071  0.3301
 8519TIP3    H147048   6.330   4.986  15.976  1.3532 -1.2127  1.9525
 8519TIP3    H247049   6.455   4.992  15.892 -1.1735  0.6621 -1.8243
 8520TIP3   OH247050   3.730   3.966  17.003  0.1436  0.0542 -0.2034
 8520TIP3    H147051   3.661   4.031  16.998  0.7524  0.8225  1.1996
 8520TIP3    H247052   3.768   3.965  16.915  0.0012  1.4450 -0.2912
 8521TIP3   OH247053   0.271   4.807  13.563 -0.5838  0.6014  0.1753
 8521TIP3    H147054   0.300   4.832  13.651 -1.6762 -0.0396  0.7343
 8521TIP3    H247055   0.198   4.747  13.578 -0.8628  0.5805 -1.1773
 8522TIP3   OH247056   4.539   1.880   0.569  0.1343 -0.3140 -0.0594
 8522TIP3    H147057   4.630   1.890   0.543  0.4672  1.4095  1.6244
 8522TIP3    H247058   4.490   1.880   0.487  1.5750 -0.3478 -0.9333
 8523TIP3   OH247059   6.561   0.725  15.733  0.5787 -0.2412 -0.3233
 8523TIP3    H147060   6.544   0.632  15.721 -0.7338 -0.0692  0.1263
 8523TIP3    H247061   6.509   0.769  15.666  0.1069  0.2369  0.3492
 8524TIP3   OH247062   2.802   0.520   2.754 -0.8685  0.0696 -0.1431
 8524TIP3    H147063   2.834   0.585   2.816 -1.2865 -0.0798  0.2298
 8524TIP3    H247064   2.708   0.514   2.771 -0.8023 -0.7739 -0.0363
 8525TIP3   OH247065   3.688   0.797  13.541 -0.0057 -0.1646  0.1407
 8525TIP3    H147066   3.641   0.810  13.459 -1.6860  0.5420  1.1869
 8525TIP3    H247067   3.773   0.760  13.515 -0.9584 -1.0423 -1.8165
 8526TIP3   OH247068   3.969   2.176   0.251  0.0042 -0.5405  0.4221
 8526TIP3    H147069   3.962   2.196   0.344  0.3466 -2.2815  0.8464
 8526TIP3    H247070   4.062   2.186   0.231  0.2311 -2.0124  0.7178
 8527TIP3   OH247071   2.691   0.834  12.953  0.0384  0.5985  0.4088
 8527TIP3    H147072   2.604   0.801  12.934  0.2635 -0.6446  1.4287
 8527TIP3    H247073   2.729   0.855  12.868 -0.9374  0.3276 -0.0965
 8528TIP3   OH247074   5.364   3.467  14.999  0.3185  0.5498  0.1037
 8528TIP3    H147075   5.277   3.501  15.018  0.2263  0.2121  0.2942
 8528TIP3    H247076   5.398   3.440  15.085  1.4109  2.5589  0.3424
 8529TIP3   OH247077   3.970   4.789   3.839  0.4611  1.0170 -0.8086
 8529TIP3    H147078   3.943   4.828   3.923 -3.2169  1.5577 -2.1488
 8529TIP3    H247079   4.064   4.807   3.833  0.0310  4.3858  1.4172
 8530TIP3   OH247080   0.600   2.997   2.587  0.5627 -0.3265  0.1034
 8530TIP3    H147081   0.625   2.947   2.510  0.6630 -0.8431  0.4673
 8530TIP3    H247082   0.531   2.944   2.628 -0.1960  0.4264 -0.1695
 8531TIP3   OH247083   5.217   0.252   2.147 -0.5762  1.0399 -0.3900
 8531TIP3    H147084   5.299   0.300   2.152 -0.4482  0.8641 -0.7497
 8531TIP3    H247085   5.221   0.190   2.220 -0.7593  1.5920  0.0990
 8532TIP3   OH247086   0.755   4.020   4.043 -0.1690 -0.5557  0.1388
 8532TIP3    H147087   0.829   4.079   4.055  0.4804 -1.6990  2.0856
 8532TIP3    H247088   0.704   4.058   3.972  1.4880  1.0587 -0.2027
 8533TIP3   OH247089   0.262   5.736  17.005  0.6007  0.1312 -0.1386
 8533TIP3    H147090   0.214   5.745  16.923  0.8972 -1.2236 -0.4665
 8533TIP3    H247091   0.352   5.715  16.979  0.8073  0.1728  0.5190
 8534TIP3   OH247092   3.970   3.619   0.073  0.2105 -0.4080 -0.0202
 8534TIP3    H147093   3.906   3.677   0.114  1.4968  0.5011  0.7321
 8534TIP3    H247094   3.970   3.645  -0.019 -0.0733  0.0010  0.0939
 8535TIP3   OH247095   0.712   3.581   4.598  0.3050  0.7118 -0.5026
 8535TIP3    H147096   0.663   3.504   4.627 -0.4797  0.7374 -1.6963
 8535TIP3    H247097   0.791   3.581   4.651 -1.5217  1.3409  2.2909
 8536TIP3   OH247098   0.092   1.259   4.758 -0.4740  0.4905  0.2404
 8536TIP3    H147099   0.173   1.284   4.802 -1.3055  0.2291  1.9334
 8536TIP3    H247100   0.046   1.342   4.743 -0.2369  0.5680 -0.0725
 8537TIP3   OH247101   0.470   1.652  16.292  0.4935 -0.5975  0.8338
 8537TIP3    H147102   0.517   1.682  16.369 -0.3545  0.1945  1.0429
 8537TIP3    H247103   0.417   1.727  16.265 -0.9475 -1.6021  0.8273
 8538TIP3   OH247104   0.774   1.524  12.650  0.5383 -0.0000 -0.3433
 8538TIP3    H147105   0.757   1.572  12.732 -0.0651  1.9659 -1.5728
 8538TIP3    H247106   0.761   1.432  12.673  0.5434  0.5018  1.8105
 8539TIP3   OH247107   3.915   3.663  15.695 -0.1022  0.5632 -0.4936
 8539TIP3    H147108   3.964   3.641  15.615 -0.3690 -0.3047 -0.4316
 8539TIP3    H247109   3.956   3.610  15.763  1.2629  2.6142  0.3197
 8540TIP3   OH247110   3.027   6.446   5.261  0.0531  0.3063  0.1301
 8540TIP3    H147111   3.015   6.352   5.252  1.0300  0.0858  1.0246
 8540TIP3    H247112   3.072   6.473   5.180 -1.2250  0.1938 -0.6204
 8541TIP3   OH247113   6.430   0.868   1.877 -0.3228 -0.2993  0.3881
 8541TIP3    H147114   6.437   0.868   1.782  2.1038 -2.1082  0.4985
 8541TIP3    H247115   6.399   0.956   1.900 -0.6298  0.2397 -2.0420
 8542TIP3   OH247116   1.529   2.155   3.066  0.2400  0.0158 -0.5988
 8542TIP3    H147117   1.507   2.080   3.121  0.1632  0.3984 -0.1000
 8542TIP3    H247118   1.608   2.192   3.106  1.0700 -0.6217 -1.6579
 8543TIP3   OH247119   2.333   5.163  15.600  0.1426 -0.3099  0.6901
 8543TIP3    H147120   2.326   5.103  15.674  0.6351 -1.4112 -0.1418
 8543TIP3    H247121   2.244   5.169  15.566 -0.5778  2.1740  2.8671
 8544TIP3   OH247122   3.093   4.476   2.347  0.0229  0.4027 -0.0784
 8544TIP3    H147123   3.051   4.541   2.404 -0.4087 -1.0411  1.2942
 8544TIP3    H247124   3.105   4.399   2.403  0.4259 -0.7479 -1.6967
 8545TIP3   OH247125   3.005   5.146   3.394 -0.2529  0.1442 -0.3441
 8545TIP3    H147126   3.011   5.239   3.415  0.0328  0.5592 -2.2128
 8545TIP3    H247127   2.954   5.143   3.312 -0.6559 -1.3712 -0.0549
 8546TIP3   OH247128   3.221   4.724  11.705  0.0856 -0.0238  0.7615
 8546TIP3    H147129   3.243   4.796  11.765  1.1747 -0.1786  0.5472
 8546TIP3    H247130   3.131   4.744  11.677  0.1401  0.9044  1.2130
 8547TIP3   OH247131   5.625   0.409   1.891  0.0122  0.1922  0.1032
 8547TIP3    H147132   5.629   0.328   1.840 -0.6885 -0.0721  0.4714
 8547TIP3    H247133   5.705   0.456   1.866  1.3001 -1.3666  1.1716
 8548TIP3   OH247134   5.616   3.197  15.739 -0.5009 -0.3856  0.0861
 8548TIP3    H147135   5.674   3.142  15.791  0.5424  2.0759  1.6050
 8548TIP3    H247136   5.674   3.241  15.676 -1.1481 -0.1286 -0.3410
 8549TIP3   OH247137   4.400   2.606   2.356  0.2003  0.2275  0.1330
 8549TIP3    H147138   4.404   2.692   2.315  3.0195 -0.8726 -2.0794
 8549TIP3    H247139   4.416   2.622   2.449 -0.5027  2.2084 -0.0807
 8550TIP3   OH247140   3.523   5.916  14.174 -0.3003  0.2997 -0.0257
 8550TIP3    H147141   3.602   5.970  14.178 -1.0601  1.3590  0.8708
 8550TIP3    H247142   3.555   5.830  14.148  1.3340  0.3421  1.7512
 8551TIP3   OH247143   4.784   1.580  16.857 -0.4517 -0.3910  0.0242
 8551TIP3    H147144   4.705   1.618  16.897 -0.1843  1.5641 -1.2188
 8551TIP3    H247145   4.856   1.630  16.896  0.1086 -1.5200  0.4365
 8552TIP3   OH247146   4.572   0.884  11.867 -0.1048  0.0575  0.1074
 8552TIP3    H147147   4.506   0.864  11.800  0.3195  0.1999 -0.3547
 8552TIP3    H247148   4.611   0.966  11.839  0.4820 -0.1823  0.2203
 8553TIP3   OH247149   1.097   5.588   3.076  0.0693  0.0532 -0.2615
 8553TIP3    H147150   1.085   5.683   3.078 -0.0959  0.0636 -1.6706
 8553TIP3    H247151   1.192   5.576   3.071  0.0542  0.1571 -0.8182
 8554TIP3   OH247152   1.174   1.912  13.983  0.5453  0.2518 -0.8784
 8554TIP3    H147153   1.115   1.977  13.944  0.2786 -0.0653 -1.0023
 8554TIP3    H247154   1.194   1.946  14.070  0.5338  0.5806 -1.0043
 8555TIP3   OH247155   0.990   0.239   0.233 -0.1806 -0.0141 -0.1497
 8555TIP3    H147156   1.001   0.152   0.196  0.7885  0.2377 -0.4780
 8555TIP3    H247157   0.958   0.293   0.161  0.1634  0.1199 -0.2027
 8556TIP3   OH247158   6.519   3.274  10.744  0.0900  0.1309  0.6483
 8556TIP3    H147159   6.519   3.179  10.759  0.8880  0.4576  2.9846
 8556TIP3    H247160   6.566   3.310  10.820 -1.2351  2.4795  0.3954
 8557TIP3   OH247161   5.419   6.157   1.836  0.1720  0.2224 -0.0363
 8557TIP3    H147162   5.381   6.245   1.838  1.7592  0.9117  0.0736
 8557TIP3    H247163   5.409   6.126   1.926 -0.7079  0.1371 -0.1543
 8558TIP3   OH247164   2.602   5.869   3.398 -0.2554  0.0984  0.0644
 8558TIP3    H147165   2.509   5.876   3.421 -0.6849 -1.7505 -0.9843
 8558TIP3    H247166   2.649   5.886   3.480 -1.5377  0.6190  0.7010
 8559TIP3   OH247167   6.678   0.549  15.402 -0.1461  0.3761  0.0492
 8559TIP3    H147168   6.770   0.523  15.406  0.1816  1.4932 -0.1301
 8559TIP3    H247169   6.653   0.535  15.310  0.2494  1.3910 -0.2267
 8560TIP3   OH247170   3.062   1.330   3.338 -0.2706 -0.1664 -0.0954
 8560TIP3    H147171   3.139   1.305   3.390  0.4712  2.9073  0.3775
 8560TIP3    H247172   2.990   1.333   3.402  0.2314  1.6273  0.4261
 8561TIP3   OH247173   2.218   1.477  14.787 -0.0385  0.0376 -0.3609
 8561TIP3    H147174   2.262   1.399  14.753 -0.6233 -1.4583  2.1383
 8561TIP3    H247175   2.126   1.465  14.763 -0.2430 -0.4061  0.6185
 8562TIP3   OH247176   2.392   1.209   2.974  0.0281 -0.1463  0.0064
 8562TIP3    H147177   2.397   1.258   2.892  0.5424 -0.2323 -0.0181
 8562TIP3    H247178   2.439   1.128   2.955 -1.1849 -0.8498 -0.0941
 8563TIP3   OH247179   2.021   5.833   2.320 -0.9435 -0.0463  0.1729
 8563TIP3    H147180   2.039   5.927   2.325  0.9795 -0.4753  2.0006
 8563TIP3    H247181   1.950   5.818   2.382 -0.8815  0.1419  0.2890
 8564TIP3   OH247182   3.467   0.665   2.231 -0.6674 -0.4293  0.7079
 8564TIP3    H147183   3.414   0.640   2.306 -2.8320 -0.1925 -0.6830
 8564TIP3    H247184   3.500   0.582   2.196  0.4341 -0.5267  1.9677
 8565TIP3   OH247185   1.398   0.303   1.361  0.2178  0.1481 -0.4885
 8565TIP3    H147186   1.430   0.221   1.398  3.4672  1.4523 -0.1991
 8565TIP3    H247187   1.362   0.279   1.276  1.1923 -1.5701 -0.4336
 8566TIP3   OH247188   0.806   4.865   3.518 -0.1113  0.4882  1.1744
 8566TIP3    H147189   0.712   4.862   3.498  0.4126  2.1973 -1.7644
 8566TIP3    H247190   0.813   4.929   3.589 -1.1612  0.1639  1.5910
 8567TIP3   OH247191   3.385   4.223   0.027 -0.2572  0.4743 -0.3064
 8567TIP3    H147192   3.461   4.189   0.074 -0.1833  2.5693  1.1749
 8567TIP3    H247193   3.316   4.228   0.093 -1.3014 -0.1261 -1.3296
 8568TIP3   OH247194   1.294   0.568   6.297  0.1789 -0.5367 -0.6172
 8568TIP3    H147195   1.307   0.526   6.382  0.3683  1.3696  0.3069
 8568TIP3    H247196   1.223   0.631   6.311 -0.8326 -1.2580 -2.2596
 8569TIP3   OH247197   0.890   5.950  11.542  0.4007 -0.4742  0.1879
 8569TIP3    H147198   0.839   6.028  11.563 -1.1387 -1.7483  1.3349
 8569TIP3    H247199   0.966   5.983  11.496 -1.4683  1.4995 -1.6244
 8570TIP3   OH247200   1.991   1.131   5.014 -0.6299  0.1540  0.0542
 8570TIP3    H147201   1.923   1.104   4.952  0.0721 -0.0627 -0.6359
 8570TIP3    H247202   2.032   1.207   4.974  0.7335 -0.8049 -0.4170
 8571TIP3   OH247203   5.445   6.074  16.392 -0.6630  0.7505 -0.1204
 8571TIP3    H147204   5.428   6.167  16.382  2.2780  1.6686  2.5853
 8571TIP3    H247205   5.508   6.054  16.322 -0.4217  1.0664  0.0063
 8572TIP3   OH247206   5.181   4.496   4.552 -0.3103 -0.1753  0.2710
 8572TIP3    H147207   5.242   4.460   4.488 -1.3824 -1.7298  0.0782
 8572TIP3    H247208   5.099   4.505   4.504 -1.1862 -1.5499  1.4261
 8573TIP3   OH247209   0.193   0.463   5.558  0.0002 -0.0769 -0.1519
 8573TIP3    H147210   0.219   0.377   5.591  0.1975  1.4680  4.0274
 8573TIP3    H247211   0.264   0.521   5.584 -0.6566  1.5691 -1.9124
 8574TIP3   OH247212   6.433   2.782   3.147 -0.2962  0.0010 -0.2024
 8574TIP3    H147213   6.364   2.754   3.207 -1.0361 -0.1224 -1.0983
 8574TIP3    H247214   6.485   2.703   3.131 -0.0600  0.0514  0.3321
 8575TIP3   OH247215   6.489   5.276   1.063 -0.4357  0.7821  0.3199
 8575TIP3    H147216   6.495   5.181   1.058  3.3177  0.9233  0.7129
 8575TIP3    H247217   6.422   5.292   1.130 -1.6966 -1.5354 -0.3354
 8576TIP3   OH247218   3.304   1.461  11.986 -0.1393  0.2084  0.5870
 8576TIP3    H147219   3.217   1.502  11.986 -0.0989  0.2937  0.7190
 8576TIP3    H247220   3.298   1.393  12.053 -0.8379 -1.3305 -0.9918
 8577TIP3   OH247221   1.250   2.843   5.535  0.0023  0.4802 -0.2541
 8577TIP3    H147222   1.286   2.757   5.513 -0.0513  0.0991  1.1196
 8577TIP3    H247223   1.185   2.826   5.603  2.4289  1.9398  2.5367
 8578TIP3   OH247224   2.876   4.968  16.122  0.1276  0.2249  0.0760
 8578TIP3    H147225   2.813   4.905  16.156  0.1496  0.3046  0.2667
 8578TIP3    H247226   2.868   4.961  16.027 -0.2033  0.2686  0.1008
 8579TIP3   OH247227   3.816   1.240   4.025 -0.2140 -0.0961  0.1558
 8579TIP3    H147228   3.791   1.237   3.933  2.8289  1.4538 -0.7778
 8579TIP3    H247229   3.809   1.332   4.049 -0.2560 -0.3801  1.2675
 8580TIP3   OH247230   2.523   5.132  12.497 -0.0463  0.1959 -0.0483
 8580TIP3    H147231   2.497   5.105  12.409  1.4887  0.0086 -0.4569
 8580TIP3    H247232   2.527   5.227  12.493 -0.5687  0.2179 -0.0168
 8581TIP3   OH247233   3.531   2.915   4.859  0.1475  0.1676  0.0148
 8581TIP3    H147234   3.466   2.865   4.909 -0.0554  0.6274  0.2203
 8581TIP3    H247235   3.489   2.929   4.774  0.6115 -0.8669 -0.3950
 8582TIP3   OH247236   2.529   1.374  10.969  0.1283 -0.2279 -0.2102
 8582TIP3    H147237   2.564   1.308  11.028  0.3562  1.7496  1.9259
 8582TIP3    H247238   2.435   1.374  10.987  0.0822 -0.2149 -0.4542
 8583TIP3   OH247239   3.353   4.594   2.378  0.4873 -0.1916  0.3008
 8583TIP3    H147240   3.367   4.555   2.464  0.8347  0.1945  0.4223
 8583TIP3    H247241   3.270   4.557   2.348  0.0304  0.1770  1.0878
 8584TIP3   OH247242   2.315   4.112   1.174 -0.1112 -0.2175 -0.2906
 8584TIP3    H147243   2.331   4.022   1.203 -1.9516 -1.6506 -3.4229
 8584TIP3    H247244   2.395   4.136   1.127  0.5723  0.0070  0.9492
 8585TIP3   OH247245   3.680   5.645  12.215  0.1682  0.3320 -0.2371
 8585TIP3    H147246   3.774   5.648  12.198  0.2911  0.3876  0.4371
 8585TIP3    H247247   3.667   5.562  12.260 -0.2793 -0.2031 -1.3277
 8586TIP3   OH247248   2.580   2.333   5.918  1.1249 -0.0615 -0.3154
 8586TIP3    H147249   2.536   2.312   6.001  0.1603 -1.1206 -1.0833
 8586TIP3    H247250   2.627   2.415   5.936 -0.1427  0.4201  0.8952
 8587TIP3   OH247251   5.754   6.663  11.600  0.2610 -0.2478 -0.0322
 8587TIP3    H147252   5.848   6.661  11.617  0.5779 -1.8163 -1.7348
 8587TIP3    H247253   5.736   6.754  11.577  1.5948 -0.1599 -0.8163
 8588TIP3   OH247254   2.619   0.309   5.652  0.2656 -0.2469  0.3405
 8588TIP3    H147255   2.615   0.259   5.734 -0.9098 -0.6230  0.0601
 8588TIP3    H247256   2.712   0.312   5.631  0.6515  0.3954  2.0271
 8589TIP3   OH247257   0.269   3.237  11.787 -0.3857 -0.1448  0.0397
 8589TIP3    H147258   0.232   3.151  11.768  0.4217 -0.4749 -0.0221
 8589TIP3    H247259   0.270   3.282  11.702  1.0914 -0.8033 -0.2958
 8590TIP3   OH247260   4.583   0.246   1.808 -0.1342  0.3559 -0.0260
 8590TIP3    H147261   4.531   0.165   1.808  0.0658  0.1486 -3.1312
 8590TIP3    H247262   4.674   0.216   1.802  0.0030  0.7747 -0.0583
 8591TIP3   OH247263   2.835   5.422  16.842 -0.2490 -0.2515 -0.3243
 8591TIP3    H147264   2.781   5.477  16.786 -0.6817 -0.1277  0.2102
 8591TIP3    H247265   2.781   5.406  16.920 -0.1400 -1.4613 -0.4840
 8592TIP3   OH247266   4.837   4.801  13.755  0.4199  0.2462  0.2738
 8592TIP3    H147267   4.901   4.747  13.709  1.7613  0.6370  1.6557
 8592TIP3    H247268   4.850   4.782  13.848 -0.5010  1.3801  0.6580
 8593TIP3   OH247269   4.928   4.091  12.675  0.4521 -0.1571 -0.3084
 8593TIP3    H147270   4.919   4.001  12.644  1.0435 -0.2759 -0.1418
 8593TIP3    H247271   4.966   4.083  12.762 -0.4681  0.2109  0.1361
 8594TIP3   OH247272   3.207   2.163  16.665  0.7552 -0.2308  0.2300
 8594TIP3    H147273   3.132   2.109  16.690  1.8448 -2.2635 -0.8347
 8594TIP3    H247274   3.239   2.200  16.747 -1.0121  0.1520  0.7656
 8595TIP3   OH247275   1.593   4.729  16.940  0.2886 -0.1036 -0.1722
 8595TIP3    H147276   1.670   4.766  16.984  0.9719  0.2405 -1.6430
 8595TIP3    H247277   1.610   4.742  16.847  0.1601 -3.3785 -0.6989
 8596TIP3   OH247278   0.148   5.874  12.604 -0.5120 -0.7713 -0.1225
 8596TIP3    H147279   0.146   5.906  12.514  0.4749  1.5391  0.6417
 8596TIP3    H247280   0.137   5.779  12.596 -0.6529 -0.5739 -2.6461
 8597TIP3   OH247281   6.796   0.104  15.828 -0.1510  0.3926 -0.2986
 8597TIP3    H147282   6.885   0.122  15.858  0.0762  0.1088 -0.7895
 8597TIP3    H247283   6.795   0.132  15.737 -1.9517  4.9088  0.9694
 8598TIP3   OH247284   0.279   5.204   4.177  0.2028  0.1258  0.1140
 8598TIP3    H147285   0.264   5.144   4.104 -0.7802  0.3652  0.1137
 8598TIP3    H247286   0.357   5.254   4.152  0.5827 -0.6210 -0.2274
 8599TIP3   OH247287   0.372   1.548  11.564 -0.0231 -0.3981  0.2844
 8599TIP3    H147288   0.428   1.607  11.513 -1.1412  0.5802  0.1590
 8599TIP3    H247289   0.283   1.580  11.548 -0.3828  0.1774  3.1845
 8600TIP3   OH247290   3.785   0.050   4.236  0.3152  0.2669 -0.0348
 8600TIP3    H147291   3.807  -0.005   4.161 -2.2497  0.2531 -0.8071
 8600TIP3    H247292   3.803  -0.005   4.312 -0.2934 -0.9340 -0.7433
 8601TIP3   OH247293   4.630   4.595   4.988  0.3252  0.4406 -0.2059
 8601TIP3    H147294   4.590   4.587   5.075 -2.6568  0.6962 -1.4622
 8601TIP3    H247295   4.598   4.518   4.941 -0.4343  1.7825 -1.9237
 8602TIP3   OH247296   0.451   6.242  11.536  0.4300  0.5403  0.4300
 8602TIP3    H147297   0.544   6.220  11.542  0.7464  1.5904 -0.5098
 8602TIP3    H247298   0.441   6.280  11.449 -0.8878  0.4388  0.5242
 8603TIP3   OH247299   2.871   0.197  13.564 -1.0845  0.5751  0.3287
 8603TIP3    H147300   2.946   0.153  13.605 -1.2967 -0.6148 -0.5331
 8603TIP3    H247301   2.833   0.131  13.505 -2.9087  1.1128  0.8663
 8604TIP3   OH247302   5.023   0.023  11.778  0.2931 -0.1698  0.1605
 8604TIP3    H147303   4.973  -0.036  11.721 -0.0842 -0.5745  0.9060
 8604TIP3    H247304   5.027  -0.023  11.862 -1.1201  1.4305  1.1408
 8605TIP3   OH247305   4.911   5.555   3.984  1.1228 -0.5195 -0.2618
 8605TIP3    H147306   4.942   5.570   3.895  0.4782  2.7499 -0.0008
 8605TIP3    H247307   4.909   5.643   4.024  0.3145 -1.7792  2.5986
 8606TIP3   OH247308   1.699   4.711   0.203 -0.1010  0.2127 -0.2512
 8606TIP3    H147309   1.617   4.755   0.179 -0.3269  0.1775  0.4354
 8606TIP3    H247310   1.672   4.622   0.227  0.1644  0.1402 -0.2203
 8607TIP3   OH247311   3.328   6.708  14.542  0.7585  0.0615  0.0862
 8607TIP3    H147312   3.328   6.749  14.628  0.1318 -1.5314  0.8517
 8607TIP3    H247313   3.237   6.714  14.512  0.9062  0.2999 -0.3176
 8608TIP3   OH247314   1.543   1.164  12.295  0.5006  0.6176  0.2649
 8608TIP3    H147315   1.463   1.217  12.301  0.1918 -0.1302  3.3885
 8608TIP3    H247316   1.609   1.215  12.342  1.6905  0.8077 -1.5400
 8609TIP3   OH247317   1.336   3.602   0.736 -0.2036  0.2775 -0.7045
 8609TIP3    H147318   1.400   3.591   0.666 -1.1870 -0.1035 -1.5421
 8609TIP3    H247319   1.282   3.676   0.708 -1.5486 -0.8345 -1.0663
 8610TIP3   OH247320   6.297   4.419   3.491  0.1280 -0.6414 -0.1973
 8610TIP3    H147321   6.353   4.437   3.415  0.4337  1.9168  0.5937
 8610TIP3    H247322   6.356   4.427   3.566 -0.7507 -0.3894  0.4665
 8611TIP3   OH247323   0.747   5.570  13.248  0.1271  0.9510  0.0321
 8611TIP3    H147324   0.764   5.530  13.334 -2.1700  0.3574  0.2486
 8611TIP3    H247325   0.702   5.652  13.269  0.0628  1.0787 -0.6063
 8612TIP3   OH247326   4.116   3.628   0.803  0.2788  0.6269  0.2953
 8612TIP3    H147327   4.099   3.576   0.882 -1.9274 -2.0316 -1.8113
 8612TIP3    H247328   4.185   3.580   0.757  0.6589  1.4568 -0.0096
 8613TIP3   OH247329   3.747   0.987   0.452  0.1992 -0.0537  0.3495
 8613TIP3    H147330   3.668   0.979   0.507 -1.4518  0.9108 -1.7917
 8613TIP3    H247331   3.793   1.063   0.488 -0.5834  0.2363  0.7603
 8614TIP3   OH247332   0.810   4.295  12.767 -0.4363 -0.1046 -0.2339
 8614TIP3    H147333   0.853   4.380  12.778 -0.0308 -0.4730  1.0817
 8614TIP3    H247334   0.757   4.285  12.845  0.5939 -1.6893  0.2762
 8615TIP3   OH247335   4.784   0.817   5.579 -0.0833 -0.8097 -0.3115
 8615TIP3    H147336   4.697   0.808   5.619  0.2916 -0.6302  0.5680
 8615TIP3    H247337   4.789   0.908   5.552  0.5788 -0.3054  1.4445
 8616TIP3   OH247338   0.278   5.914   3.837  0.2466  0.5490  0.5968
 8616TIP3    H147339   0.313   5.853   3.772  0.4089 -1.4817  2.5285
 8616TIP3    H247340   0.201   5.952   3.795 -0.1293 -1.3424 -0.4862
 8617TIP3   OH247341   3.315   4.584   6.552 -0.1788  0.0200  0.0182
 8617TIP3    H147342   3.311   4.581   6.457  0.3952 -0.3124 -0.0003
 8617TIP3    H247343   3.408   4.586   6.572 -0.3122  0.9574  0.5543
 8618TIP3   OH247344   5.754   3.369  16.325 -0.1014 -0.2721  0.2380
 8618TIP3    H147345   5.728   3.459  16.305 -0.3228 -0.0342  1.5119
 8618TIP3    H247346   5.816   3.378  16.398  0.1918 -1.1260  0.0985
 8619TIP3   OH247347   6.811   0.142  15.565 -1.0687  0.9304 -0.1196
 8619TIP3    H147348   6.861   0.177  15.490  1.8558 -0.3176  1.1840
 8619TIP3    H247349   6.766   0.066  15.529 -0.4346  0.8829 -0.8508
 8620TIP3   OH247350   4.189   3.549   5.485  0.0508 -0.5774  0.2525
 8620TIP3    H147351   4.263   3.513   5.436  0.1127 -1.5497  1.0451
 8620TIP3    H247352   4.111   3.516   5.439  0.1066 -0.1098 -0.1807
 8621TIP3   OH247353   6.773   3.405   5.968  0.2679  0.1182  0.2903
 8621TIP3    H147354   6.813   3.344   6.030 -0.5759 -1.3544 -0.5659
 8621TIP3    H247355   6.715   3.350   5.915 -2.5425  2.1024  1.2017
 8622TIP3   OH247356   5.221   5.087   3.308  0.0032  0.1267 -0.0183
 8622TIP3    H147357   5.215   5.120   3.219  1.2177  0.5665  0.0536
 8622TIP3    H247358   5.151   5.132   3.355 -1.8667 -1.4869 -1.1401
 8623TIP3   OH247359   2.001   4.215  13.779 -0.6340  0.6205  0.0425
 8623TIP3    H147360   2.006   4.157  13.703 -1.3503  1.2246 -0.4825
 8623TIP3    H247361   1.993   4.157  13.854  3.0278 -0.0881 -0.0419
 8624TIP3   OH247362   1.614   4.694   0.647  0.4697  0.3345  0.1195
 8624TIP3    H147363   1.699   4.702   0.691  1.5060 -0.0796 -1.7349
 8624TIP3    H247364   1.612   4.603   0.617 -1.4834 -0.1998  1.7985
 8625TIP3   OH247365   3.842   5.808  11.453 -0.3976  0.0504 -0.3565
 8625TIP3    H147366   3.935   5.782  11.453 -0.1560  0.8887 -0.0011
 8625TIP3    H247367   3.841   5.892  11.500 -1.2240  0.4562 -1.0976
 8626TIP3   OH247368   3.850   1.819  13.427 -0.3448 -0.0099  0.4187
 8626TIP3    H147369   3.896   1.793  13.507 -0.6214 -0.4367  0.4435
 8626TIP3    H247370   3.919   1.836  13.364 -0.1577 -1.4537  0.2051
 8627TIP3   OH247371   1.719   4.847  13.627  0.4443  0.4317  0.2782
 8627TIP3    H147372   1.802   4.836  13.581  0.6967 -1.3467  1.1115
 8627TIP3    H247373   1.738   4.822  13.718 -1.0353 -0.1725  0.4483
 8628TIP3   OH247374   0.426   0.008  11.648  0.1992  0.1276  0.3824
 8628TIP3    H147375   0.463  -0.078  11.671 -0.5583 -0.5195 -0.7881
 8628TIP3    H247376   0.358  -0.012  11.584  3.1334  1.9923 -3.5310
 8629TIP3   OH247377   3.767   1.030   6.346 -0.1383  0.2204  0.4064
 8629TIP3    H147378   3.832   1.100   6.348 -0.9616  1.0566 -0.8197
 8629TIP3    H247379   3.721   1.037   6.429  0.7516  0.1974  0.8997
 8630TIP3   OH247380   1.934   6.522   4.574 -0.0295  0.4883  0.7097
 8630TIP3    H147381   1.941   6.617   4.584  0.1086  0.8490 -2.4160
 8630TIP3    H247382   1.902   6.509   4.485  1.0485 -2.4258  0.6892
 8631TIP3   OH247383   2.164   1.757   4.414  0.2553  0.1573 -0.0935
 8631TIP3    H147384   2.256   1.746   4.393  0.5647  0.3777  1.1084
 8631TIP3    H247385   2.118   1.698   4.355  1.0769  0.9653 -1.5528
 8632TIP3   OH247386   6.208   5.950   5.202  0.0015 -0.1314 -0.0280
 8632TIP3    H147387   6.244   6.028   5.159  0.6963  0.4587  1.6155
 8632TIP3    H247388   6.254   5.877   5.161  1.3130  0.4810  0.3265
 8633TIP3   OH247389   0.738   0.880  17.176  0.1249  0.6018 -0.0640
 8633TIP3    H147390   0.816   0.885  17.120 -0.0262  0.7380 -0.2600
 8633TIP3    H247391   0.719   0.970  17.200 -0.3663  0.6370 -0.5645
 8634TIP3   OH247392   2.700   0.616   0.712  0.1713  0.1731  0.2422
 8634TIP3    H147393   2.763   0.554   0.677 -0.7517 -0.6632  0.0214
 8634TIP3    H247394   2.707   0.693   0.654  2.4154  0.9164  1.4598
 8635TIP3   OH247395   0.545   3.276  11.910 -0.2757  0.8601  0.0947
 8635TIP3    H147396   0.453   3.266  11.884 -0.4712 -2.1618  1.6703
 8635TIP3    H247397   0.595   3.239  11.838 -0.3161  1.6744 -0.3594
 8636TIP3   OH247398   3.685   4.363  13.109  0.1679 -0.0947 -0.3694
 8636TIP3    H147399   3.735   4.417  13.048 -1.1501  0.1384 -1.2634
 8636TIP3    H247400   3.677   4.278  13.064  1.8956 -0.9521  0.8614
 8637TIP3   OH247401   3.740   2.669   4.241  0.3928  0.1575 -0.4515
 8637TIP3    H147402   3.821   2.668   4.291  0.4081 -4.1464 -0.3557
 8637TIP3    H247403   3.682   2.609   4.288 -2.1328  1.6259 -1.6240
 8638TIP3   OH247404   2.086   2.342   1.128 -0.1122 -0.0231  0.2897
 8638TIP3    H147405   2.100   2.427   1.086 -0.9188 -0.0140  0.0437
 8638TIP3    H247406   2.157   2.288   1.094 -0.1866  0.2620 -0.3403
 8639TIP3   OH247407   2.568   0.594  14.735  0.1183 -0.0469 -0.2261
 8639TIP3    H147408   2.539   0.666  14.791  0.8880  0.6448 -0.6992
 8639TIP3    H247409   2.492   0.576  14.679 -0.3999 -0.2464  0.5380
 8640TIP3   OH247410   0.545   4.569   3.877  0.0876  0.4724  0.5342
 8640TIP3    H147411   0.471   4.509   3.881 -0.4746  1.0332 -0.8852
 8640TIP3    H247412   0.567   4.587   3.968  0.7346 -2.4061  0.9990
 8641TIP3   OH247413   3.397   6.781  14.803  0.4165 -0.3845  0.1492
 8641TIP3    H147414   3.393   6.686  14.814  1.5689 -0.6978 -1.8065
 8641TIP3    H247415   3.459   6.811  14.870 -1.1274 -0.7954  1.7861
 8642TIP3   OH247416   3.113   5.341  10.896 -0.0873 -0.0225 -0.4626
 8642TIP3    H147417   3.111   5.268  10.958  0.0196  1.2595  1.0829
 8642TIP3    H247418   3.205   5.369  10.896 -0.6702  2.0352  1.2863
 8643TIP3   OH247419   2.373   4.950   5.393 -0.3085 -0.4241 -0.1096
 8643TIP3    H147420   2.458   4.950   5.436 -0.2096  0.5675 -0.3039
 8643TIP3    H247421   2.310   4.967   5.464  0.0152  3.3843 -0.6271
 8644TIP3   OH247422   5.741   5.387  13.164  0.0060 -0.1058 -0.5471
 8644TIP3    H147423   5.769   5.420  13.078  0.8876  2.1772  0.5846
 8644TIP3    H247424   5.820   5.392  13.218 -0.5873 -1.3700  0.4598
 8645TIP3   OH247425   0.813   3.361  11.102 -0.5423 -0.2121  0.3482
 8645TIP3    H147426   0.829   3.269  11.082  0.8271 -0.0133  0.4390
 8645TIP3    H247427   0.778   3.361  11.190  1.5521 -0.5254  1.2267
 8646TIP3   OH247428   4.652   4.924   4.264  0.5023 -0.1609 -0.5020
 8646TIP3    H147429   4.669   4.970   4.347 -0.9100  2.0921 -1.4096
 8646TIP3    H247430   4.737   4.885   4.241  1.5262  1.2202  0.7981
 8647TIP3   OH247431   2.862   2.388   5.724 -0.5478 -0.5290  0.1298
 8647TIP3    H147432   2.879   2.475   5.689  0.8908 -1.4177 -1.4278
 8647TIP3    H247433   2.810   2.404   5.803 -0.1025  1.7398 -0.0071
 8648TIP3   OH247434   4.874   6.539  15.231  0.1139  0.0709 -0.1566
 8648TIP3    H147435   4.790   6.499  15.255  0.3102  0.1034  0.6039
 8648TIP3    H247436   4.902   6.491  15.153 -0.3921 -0.2443 -0.1487
 8649TIP3   OH247437   2.521   0.229  14.114  0.0893 -0.1884 -0.3051
 8649TIP3    H147438   2.552   0.239  14.204  0.7609 -1.1293 -0.4144
 8649TIP3    H247439   2.503   0.135  14.106 -0.1461 -0.0796 -1.0960
 8650TIP3   OH247440   5.598   3.472  13.665 -0.0131 -0.1336  0.2909
 8650TIP3    H147441   5.557   3.460  13.751  1.2123 -0.3131  0.8676
 8650TIP3    H247442   5.544   3.538  13.622 -1.3633 -0.9386  0.7208
 8651TIP3   OH247443   1.494   2.850  15.578 -0.3269  0.4868 -0.3904
 8651TIP3    H147444   1.417   2.808  15.616 -0.2458  0.9067  0.2350
 8651TIP3    H247445   1.459   2.909  15.512 -0.6019  1.2886  0.4547
 8652TIP3   OH247446   4.077   0.167   4.307  0.1355  0.3193  0.2841
 8652TIP3    H147447   3.988   0.168   4.274 -0.2001  1.6831  1.1833
 8652TIP3    H247448   4.114   0.085   4.275 -2.1243 -1.3135  1.7372
 8653TIP3   OH247449   1.945   0.091   3.503  0.0208  0.0387  0.5671
 8653TIP3    H147450   1.960   0.102   3.597  2.2361 -0.6268  0.3231
 8653TIP3    H247451   1.898   0.007   3.496  1.3234 -0.7496  0.9930
 8654TIP3   OH247452   6.344   4.566  15.673  0.6731 -0.3636 -0.2823
 8654TIP3    H147453   6.345   4.659  15.696 -0.3375 -0.5091  0.3842
 8654TIP3    H247454   6.371   4.564  15.581  0.3279  0.6204 -0.4129
 8655TIP3   OH247455   6.347   5.565   0.266 -0.1548 -0.2682 -0.3968
 8655TIP3    H147456   6.357   5.513   0.346  0.3890 -1.5809 -1.2969
 8655TIP3    H247457   6.254   5.586   0.261 -0.7553 -2.9262 -1.0838
 8656TIP3   OH247458   4.903   3.751   3.736  0.1551  0.1881 -0.4933
 8656TIP3    H147459   4.972   3.692   3.704 -0.0330  0.7506 -2.0004
 8656TIP3    H247460   4.920   3.759   3.830  1.1382 -1.0004 -0.5506
 8657TIP3   OH247461   0.212   3.517  16.200 -0.4035 -0.4988 -0.5011
 8657TIP3    H147462   0.156   3.519  16.277 -0.2232  0.5375 -0.3874
 8657TIP3    H247463   0.230   3.610  16.181 -0.4801 -0.7347 -1.8092
 8658TIP3   OH247464   2.320   5.140   0.796 -1.1723 -0.1491 -0.0610
 8658TIP3    H147465   2.231   5.162   0.767 -0.1609  2.0749 -1.6371
 8658TIP3    H247466   2.359   5.225   0.820  1.1908 -0.8297 -1.3457
 8659TIP3   OH247467   2.125   4.035  16.503  0.1733  0.6041  0.0841
 8659TIP3    H147468   2.039   4.043  16.462 -0.5848  0.9180  1.6860
 8659TIP3    H247469   2.131   4.110  16.561  1.1850  0.1249  0.6118
 8660TIP3   OH247470   5.620   6.346  16.616  0.7826 -0.3356 -0.1006
 8660TIP3    H147471   5.648   6.362  16.525 -3.2006  1.3468 -1.1413
 8660TIP3    H247472   5.653   6.422  16.664 -2.4549  2.0654 -1.4699
 8661TIP3   OH247473   0.858   0.476  15.019  0.0034  0.7134  1.0094
 8661TIP3    H147474   0.783   0.512  15.067 -1.7018 -1.1573 -0.1589
 8661TIP3    H247475   0.873   0.391  15.060 -0.3683 -0.1541 -0.6132
 8662TIP3   OH247476   6.099   5.392  13.082 -0.2879  0.0204  0.1497
 8662TIP3    H147477   6.194   5.400  13.072 -0.4457  2.2436  0.1570
 8662TIP3    H247478   6.086   5.374  13.175  0.1097  0.1529  0.2307
 8663TIP3   OH247479   1.835   3.563  14.002  0.0381  0.3190  0.0910
 8663TIP3    H147480   1.844   3.642  13.949  0.7136 -0.5432 -1.1141
 8663TIP3    H247481   1.768   3.585  14.067 -1.1441  1.2320 -1.4171
 8664TIP3   OH247482   3.206   3.913   1.611  0.3127  0.3904 -0.2747
 8664TIP3    H147483   3.127   3.941   1.564  0.8380  0.1412 -1.3317
 8664TIP3    H247484   3.277   3.959   1.567  0.8907 -0.4352 -0.2134
 8665TIP3   OH247485   5.511   4.135  16.376 -0.4964 -0.5336 -0.0636
 8665TIP3    H147486   5.579   4.139  16.309 -0.4053 -1.3112 -0.0243
 8665TIP3    H247487   5.549   4.080  16.445 -1.0798 -0.7852  0.0567
 8666TIP3   OH247488   5.157   4.471   2.292 -0.1603 -0.5429 -0.1301
 8666TIP3    H147489   5.153   4.430   2.206 -1.7587  0.6630 -0.6403
 8666TIP3    H247490   5.075   4.447   2.334 -0.2537  0.5189  0.3128
 8667TIP3   OH247491   4.246   3.715  15.047  0.5196  0.0412  0.2380
 8667TIP3    H147492   4.297   3.720  15.128  0.3497  1.8449  0.2612
 8667TIP3    H247493   4.166   3.765  15.067 -0.8773 -2.0338 -0.0727
 8668TIP3   OH247494   3.377   4.220   3.247  0.6712  0.1313 -0.0216
 8668TIP3    H147495   3.313   4.148   3.248  0.6726  0.1266  0.6716
 8668TIP3    H247496   3.460   4.178   3.270  0.6474  0.3686  0.5171
 8669TIP3   OH247497   0.665   1.183   1.847  0.0375 -0.3694 -0.0879
 8669TIP3    H147498   0.630   1.273   1.848  0.2378 -0.2935 -0.0019
 8669TIP3    H247499   0.602   1.134   1.793  0.5245  0.0673 -1.0610
 8670TIP3   OH247500   1.565   6.633   5.134 -0.0839 -0.0991  0.1245
 8670TIP3    H147501   1.510   6.653   5.210  0.9993  0.7152  0.7071
 8670TIP3    H247502   1.601   6.547   5.152  0.1474  0.0822  0.5061
 8671TIP3   OH247503   5.361   2.795   2.643 -0.3089  0.3764  0.1189
 8671TIP3    H147504   5.403   2.709   2.641 -1.0516  0.0309 -1.5487
 8671TIP3    H247505   5.281   2.782   2.693  0.4428  0.5133  1.3712
 8672TIP3   OH247506   4.405   5.915   2.594 -0.2723  0.1539 -0.3547
 8672TIP3    H147507   4.340   5.885   2.529 -0.6114  0.6379 -0.2401
 8672TIP3    H247508   4.474   5.849   2.590  0.1103  0.6112 -1.8197
 8673TIP3   OH247509   3.164   5.939   4.887  0.1794 -0.1363  0.0287
 8673TIP3    H147510   3.110   5.869   4.924 -0.8901  0.0444 -1.1728
 8673TIP3    H247511   3.135   5.947   4.796  0.8611  1.3083 -0.0815
 8674TIP3   OH247512   3.932   5.116   2.102  0.4102  0.4372 -0.7565
 8674TIP3    H147513   3.898   5.197   2.139 -2.2282 -0.4696 -1.1207
 8674TIP3    H247514   3.877   5.047   2.140  2.5609 -1.2017 -0.4850
 8675TIP3   OH247515   0.707   0.065   5.825 -0.4142  0.5275 -0.1883
 8675TIP3    H147516   0.714   0.110   5.910  0.5727  0.5349 -0.2661
 8675TIP3    H247517   0.774   0.108   5.770 -0.1532 -0.3603 -0.5665
 8676TIP3   OH247518   2.146   5.169  16.360 -0.1449 -0.4451  0.0237
 8676TIP3    H147519   2.085   5.235  16.394  0.4452  0.0383  0.1408
 8676TIP3    H247520   2.146   5.184  16.265 -1.0623 -1.1746 -0.1018
 8677TIP3   OH247521   0.975   4.729   6.281  0.2489  0.1251 -0.9528
 8677TIP3    H147522   0.910   4.783   6.236 -0.8356 -0.5429 -0.2049
 8677TIP3    H247523   1.008   4.785   6.351  0.6531  0.5418 -1.4659
 8678TIP3   OH247524   3.373   1.315  13.371  0.0449  0.5147 -0.6811
 8678TIP3    H147525   3.303   1.316  13.437  0.7610  1.7727  0.0726
 8678TIP3    H247526   3.394   1.223  13.360 -0.4758  0.2494  0.4457
 8679TIP3   OH247527   1.043   2.845   2.503  0.0702 -0.2830 -0.2631
 8679TIP3    H147528   1.107   2.895   2.453  1.5015 -0.1265  1.6892
 8679TIP3    H247529   1.095   2.784   2.556 -1.4204 -0.7879  0.6612
 8680TIP3   OH247530   2.264   0.928   1.278  0.0141  0.4006  0.4837
 8680TIP3    H147531   2.263   0.887   1.191 -2.7677  1.4067  0.0002
 8680TIP3    H247532   2.357   0.933   1.301  0.7694 -0.1857 -2.2741
 8681TIP3   OH247533   1.131   2.678   3.861  0.8877  0.2783  0.1209
 8681TIP3    H147534   1.176   2.630   3.930  3.3439  0.6652 -1.1595
 8681TIP3    H247535   1.109   2.612   3.795  1.9828  0.5042 -0.4744
 8682TIP3   OH247536   1.234   1.665   2.007  0.2224  0.0655 -0.2962
 8682TIP3    H147537   1.328   1.682   2.006 -0.0781  1.8517  0.3350
 8682TIP3    H247538   1.223   1.589   1.951  2.2288 -1.1754  0.9637
 8683TIP3   OH247539   0.761   2.576  17.210 -0.2358  0.1654  0.4024
 8683TIP3    H147540   0.674   2.597  17.174 -0.4798 -0.1037  0.8356
 8683TIP3    H247541   0.768   2.631  17.288 -0.0663  0.0896  0.4402
 8684TIP3   OH247542   6.039   3.707  12.209 -0.1672  0.2645 -0.3580
 8684TIP3    H147543   5.945   3.692  12.203 -0.1389 -0.5982  1.3669
 8684TIP3    H247544   6.076   3.622  12.232  0.4879  1.7235  4.3291
 8685TIP3   OH247545   2.529   3.984   3.503  0.7165  0.1930  0.7273
 8685TIP3    H147546   2.566   4.039   3.435 -0.8901  1.0450  0.5126
 8685TIP3    H247547   2.487   4.045   3.564  0.7234 -0.6596  1.6084
 8686TIP3   OH247548   1.747   1.374   2.588  0.3012  0.1808  0.1525
 8686TIP3    H147549   1.821   1.319   2.565  0.2239  0.2073 -0.1714
 8686TIP3    H247550   1.695   1.322   2.649  1.9670  1.1688  2.4892
 8687TIP3   OH247551   6.723   0.807   6.585 -0.8908  0.2135  0.2439
 8687TIP3    H147552   6.661   0.801   6.658  0.9355 -0.7736  1.7411
 8687TIP3    H247553   6.787   0.872   6.613 -1.1697  1.2124 -1.2956
 8688TIP3   OH247554   5.782   6.670   3.488  1.1734 -0.2525 -1.0236
 8688TIP3    H147555   5.736   6.589   3.512  0.4460 -0.1468 -1.9972
 8688TIP3    H247556   5.716   6.720   3.439  2.0869  0.2651 -1.7274
 8689TIP3   OH247557   4.163   0.957  13.307  0.5166 -0.1316  0.5784
 8689TIP3    H147558   4.134   1.047  13.293  0.0701 -0.2152  0.9524
 8689TIP3    H247559   4.120   0.930  13.388  0.3445 -0.8151  0.2679
 8690TIP3   OH247560   0.713   3.934   4.828 -0.3937  0.2585 -0.0306
 8690TIP3    H147561   0.670   4.016   4.850 -0.0117  0.9490 -1.7187
 8690TIP3    H247562   0.666   3.902   4.751  0.4083 -0.3362 -0.2873
 8691TIP3   OH247563   4.396   3.666  16.001 -0.0978 -0.6464 -0.1059
 8691TIP3    H147564   4.325   3.728  15.987  0.1131 -0.3888 -0.0472
 8691TIP3    H247565   4.445   3.701  16.075 -1.4480 -2.2295  1.5968
 8692TIP3   OH247566   3.218   4.427  14.326  0.0278  0.7525  0.1473
 8692TIP3    H147567   3.197   4.494  14.391  2.2067  0.2766  1.4066
 8692TIP3    H247568   3.291   4.464  14.276  1.2653 -0.6575  0.8708
 8693TIP3   OH247569   3.767   3.829  12.642 -0.3993  0.3391 -0.1871
 8693TIP3    H147570   3.798   3.754  12.693  0.4532 -0.4730 -1.8415
 8693TIP3    H247571   3.847   3.865  12.603 -0.6109  3.0532  1.8123
 8694TIP3   OH247572   3.761   2.882  16.696 -0.0628 -0.4589  0.0271
 8694TIP3    H147573   3.717   2.967  16.705  0.3534 -0.4492  2.0869
 8694TIP3    H247574   3.694   2.818  16.721  1.0041 -0.4568  2.9390
 8695TIP3   OH247575   0.342   4.115  12.458  0.0290 -0.1630 -0.6418
 8695TIP3    H147576   0.276   4.049  12.435  0.8403 -1.4341  0.5923
 8695TIP3    H247577   0.337   4.180  12.388 -1.1001 -1.3156 -1.6440
 8696TIP3   OH247578   0.668   3.978   1.231  0.4545 -0.3321 -0.3615
 8696TIP3    H147579   0.591   4.003   1.180  0.8787 -0.1462 -0.9133
 8696TIP3    H247580   0.638   3.980   1.321  0.3528  1.7425 -0.4084
 8697TIP3   OH247581   4.367   2.196   4.728 -0.0525  0.7443  0.2530
 8697TIP3    H147582   4.444   2.223   4.778  0.5786  0.1169 -0.3632
 8697TIP3    H247583   4.398   2.123   4.675 -0.7854  1.2486 -0.8719
 8698TIP3   OH247584   5.537   2.042   5.327  0.2482  0.4862  0.1691
 8698TIP3    H147585   5.544   2.033   5.422 -0.4085  0.5458  0.2320
 8698TIP3    H247586   5.505   1.957   5.298 -1.1787  0.9975  0.1997
 8699TIP3   OH247587   6.256   4.832  14.416  0.3876 -0.2175 -0.0629
 8699TIP3    H147588   6.220   4.833  14.504  1.1787 -0.1891  0.2627
 8699TIP3    H247589   6.179   4.833  14.359 -0.1647 -1.9863  0.6106
 8700TIP3   OH247590   3.530   2.912   1.746  0.7967 -0.6096 -0.2150
 8700TIP3    H147591   3.457   2.974   1.746  0.2350 -1.2200 -1.9527
 8700TIP3    H247592   3.489   2.827   1.765  1.0370 -0.9574 -1.2043
 8701TIP3   OH247593   6.703   4.725  14.736 -0.1805  0.0983  0.0309
 8701TIP3    H147594   6.621   4.711  14.690 -0.1208 -1.0744  0.2495
 8701TIP3    H247595   6.771   4.715  14.669 -0.1075 -1.3509  0.2894
 8702TIP3   OH247596   0.106   4.014   5.733  0.2596 -0.3143  0.5797
 8702TIP3    H147597   0.053   3.986   5.808 -0.6017 -0.1062  0.0593
 8702TIP3    H247598   0.045   4.065   5.679  0.7515 -0.8510 -0.4917
 8703TIP3   OH247599   1.485   6.064   5.039  0.0665 -0.2197 -0.5769
 8703TIP3    H147600   1.526   6.136   4.991 -0.8649  0.0794 -0.9359
 8703TIP3    H247601   1.439   6.106   5.112 -0.4565 -0.4454 -0.7699
 8704TIP3   OH247602   4.528   5.087  12.974 -0.0620 -0.1142  1.1305
 8704TIP3    H147603   4.614   5.112  12.942 -0.2092 -1.2950 -0.2132
 8704TIP3    H247604   4.519   4.995  12.952 -2.8907  0.7092 -1.5763
 8705TIP3   OH247605   2.469   0.932  15.072  0.1762 -0.3471 -0.1012
 8705TIP3    H147606   2.376   0.924  15.049  0.2773 -0.1436 -0.5954
 8705TIP3    H247607   2.512   0.864  15.020  0.3297 -0.2926 -0.0457
 8706TIP3   OH247608   0.058   5.438   1.687 -0.2238  0.1111  0.1183
 8706TIP3    H147609   0.008   5.463   1.609 -1.2927  0.1441  0.7941
 8706TIP3    H247610   0.085   5.348   1.670  0.5162  0.4917 -0.7672
 8707TIP3   OH247611   2.438   3.500   0.912  0.3858  0.4883 -0.0306
 8707TIP3    H147612   2.347   3.512   0.941  0.5927 -0.2284  0.9329
 8707TIP3    H247613   2.486   3.481   0.992  1.1778 -0.3207 -0.6912
 8708TIP3   OH247614   1.230   2.324   6.214 -0.3252  0.0120  0.1899
 8708TIP3    H147615   1.265   2.277   6.290  1.2842  0.2591 -0.3803
 8708TIP3    H247616   1.261   2.414   6.225 -2.4428  0.7107  0.6876
 8709TIP3   OH247617   6.148   3.766  14.998 -0.6153 -0.5781  0.0232
 8709TIP3    H147618   6.138   3.845  14.945  0.3406 -0.8121 -0.5200
 8709TIP3    H247619   6.194   3.704  14.940 -0.3818 -1.1506  0.8107
 8710TIP3   OH247620   5.539   1.257  13.239 -0.2247  0.3458 -0.3032
 8710TIP3    H147621   5.483   1.187  13.272 -0.9841  0.5223 -1.1705
 8710TIP3    H247622   5.628   1.229  13.260 -0.4453 -1.3570 -1.5123
 8711TIP3   OH247623   4.838   1.601  15.089  0.4314 -0.2897 -0.0305
 8711TIP3    H147624   4.788   1.523  15.066 -0.9234  0.5895 -0.1115
 8711TIP3    H247625   4.873   1.634  15.006  0.4303 -0.4241 -0.0831
 8712TIP3   OH247626   1.659   0.883  14.688  0.1100  0.1377 -0.0028
 8712TIP3    H147627   1.745   0.921  14.701  0.3243 -0.5779  0.6834
 8712TIP3    H247628   1.604   0.956  14.661  0.7086  0.7686  0.4954
 8713TIP3   OH247629   0.219   0.883  16.424  0.5518  0.5288  0.4250
 8713TIP3    H147630   0.244   0.877  16.516 -0.5091  0.8328  0.7468
 8713TIP3    H247631   0.131   0.923  16.426  0.3773  0.2181 -0.6949
 8714TIP3   OH247632   0.264   3.699  14.540 -0.2488  0.0616  0.2160
 8714TIP3    H147633   0.176   3.695  14.503  0.3228 -0.0749 -1.1407
 8714TIP3    H247634   0.300   3.783  14.510  0.5815 -0.4993 -0.3826
 8715TIP3   OH247635   2.247   2.513   5.055  0.1988  0.4182  0.0200
 8715TIP3    H147636   2.297   2.511   5.137 -0.6944  2.0271  0.6185
 8715TIP3    H247637   2.256   2.603   5.023 -0.5497  0.1525 -0.9672
 8716TIP3   OH247638   2.354   5.192   2.134  0.2754 -0.5760 -0.2107
 8716TIP3    H147639   2.405   5.226   2.061 -0.1766  0.2006 -0.1761
 8716TIP3    H247640   2.416   5.144   2.188  0.9287  0.1930 -0.2719
 8717TIP3   OH247641   4.203   3.665  13.084  0.1740  0.1360 -0.6018
 8717TIP3    H147642   4.151   3.671  13.005 -0.3078 -0.7628 -0.3635
 8717TIP3    H247643   4.210   3.571  13.101  0.6980  0.3014  0.1398
 8718TIP3   OH247644   2.632   1.416  12.809  0.0443  0.4149  0.1174
 8718TIP3    H147645   2.651   1.371  12.727  0.0851  1.4128 -0.4356
 8718TIP3    H247646   2.606   1.347  12.869 -0.8497 -0.2480 -0.9945
 8719TIP3   OH247647   5.934   5.999   3.202  0.2330  0.0795  0.2309
 8719TIP3    H147648   5.972   5.934   3.144 -3.1560 -0.9207 -1.0046
 8719TIP3    H247649   5.866   6.042   3.150 -0.1721  1.9819  2.2125
 8720TIP3   OH247650   4.419   3.326  14.663 -0.7556 -0.4890  0.5895
 8720TIP3    H147651   4.406   3.380  14.585  0.7093  0.2116  0.8130
 8720TIP3    H247652   4.360   3.364  14.728  0.7430  1.3335  0.9563
 8721TIP3   OH247653   0.502   0.775   3.440 -0.1240  0.2455 -0.0646
 8721TIP3    H147654   0.518   0.870   3.443  0.0349  0.2717 -1.4895
 8721TIP3    H247655   0.483   0.752   3.530 -1.8108  1.9470  0.0634
 8722TIP3   OH247656   3.414   3.581   4.660  0.8054  0.2820  0.2575
 8722TIP3    H147657   3.376   3.495   4.675  2.0273 -0.3318 -0.0886
 8722TIP3    H247658   3.506   3.571   4.685  0.5745  1.9646  1.8933
 8723TIP3   OH247659   0.444   2.622  11.949 -0.1539  0.0437 -0.0766
 8723TIP3    H147660   0.365   2.597  11.996  0.5560 -0.1786  1.0169
 8723TIP3    H247661   0.515   2.576  11.994  1.0474  3.0718  1.2570
 8724TIP3   OH247662   3.858   3.825   2.392  0.2522 -0.0767 -0.0441
 8724TIP3    H147663   3.841   3.818   2.298 -1.7994 -0.4007  0.3297
 8724TIP3    H247664   3.774   3.850   2.430  1.4831  1.8466  1.5200
 8725TIP3   OH247665   2.170   6.556   4.740  0.1928  0.2996 -0.1605
 8725TIP3    H147666   2.179   6.492   4.670 -0.6716 -0.9028  0.8030
 8725TIP3    H247667   2.128   6.631   4.699 -1.4245 -0.8582 -0.6719
 8726TIP3   OH247668   4.335   2.979  16.140  0.2266 -0.3688  0.5298
 8726TIP3    H147669   4.272   2.942  16.202  0.7443  0.0998  1.3546
 8726TIP3    H247670   4.372   3.054  16.186  0.3189  0.2428 -0.5160
 8727TIP3   OH247671   6.670   3.038  13.979 -0.0663 -0.5005  0.0754
 8727TIP3    H147672   6.690   3.025  14.071 -2.1430 -0.6243  0.5335
 8727TIP3    H247673   6.676   3.133  13.967 -0.0553 -0.4584  0.4037
 8728TIP3   OH247674   3.897   1.128   5.843  0.2863 -0.4144  0.3346
 8728TIP3    H147675   3.911   1.151   5.934 -1.4243 -0.8054  0.7226
 8728TIP3    H247676   3.834   1.056   5.846  0.4419 -0.6365 -1.1376
 8729TIP3   OH247677   1.372   5.167   5.125 -0.7532 -0.2072 -0.0725
 8729TIP3    H147678   1.293   5.189   5.174  0.9863 -2.6003  4.0470
 8729TIP3    H247679   1.410   5.251   5.102 -1.9441  1.0095  2.2546
 8730TIP3   OH247680   3.898   3.306  12.519 -0.2907 -0.1832  0.0205
 8730TIP3    H147681   3.866   3.337  12.604  0.2129  2.2447 -0.6264
 8730TIP3    H247682   3.945   3.225  12.538 -0.7154  0.0121  1.9677
 8731TIP3   OH247683   4.484   6.466   4.336  0.1949  0.1665 -0.2294
 8731TIP3    H147684   4.501   6.549   4.291  1.2625  0.1583  0.1467
 8731TIP3    H247685   4.528   6.401   4.282 -1.5195 -0.3060 -1.0999
 8732TIP3   OH247686   5.688   1.989   3.213  0.2457 -0.1033  0.1795
 8732TIP3    H147687   5.698   2.084   3.222  0.1900 -0.1314  0.5494
 8732TIP3    H247688   5.597   1.976   3.186  0.8978  0.0936 -2.2119
 8733TIP3   OH247689   1.629   0.488   2.833 -0.1574  0.0921  0.2000
 8733TIP3    H147690   1.548   0.485   2.885  1.1220 -1.9401  2.1802
 8733TIP3    H247691   1.682   0.556   2.875 -0.2904  0.4914 -0.2723
 8734TIP3   OH247692   1.685   5.171  14.651  0.1461 -0.2608  0.4422
 8734TIP3    H147693   1.724   5.254  14.625 -1.9563  0.8667  0.8051
 8734TIP3    H247694   1.610   5.160  14.592  1.0910 -2.5174 -0.4197
 8735TIP3   OH247695   5.888   0.414  15.156 -0.2863 -0.0786 -0.3729
 8735TIP3    H147696   5.852   0.365  15.230  0.5404 -1.5732 -0.9377
 8735TIP3    H247697   5.974   0.376  15.141 -0.1878  0.6227 -1.7186
 8736TIP3   OH247698   0.763   0.810   5.689  0.1168 -0.0754 -0.4418
 8736TIP3    H147699   0.703   0.884   5.684  0.4081  0.1882 -0.0529
 8736TIP3    H247700   0.788   0.805   5.781 -0.5465 -1.1773 -0.3126
 8737TIP3   OH247701   4.718   0.476   1.246  0.5199 -0.0195 -0.7976
 8737TIP3    H147702   4.813   0.484   1.253  0.3697  1.2790 -0.0972
 8737TIP3    H247703   4.699   0.387   1.276  1.5135 -0.2780 -0.9201
 8738TIP3   OH247704   1.170   4.931   1.190 -0.6287 -0.6721 -0.0490
 8738TIP3    H147705   1.182   4.936   1.095 -0.7445 -0.3984 -0.0492
 8738TIP3    H247706   1.182   4.839   1.211 -4.6977 -1.4687 -0.8838
 8739TIP3   OH247707   2.489   5.740  11.218 -0.2803  0.0607 -0.2436
 8739TIP3    H147708   2.522   5.771  11.134 -0.2170  1.1373  0.1722
 8739TIP3    H247709   2.414   5.797  11.237 -2.2850 -2.1979 -1.0674
 8740TIP3   OH247710   3.298   5.882   5.753  0.1523 -0.2796 -0.3263
 8740TIP3    H147711   3.316   5.843   5.839 -1.6968  1.3036  0.8247
 8740TIP3    H247712   3.384   5.907   5.719  0.8397 -0.2605  1.3876
 8741TIP3   OH247713   2.900   3.149  14.413 -0.0643 -0.2505 -0.0934
 8741TIP3    H147714   2.975   3.197  14.377 -0.7991  0.3974 -0.7762
 8741TIP3    H247715   2.847   3.215  14.457 -0.0281 -0.7783  0.7563
 8742TIP3   OH247716   4.210   2.671   5.433 -0.3545  1.1570 -0.3724
 8742TIP3    H147717   4.296   2.632   5.420 -0.6787  0.5620 -0.7827
 8742TIP3    H247718   4.161   2.650   5.353 -1.3798  0.1112  0.5009
 8743TIP3   OH247719   1.529   2.923  14.530 -0.1233  0.2375 -0.4190
 8743TIP3    H147720   1.554   2.941  14.439  2.4842 -1.8780 -0.1769
 8743TIP3    H247721   1.492   2.835  14.527 -2.7055  1.2444  0.1707
 8744TIP3   OH247722   2.249   4.483  11.684 -0.0754 -0.3692 -0.3198
 8744TIP3    H147723   2.210   4.528  11.609 -0.0153  1.3801  0.6610
 8744TIP3    H247724   2.261   4.393  11.654 -3.2769 -0.5605 -1.2334
 8745TIP3   OH247725   3.057   4.486  10.467  0.0604  0.1467 -0.1629
 8745TIP3    H147726   2.979   4.466  10.416 -0.1787  1.2683 -0.2678
 8745TIP3    H247727   3.122   4.513  10.402  0.7326 -1.3700 -0.1262
 8746TIP3   OH247728   3.166   4.846   2.157  0.2804  0.2233  0.0786
 8746TIP3    H147729   3.127   4.933   2.155 -0.3959 -0.0680  0.5402
 8746TIP3    H247730   3.175   4.821   2.065 -0.1111  0.5162 -0.0404
 8747TIP3   OH247731   0.710   2.416   1.499 -0.0557  0.5782  0.2969
 8747TIP3    H147732   0.746   2.503   1.483  2.2100 -0.2230  0.9011
 8747TIP3    H247733   0.776   2.356   1.464 -1.4333 -0.9219  0.1958
 8748TIP3   OH247734   3.798   1.995   0.000 -0.2596  0.4829  0.8396
 8748TIP3    H147735   3.745   1.934  -0.051 -1.2615  1.8134  0.2546
 8748TIP3    H247736   3.851   1.940   0.057 -1.1799 -0.9245  0.3451
 8749TIP3   OH247737   2.764   0.572  15.700 -0.0893  0.1414 -0.2679
 8749TIP3    H147738   2.725   0.516  15.633 -1.8264 -0.3645  1.1472
 8749TIP3    H247739   2.808   0.512  15.760  0.9511  0.5521 -0.5928
 8750TIP3   OH247740   0.111   0.469  11.429 -0.3714  0.6362 -0.1500
 8750TIP3    H147741   0.082   0.378  11.429 -0.6512  0.7219  0.2001
 8750TIP3    H247742   0.129   0.490  11.338 -1.7807  0.7034 -0.4138
 8751TIP3   OH247743   4.081   3.305  13.393 -0.2676  0.0526  0.2038
 8751TIP3    H147744   4.132   3.321  13.473  0.1610 -0.2174 -0.0134
 8751TIP3    H247745   4.117   3.223  13.358  0.1235  0.6130 -0.7181
 8752TIP3   OH247746   0.218   4.808   6.622 -1.0915 -0.3524  0.2643
 8752TIP3    H147747   0.177   4.742   6.678 -2.4252 -0.5661 -0.9561
 8752TIP3    H247748   0.309   4.779   6.614 -1.0774 -0.7431  1.6731
 8753TIP3   OH247749   5.891   1.483   1.218  0.1062 -0.2045  0.1364
 8753TIP3    H147750   5.940   1.418   1.168  0.5185 -0.2153  0.5560
 8753TIP3    H247751   5.867   1.549   1.153  0.1010 -0.5333 -0.1983
 8754TIP3   OH247752   5.779   1.410   4.252  0.3156  0.3717  0.2104
 8754TIP3    H147753   5.869   1.429   4.225  0.4739  3.5116  2.6287
 8754TIP3    H247754   5.785   1.326   4.297  2.0481  0.5870  0.4239
 8755TIP3   OH247755   3.819   1.572   4.397 -0.0369 -0.0685  0.2702
 8755TIP3    H147756   3.828   1.598   4.305  2.5887  0.7889  0.7531
 8755TIP3    H247757   3.865   1.488   4.403 -2.6941 -1.5912  0.2113
 8756TIP3   OH247758   4.737   6.734   0.934 -0.1956  0.6014  0.4944
 8756TIP3    H147759   4.692   6.656   0.967  0.0737 -0.1495 -0.8810
 8756TIP3    H247760   4.720   6.733   0.840 -0.4566  2.3927  0.5054
 8757TIP3   OH247761   0.939   1.067  17.215  0.3050  0.4874  0.0029
 8757TIP3    H147762   0.922   1.019  17.296  0.0932  1.9920  0.8837
 8757TIP3    H247763   1.023   1.111  17.230  0.6596  0.1372 -0.9071
 8758TIP3   OH247764   0.722   5.297   4.972 -0.0499 -0.1589  0.4154
 8758TIP3    H147765   0.778   5.356   4.923  0.2101 -0.9180 -0.2029
 8758TIP3    H247766   0.758   5.210   4.957 -1.9392 -0.7733 -0.7759
 8759TIP3   OH247767   0.191   6.807  12.278  0.5470  0.4570  0.3915
 8759TIP3    H147768   0.194   6.769  12.366  0.2593 -0.4569  0.0073
 8759TIP3    H247769   0.198   6.901  12.293  1.0814  0.2751  1.3613
 8760TIP3   OH247770   6.641   2.731  13.617 -0.2150  0.0425  0.1133
 8760TIP3    H147771   6.568   2.701  13.671  0.0236  0.0085  0.4171
 8760TIP3    H247772   6.629   2.826  13.611 -0.8234 -0.0759 -0.6351
 8761TIP3   OH247773   3.947   2.069  15.727 -0.2412  0.0704 -0.1487
 8761TIP3    H147774   3.974   2.002  15.790 -0.6365 -2.3134 -2.4202
 8761TIP3    H247775   3.855   2.087  15.749 -0.6798 -1.4927 -0.6469
 8762TIP3   OH247776   3.330   4.519  16.359  0.3152 -0.5085  0.3211
 8762TIP3    H147777   3.256   4.578  16.372  1.1456  0.5337  0.4409
 8762TIP3    H247778   3.362   4.541  16.271  0.2016 -1.2670  0.0886
 8763TIP3   OH247779   6.073   3.467  15.013  0.5052  0.2904  0.0051
 8763TIP3    H147780   5.980   3.483  15.029  0.6082 -0.0901  1.0120
 8763TIP3    H247781   6.102   3.542  14.962 -0.7375 -0.3738 -1.7645
 8764TIP3   OH247782   3.876   5.398  15.490 -0.1363  0.3998  0.1492
 8764TIP3    H147783   3.825   5.475  15.465  0.7572  1.3003  1.0508
 8764TIP3    H247784   3.959   5.434  15.523  0.6775 -0.9929 -0.3622
 8765TIP3   OH247785   3.548   1.841   0.079 -0.2477  0.5414  0.4956
 8765TIP3    H147786   3.520   1.813   0.166 -0.4013 -2.5219 -0.5064
 8765TIP3    H247787   3.515   1.773   0.020 -0.7382  2.9145 -2.0634
 8766TIP3   OH247788   0.561   5.264  11.427 -0.1860 -1.0497 -0.3952
 8766TIP3    H147789   0.579   5.195  11.362 -1.9407 -0.6618 -1.3104
 8766TIP3    H247790   0.488   5.230  11.478 -1.3519  0.3127 -1.1337
 8767TIP3   OH247791   0.243   4.569  12.192  0.3630 -0.0075  0.0706
 8767TIP3    H147792   0.252   4.474  12.185  2.1312  0.2806 -2.6585
 8767TIP3    H247793   0.328   4.603  12.164 -0.9304  2.3986 -1.1440
 8768TIP3   OH247794   6.254   4.881   0.735  0.0019  0.2776 -0.0502
 8768TIP3    H147795   6.195   4.956   0.729  0.9952  1.1883  1.2361
 8768TIP3    H247796   6.324   4.900   0.671  1.1671  1.3117  1.5010
 8769TIP3   OH247797   5.478   4.797  11.949  0.3990 -0.0925  0.0524
 8769TIP3    H147798   5.477   4.872  11.889 -0.0502  0.5965  0.9125
 8769TIP3    H247799   5.483   4.836  12.036 -0.8859 -1.0323  0.5623
 8770TIP3   OH247800   5.318   2.905  16.598 -0.0052 -0.4148 -0.2653
 8770TIP3    H147801   5.338   2.965  16.525 -1.4807 -0.1900 -0.4847
 8770TIP3    H247802   5.322   2.960  16.676 -0.7677 -0.1567 -0.4082
 8771TIP3   OH247803   3.724   1.715  16.785 -0.5161 -0.0814  0.6389
 8771TIP3    H147804   3.634   1.714  16.816 -0.2029  0.5398  1.5911
 8771TIP3    H247805   3.773   1.667  16.853  0.3348  2.1635  1.6431
 8772TIP3   OH247806   3.230   2.355  13.091 -0.6054  0.6938 -0.0141
 8772TIP3    H147807   3.246   2.433  13.038  0.0898 -1.2764 -2.8269
 8772TIP3    H247808   3.141   2.367  13.124  0.0126  3.3403  0.8505
 8773TIP3   OH247809   5.114   5.930  11.569 -0.6038 -0.1354  0.4757
 8773TIP3    H147810   5.052   5.928  11.642  0.5931  3.3183  1.6717
 8773TIP3    H247811   5.069   5.981  11.501 -1.2009 -2.2679 -0.7784
 8774TIP3   OH247812   1.274   2.929  15.436  0.2472  0.1516 -0.0124
 8774TIP3    H147813   1.209   2.862  15.416  1.1945 -0.7598 -0.0901
 8774TIP3    H247814   1.263   2.994  15.366  1.7006 -1.6913 -2.0504
 8775TIP3   OH247815   1.647   3.080  15.304  0.6787 -0.2780 -0.4600
 8775TIP3    H147816   1.706   3.010  15.333 -0.0110 -1.5980 -2.1893
 8775TIP3    H247817   1.682   3.109  15.220 -1.1764 -1.1579 -1.5705
 8776TIP3   OH247818   5.312   2.867  11.108  0.0538  0.3463  0.7281
 8776TIP3    H147819   5.267   2.784  11.124  0.6883 -0.2383 -0.4425
 8776TIP3    H247820   5.263   2.908  11.037  0.6617  0.2723  0.2711
 8777TIP3   OH247821   0.229   4.723  10.484  0.5307 -0.4452 -0.1028
 8777TIP3    H147822   0.254   4.655  10.422  3.0752 -0.1258  0.5404
 8777TIP3    H247823   0.297   4.721  10.551 -1.4672  0.0966  2.0110
 8778TIP3   OH247824   0.707   6.774   5.512  0.0882 -0.1015  0.3879
 8778TIP3    H147825   0.624   6.744   5.474  1.1514 -0.6146 -1.6191
 8778TIP3    H247826   0.766   6.699   5.504  1.0137  0.5498  0.9372
 8779TIP3   OH247827   1.188   2.543   0.662  0.2913  0.3990 -0.4326
 8779TIP3    H147828   1.139   2.547   0.580  1.9111  2.7632 -1.3502
 8779TIP3    H247829   1.173   2.628   0.704  1.5028  0.1840  0.4790
 8780TIP3   OH247830   6.629   2.719   5.173 -0.2418  0.2618  0.4678
 8780TIP3    H147831   6.549   2.771   5.165  1.2511  2.4318 -1.1449
 8780TIP3    H247832   6.608   2.636   5.132 -1.6202  0.8944 -0.1311
 8781TIP3   OH247833   5.586   4.720  10.436 -0.2565  0.2127 -0.5197
 8781TIP3    H147834   5.673   4.735  10.473  0.6547 -3.2672 -1.1103
 8781TIP3    H247835   5.537   4.677  10.506 -0.1165 -1.7751 -1.6164
 8782TIP3   OH247836   1.987   3.815   6.421  0.1908  0.3491 -0.2404
 8782TIP3    H147837   1.971   3.737   6.475 -0.5172 -0.6340 -1.8217
 8782TIP3    H247838   1.921   3.878   6.449  0.9646  0.5171  1.2690
 8783TIP3   OH247839   2.664   4.952  10.781  0.3831 -0.1184 -0.2163
 8783TIP3    H147840   2.586   5.004  10.798 -0.3638 -1.4134  0.3378
 8783TIP3    H247841   2.640   4.896  10.708  0.2011 -1.7505  1.0779
 8784TIP3   OH247842   4.798   2.301   1.515 -0.1514 -0.1007  0.0342
 8784TIP3    H147843   4.816   2.350   1.595  0.3495  0.4006 -0.3760
 8784TIP3    H247844   4.863   2.333   1.453 -2.3515  1.6713 -1.4590
 8785TIP3   OH247845   3.742   2.992  15.191 -0.6307 -0.4728  0.0267
 8785TIP3    H147846   3.768   3.057  15.126 -0.7630  0.9321  1.3383
 8785TIP3    H247847   3.679   3.038  15.247 -0.6601 -1.6932  1.0195
 8786TIP3   OH247848   4.109   3.214   2.974  0.4993  0.4377 -0.1312
 8786TIP3    H147849   4.161   3.180   2.901  0.3370  1.3022 -0.6525
 8786TIP3    H247850   4.149   3.175   3.052  1.4526  0.4916 -0.5828
 8787TIP3   OH247851   1.733   5.447   1.237 -0.2648  0.1647  1.0669
 8787TIP3    H147852   1.750   5.527   1.187  2.1398 -1.0302 -0.1158
 8787TIP3    H247853   1.638   5.434   1.231 -0.3543  1.5789 -0.8138
 8788TIP3   OH247854   0.375   4.987   5.317  0.0295 -0.0648 -0.7822
 8788TIP3    H147855   0.384   5.035   5.399  1.0148  1.3264 -1.6736
 8788TIP3    H247856   0.455   4.935   5.309  0.1614  0.1827 -1.0942
 8789TIP3   OH247857   0.258   0.826  12.433  0.2844  0.1256 -0.5914
 8789TIP3    H147858   0.164   0.840  12.441  0.3814  0.3736  0.1585
 8789TIP3    H247859   0.271   0.805  12.340 -0.3294  1.4593 -0.9938
 8790TIP3   OH247860   6.725   0.283  16.935  0.3914  0.0159  0.1458
 8790TIP3    H147861   6.656   0.326  16.885 -0.5878  0.5466  1.9132
 8790TIP3    H247862   6.696   0.192  16.943  2.7537 -1.2689 -4.1120
 8791TIP3   OH247863   5.690   3.177  11.817  0.3093  0.2603  0.1055
 8791TIP3    H147864   5.650   3.214  11.895 -1.9405  0.1578 -0.9618
 8791TIP3    H247865   5.688   3.082  11.832  1.0770  0.3060  0.4897
 8792TIP3   OH247866   0.488   3.995   3.750 -0.1383  0.5571 -0.1059
 8792TIP3    H147867   0.504   4.084   3.717  0.2300  0.8402  0.8096
 8792TIP3    H247868   0.518   3.938   3.679  0.1857  1.1563 -0.4625
 8793TIP3   OH247869   2.989   5.848  11.748  0.0932  0.1336 -0.4998
 8793TIP3    H147870   3.051   5.809  11.810  0.7387 -1.3020 -2.0235
 8793TIP3    H247871   2.921   5.781  11.736 -0.1103  0.4648 -1.2307
 8794TIP3   OH247872   0.388   3.556   2.358 -0.2331  0.1093  0.2240
 8794TIP3    H147873   0.358   3.626   2.301  1.5081  0.5830 -0.1385
 8794TIP3    H247874   0.392   3.595   2.446 -1.4228 -0.1763  0.4035
 8795TIP3   OH247875   4.217   6.064   1.871 -0.2206  0.4342  0.3973
 8795TIP3    H147876   4.165   6.093   1.796  0.1292 -0.7450 -0.3194
 8795TIP3    H247877   4.264   6.142   1.899 -1.2501  1.1680  0.1365
 8796TIP3   OH247878   5.460   6.514   2.707 -0.5993  0.3180 -0.7539
 8796TIP3    H147879   5.488   6.529   2.797  0.6964  0.9258 -1.2476
 8796TIP3    H247880   5.522   6.564   2.653 -2.1843  1.0955 -1.9181
 8797TIP3   OH247881   3.411   1.102   4.633 -0.4441 -0.5235 -0.0657
 8797TIP3    H147882   3.489   1.149   4.666 -0.3404  0.1399 -1.2385
 8797TIP3    H247883   3.388   1.042   4.704  1.2553 -0.8621  0.2277
 8798TIP3   OH247884   5.381   5.963   4.757  0.3449 -0.4613  0.2809
 8798TIP3    H147885   5.406   5.934   4.845  0.4963 -0.3559  0.2722
 8798TIP3    H247886   5.285   5.959   4.757  0.3327 -0.1629  0.5546
 8799TIP3   OH247887   3.124   4.984   0.732 -0.6509  0.4917  0.0164
 8799TIP3    H147888   3.151   5.020   0.817 -1.0573  0.5851  0.1070
 8799TIP3    H247889   3.176   4.904   0.722 -1.8172 -0.4423  1.1354
 8800TIP3   OH247890   0.421   2.998   0.632  0.3401  0.1106 -0.3365
 8800TIP3    H147891   0.473   3.029   0.707  0.9940 -0.6198 -0.4765
 8800TIP3    H247892   0.474   2.928   0.595 -1.1055 -1.1675 -0.0242
 8801TIP3   OH247893   3.517   0.800  16.713  0.3894 -0.1896  0.4520
 8801TIP3    H147894   3.601   0.827  16.750 -0.3502  0.0889  1.9821
 8801TIP3    H247895   3.540   0.741  16.641  1.8788 -0.4915  1.1529
 8802TIP3   OH247896   1.977   2.353   3.115 -0.1718  0.3004 -0.2845
 8802TIP3    H147897   2.040   2.403   3.166  0.4740  0.4595 -1.2152
 8802TIP3    H247898   2.013   2.265   3.111  0.6626  0.6803 -1.8696
 8803TIP3   OH247899   0.644   2.437  13.293  0.0864 -0.6624  0.0980
 8803TIP3    H147900   0.692   2.355  13.304 -0.3877 -0.7130  1.9212
 8803TIP3    H247901   0.710   2.505  13.311  0.0869 -0.6783  0.1559
 8804TIP3   OH247902   3.907   4.119   2.461 -0.0291  0.4228  0.0029
 8804TIP3    H147903   3.953   4.038   2.480 -0.4880  0.4516  1.3258
 8804TIP3    H247904   3.916   4.131   2.367  0.9487 -0.6052 -0.0420
 8805TIP3   OH247905   3.692   0.503   4.690 -0.0119 -0.1684  0.2233
 8805TIP3    H147906   3.664   0.441   4.757  1.1082 -0.1787  0.7041
 8805TIP3    H247907   3.728   0.449   4.621 -1.2404 -0.1608 -0.4319
 8806TIP3   OH247908   3.953   1.808   3.247  0.4856  0.5176 -0.5493
 8806TIP3    H147909   4.022   1.767   3.298 -1.5684  0.1137  2.0148
 8806TIP3    H247910   3.934   1.890   3.293 -0.1662  1.0242 -1.6966
 8807TIP3   OH247911   5.599   3.893   2.013 -0.5896  0.9317  0.5333
 8807TIP3    H147912   5.604   3.936   2.099  1.3891 -1.0758  1.4522
 8807TIP3    H247913   5.507   3.866   2.006 -0.2800 -1.0558  3.1396
 8808TIP3   OH247914   5.587   1.563  15.602  0.4912 -0.1534 -0.1456
 8808TIP3    H147915   5.590   1.648  15.559 -2.2638  0.6639  1.1755
 8808TIP3    H247916   5.548   1.580  15.688  0.3790 -2.6536  0.3525
 8809TIP3   OH247917   6.089   5.615   1.631 -0.7156 -0.6378 -0.6987
 8809TIP3    H147918   6.046   5.533   1.606 -0.9393 -1.0427  0.9605
 8809TIP3    H247919   6.020   5.669   1.668 -0.5106  0.2189 -1.5234
 8810TIP3   OH247920   0.985   5.821   6.021  0.0513  0.3170 -0.0355
 8810TIP3    H147921   0.971   5.727   6.036  0.7247  0.2505  0.1634
 8810TIP3    H247922   1.047   5.848   6.089  0.4290  0.7540 -0.5484
 8811TIP3   OH247923   4.104   3.982   2.682 -0.0626  0.6841 -0.6191
 8811TIP3    H147924   4.199   3.969   2.684  0.1211  1.9439 -0.7180
 8811TIP3    H247925   4.092   4.072   2.711 -1.3785 -0.1613  1.5834
 8812TIP3   OH247926   0.527   3.924   2.183  0.4784  0.7162  0.0551
 8812TIP3    H147927   0.460   3.862   2.154  0.6376  0.3605  0.4388
 8812TIP3    H247928   0.547   3.976   2.106  0.5723  0.0772 -0.3570
 8813TIP3   OH247929   5.195   6.785   2.167  0.4582 -0.3129  0.3238
 8813TIP3    H147930   5.198   6.717   2.234 -0.7034  0.4083  1.1416
 8813TIP3    H247931   5.261   6.760   2.103  0.4133 -1.9138  0.8896
 8814TIP3   OH247932   5.192   0.399  14.597  0.3298 -0.3021  0.4755
 8814TIP3    H147933   5.256   0.430  14.661 -0.0465  1.9246 -0.1773
 8814TIP3    H247934   5.147   0.327  14.640  2.0224 -0.6999  1.6308
 8815TIP3   OH247935   4.800   3.926   5.570  0.0719  0.4284  0.3120
 8815TIP3    H147936   4.841   3.939   5.485 -1.3910 -1.1916 -0.6670
 8815TIP3    H247937   4.869   3.889   5.626  0.5580 -0.1341 -0.6592
 8816TIP3   OH247938   0.020   1.142   6.337 -0.4552 -0.6161 -0.3071
 8816TIP3    H147939   0.056   1.111   6.420 -1.7590  1.2104  0.9849
 8816TIP3    H247940   0.096   1.161   6.283  0.4829  0.8215  1.4777
 8817TIP3   OH247941   6.034   3.629  16.244  0.3194  0.1852 -0.6113
 8817TIP3    H147942   6.009   3.634  16.152 -1.9699  1.0934  0.0173
 8817TIP3    H247943   6.123   3.593  16.243  0.1089 -0.3682 -3.1246
 8818TIP3   OH247944   2.655   2.890  11.366  0.0634 -0.4229  0.2693
 8818TIP3    H147945   2.699   2.973  11.347  1.9701 -1.3854  0.4514
 8818TIP3    H247946   2.622   2.861  11.281  3.7468 -1.9433 -0.7157
 8819TIP3   OH247947   5.937   3.505  15.538 -0.3550  0.0168  0.6645
 8819TIP3    H147948   6.001   3.486  15.469 -1.3774 -0.9454 -0.0515
 8819TIP3    H247949   5.990   3.519  15.617  0.6933 -1.7502  0.3087
 8820TIP3   OH247950   5.388   6.464   1.900  0.1385 -0.2780  0.0315
 8820TIP3    H147951   5.318   6.522   1.929 -0.1217 -0.6970  0.2461
 8820TIP3    H247952   5.468   6.503   1.934 -0.2171 -1.1136  1.8779
 8821TIP3   OH247953   6.719   0.106  12.087  0.1431  0.2705 -0.1688
 8821TIP3    H147954   6.778   0.102  12.163  0.9424  1.9965 -0.6792
 8821TIP3    H247955   6.673   0.022  12.089 -0.4961  0.6074  2.7605
 8822TIP3   OH247956   5.898   2.998   5.315  0.0253  0.1841 -0.2084
 8822TIP3    H147957   5.899   3.093   5.300  2.6107  0.1802 -0.2200
 8822TIP3    H247958   5.929   2.988   5.405  0.1791 -0.6911 -0.3626
 8823TIP3   OH247959   1.220   6.179  10.832  0.4030  0.1326  0.0071
 8823TIP3    H147960   1.183   6.159  10.747  0.5073 -1.6393  0.3698
 8823TIP3    H247961   1.305   6.135  10.833 -0.7951 -2.2668  2.0715
 8824TIP3   OH247962   5.606   6.420   4.631  0.6129 -0.0342  0.0749
 8824TIP3    H147963   5.642   6.337   4.599  2.4917  1.5319 -2.0047
 8824TIP3    H247964   5.676   6.457   4.684  0.9251  1.5967 -1.4511
 8825TIP3   OH247965   6.631   2.404  16.900 -0.6139  0.2934  0.3387
 8825TIP3    H147966   6.711   2.433  16.857 -1.4185  0.2979 -1.1707
 8825TIP3    H247967   6.609   2.476  16.960  1.4433 -0.4576  2.0722
 8826TIP3   OH247968   2.193   6.782   5.924  0.3522  0.0684  0.1500
 8826TIP3    H147969   2.195   6.837   5.845  0.1321 -1.2349 -0.7897
 8826TIP3    H247970   2.284   6.780   5.953  0.1899  1.7767  0.8045
 8827TIP3   OH247971   3.864   6.562   3.339  0.0378  0.0608  0.4925
 8827TIP3    H147972   3.806   6.637   3.346  0.3330  0.4365 -0.9104
 8827TIP3    H247973   3.946   6.591   3.379  0.0220  0.3543  0.3150
 8828TIP3   OH247974   1.681   0.544   5.690 -0.5234 -0.4474 -0.4841
 8828TIP3    H147975   1.706   0.572   5.602 -0.4978 -0.8697 -0.6113
 8828TIP3    H247976   1.742   0.474   5.711  1.7845  2.0135  1.2804
 8829TIP3   OH247977   0.954   3.358   4.598  0.0795  0.2372  0.2172
 8829TIP3    H147978   0.864   3.390   4.589 -0.2859 -0.9953 -0.6592
 8829TIP3    H247979   0.955   3.313   4.682 -0.9006 -2.1119 -0.9739
 8830TIP3   OH247980   1.422   4.391   3.905 -0.1171 -0.2796 -0.2556
 8830TIP3    H147981   1.397   4.322   3.844  0.3998 -0.5155 -0.2040
 8830TIP3    H247982   1.459   4.460   3.849 -1.0751  0.1648 -0.3538
 8831TIP3   OH247983   3.537   3.950  11.738 -0.0720 -0.2251  0.7540
 8831TIP3    H147984   3.555   3.922  11.828  0.2935 -1.2100  0.3875
 8831TIP3    H247985   3.444   3.972  11.737 -0.2610 -0.9755  1.1895
 8832TIP3   OH247986   6.580   2.802   5.587  0.0962 -0.1538  0.4033
 8832TIP3    H147987   6.502   2.752   5.564 -1.0881  1.2169  1.3657
 8832TIP3    H247988   6.560   2.892   5.560  1.9237 -0.0256 -0.6702
 8833TIP3   OH247989   6.502   3.191   0.635  0.3245  0.1218  0.0339
 8833TIP3    H147990   6.434   3.219   0.697  1.3420 -0.3450  1.3644
 8833TIP3    H247991   6.530   3.106   0.667  0.0499 -0.6623 -1.7474
 8834TIP3   OH247992   4.781   5.723  10.399 -0.3514 -0.5592 -0.5761
 8834TIP3    H147993   4.752   5.787  10.464  3.6984 -0.5581  1.4147
 8834TIP3    H247994   4.739   5.641  10.426 -2.3433  0.3932 -0.7232
 8835TIP3   OH247995   0.733   0.629   3.849  0.3126  0.4067  0.1462
 8835TIP3    H147996   0.720   0.582   3.767 -0.2433 -1.4428  1.2383
 8835TIP3    H247997   0.644   0.650   3.878  0.3970 -0.4711  1.0913
 8836TIP3   OH247998   0.702   0.881   1.885  0.1575 -0.0369 -0.3284
 8836TIP3    H147999   0.712   0.955   1.945 -0.0263 -0.0262 -0.3082
 8836TIP3    H248000   0.786   0.836   1.887 -0.5206 -1.3152  1.6368
 8837TIP3   OH248001   2.100   0.930   4.848  0.4636  0.0633  0.4198
 8837TIP3    H148002   2.038   0.986   4.894  0.8509  1.3707 -0.5919
 8837TIP3    H248003   2.069   0.929   4.758  1.5465  0.2504  0.0270
 8838TIP3   OH248004   3.018   6.281  14.355  0.4065 -0.9087 -0.0506
 8838TIP3    H148005   2.957   6.345  14.317  0.6864 -1.6333 -1.7736
 8838TIP3    H248006   2.977   6.196  14.336  0.0489 -1.2789  2.1892
 8839TIP3   OH248007   5.135   4.758   4.626 -0.7207 -0.1589 -0.7070
 8839TIP3    H148008   5.046   4.750   4.662 -0.7236  0.1167 -0.6514
 8839TIP3    H248009   5.150   4.674   4.581 -0.0861 -1.1885  1.3496
 8840TIP3   OH248010   0.719   4.386  15.833 -0.3358  0.2132 -0.2283
 8840TIP3    H148011   0.787   4.407  15.897  0.0649 -0.3172 -0.4749
 8840TIP3    H248012   0.761   4.399  15.748 -0.4388 -0.4183 -0.3805
 8841TIP3   OH248013   5.605   0.257  15.069 -0.4422 -0.3007  0.3427
 8841TIP3    H148014   5.600   0.294  14.981 -0.4326 -1.1383 -0.0123
 8841TIP3    H248015   5.579   0.166  15.059 -0.8306 -0.3028  1.2771
 8842TIP3   OH248016   2.273   4.551   5.761 -0.0425 -0.1137  0.2060
 8842TIP3    H148017   2.314   4.628   5.800 -0.2441  0.1856 -0.1704
 8842TIP3    H248018   2.338   4.517   5.700  0.7514 -1.2888  1.6718
 8843TIP3   OH248019   3.289   2.851  12.036 -0.4389 -0.1825  0.0236
 8843TIP3    H148020   3.312   2.828  11.945 -0.2650 -2.2617  0.5673
 8843TIP3    H248021   3.201   2.886  12.030 -0.5272 -0.5328 -0.9396
 8844TIP3   OH248022   4.610   4.026   2.278  0.0970  0.3325  0.3267
 8844TIP3    H148023   4.584   4.028   2.186  2.1779  1.1329 -0.2980
 8844TIP3    H248024   4.541   4.075   2.324 -1.2671 -0.5970 -0.7053
 8845TIP3   OH248025   2.311   0.321  16.299  0.2524 -0.1408  0.4616
 8845TIP3    H148026   2.227   0.364  16.312  0.6136  0.4053  1.0244
 8845TIP3    H248027   2.349   0.316  16.387 -0.0671 -2.2005  0.5054
 8846TIP3   OH248028   3.861   5.081   3.800 -0.1888  0.2658  0.4080
 8846TIP3    H148029   3.920   5.028   3.747 -0.5047  0.9183 -0.6143
 8846TIP3    H248030   3.919   5.128   3.860 -0.0215 -2.3014  2.2977
 8847TIP3   OH248031   5.164   0.754  15.009  0.3726  0.0169  0.7154
 8847TIP3    H148032   5.071   0.769  14.996  0.2613  0.8276  2.3417
 8847TIP3    H248033   5.203   0.841  15.005  1.1821 -0.3862 -0.7339
 8848TIP3   OH248034   3.164   1.658   0.110 -0.6383 -0.0156 -0.4954
 8848TIP3    H148035   3.085   1.616   0.144 -0.5777 -0.9674 -1.5192
 8848TIP3    H248036   3.234   1.628   0.167 -0.8854  0.2150 -0.0638
 8849TIP3   OH248037   4.988   5.333  10.340 -0.3007  0.3002 -0.7193
 8849TIP3    H148038   4.957   5.398  10.403  0.8816 -0.1400  0.3268
 8849TIP3    H248039   4.920   5.265  10.341  0.6061 -0.6360  1.5325
 8850TIP3   OH248040   5.380   6.777   5.531  0.2717  0.3865  0.4854
 8850TIP3    H148041   5.291   6.807   5.513 -0.0231 -1.1104 -0.7177
 8850TIP3    H248042   5.367   6.693   5.576  1.0253 -0.8326 -1.4671
 8851TIP3   OH248043   2.260   1.446  14.278 -0.5026  0.6841  0.1099
 8851TIP3    H148044   2.229   1.441  14.188 -1.1211  0.6642  0.3212
 8851TIP3    H248045   2.240   1.536  14.305 -0.5497  0.6130  0.3106
 8852TIP3   OH248046   6.799   5.258  13.590  0.2054  0.2700 -0.0111
 8852TIP3    H148047   6.716   5.214  13.608  1.5540 -2.9855 -1.4475
 8852TIP3    H248048   6.859   5.188  13.565  2.6208  2.8745 -1.8736
 8853TIP3   OH248049   5.743   0.674  15.092 -0.5409  0.5574 -0.1952
 8853TIP3    H148050   5.804   0.603  15.112 -0.1283  0.4038 -1.9317
 8853TIP3    H248051   5.675   0.633  15.038  0.2797  1.6830 -2.1284
 8854TIP3   OH248052   3.536   5.080   2.919  0.3780 -0.1678 -0.5279
 8854TIP3    H148053   3.606   5.061   2.857  0.1508  1.4797 -1.3055
 8854TIP3    H248054   3.562   5.162   2.960 -1.0819  0.4617 -0.8212
 8855TIP3   OH248055   3.171   1.541   3.037  0.8319  0.3182 -0.4208
 8855TIP3    H148056   3.108   1.612   3.023  0.6832 -0.0478 -1.6664
 8855TIP3    H248057   3.244   1.582   3.083 -0.5552  0.6327  1.5820
 8856TIP3   OH248058   1.312   6.225   5.513  0.2084 -0.5802 -0.4141
 8856TIP3    H148059   1.229   6.248   5.470 -0.2645 -0.1904  0.6818
 8856TIP3    H248060   1.286   6.169   5.587  0.8740 -0.0609  0.2253
 8857TIP3   OH248061   0.412   1.732   2.459 -0.3905  0.0392 -0.0252
 8857TIP3    H148062   0.389   1.808   2.513  0.1665 -1.1367  1.9528
 8857TIP3    H248063   0.360   1.660   2.496  1.4532 -1.2154  0.2109
 8858TIP3   OH248064   4.274   0.043  15.484  0.1566  0.1816  0.3661
 8858TIP3    H148065   4.295   0.135  15.470  1.3686  0.0303  1.1305
 8858TIP3    H248066   4.342   0.011  15.543  0.8590 -1.6661 -1.3759
 8859TIP3   OH248067   3.582   2.402   1.968  0.0744 -0.3071  0.0784
 8859TIP3    H148068   3.505   2.379   1.915 -0.3080 -0.3931  0.6707
 8859TIP3    H248069   3.571   2.353   2.049  0.2085  0.5142  0.5957
 8860TIP3   OH248070   5.666   5.402   5.063 -0.1997  0.4287  0.1351
 8860TIP3    H148071   5.715   5.458   5.003 -1.0046  1.9890  0.8959
 8860TIP3    H248072   5.687   5.313   5.035  0.5746  1.1029 -1.5289
 8861TIP3   OH248073   0.248   5.596   3.121  0.7887 -0.2115 -0.2165
 8861TIP3    H148074   0.292   5.657   3.061  1.1048  1.6182  1.7981
 8861TIP3    H248075   0.307   5.521   3.126  2.2746  0.9477  0.1353
 8862TIP3   OH248076   1.492   6.509  13.926  0.1264 -0.0886  0.2185
 8862TIP3    H148077   1.423   6.510  13.993 -1.0738 -0.5824 -0.9883
 8862TIP3    H248078   1.542   6.589  13.942 -0.5858  0.1713  1.2457
 8863TIP3   OH248079   2.674   2.664   2.119 -0.1546  0.8353 -0.1431
 8863TIP3    H148080   2.666   2.626   2.206 -0.2513  0.6593 -0.2270
 8863TIP3    H248081   2.612   2.737   2.118 -2.3340 -0.9651 -1.0235
 8864TIP3   OH248082   4.849   2.684  16.135 -0.4998 -0.0971 -0.5876
 8864TIP3    H148083   4.944   2.683  16.127 -0.3161  0.3802  1.3323
 8864TIP3    H248084   4.820   2.756  16.079  0.1691 -0.9287 -2.0296
 8865TIP3   OH248085   5.060   4.646  12.692  0.2503 -0.0785 -0.1574
 8865TIP3    H148086   5.121   4.600  12.748  0.5550  0.8454  0.2753
 8865TIP3    H248087   5.102   4.648  12.606  3.1579  4.8930  1.2203
 8866TIP3   OH248088   3.449   1.023   3.458  0.2892  0.3966  0.1491
 8866TIP3    H148089   3.538   1.018   3.493  0.2601  1.5868  0.3938
 8866TIP3    H248090   3.396   0.975   3.521  0.9588 -1.5596 -0.7276
 8867TIP3   OH248091   4.017   1.758  15.238  0.0539 -0.5620 -0.4439
 8867TIP3    H148092   3.927   1.727  15.237 -0.7462  1.6946 -1.6890
 8867TIP3    H248093   4.049   1.738  15.326 -1.8139 -0.8880  0.1746
 8868TIP3   OH248094   3.552   5.915   2.694  0.0200  0.7080  0.0794
 8868TIP3    H148095   3.504   5.997   2.687 -0.7704  0.1590 -1.2135
 8868TIP3    H248096   3.503   5.864   2.760 -1.9573 -0.3339 -2.1159
 8869TIP3   OH248097   5.702   6.341   0.817 -1.4489 -0.0354  0.2306
 8869TIP3    H148098   5.726   6.424   0.775 -0.1464 -1.4148 -1.8376
 8869TIP3    H248099   5.740   6.347   0.905  1.3318  0.3408 -0.9378
 8870TIP3   OH248100   0.604   1.000  16.927 -0.0479  0.1113  0.0735
 8870TIP3    H148101   0.567   1.025  17.012 -0.3883 -0.0995 -0.0107
 8870TIP3    H248102   0.586   0.906  16.920  0.4957  0.0069  0.0251
 8871TIP3   OH248103   4.002   1.844  11.105  0.0094  0.1942  0.1395
 8871TIP3    H148104   4.043   1.902  11.041 -0.5962  0.5115  0.0258
 8871TIP3    H248105   4.068   1.779  11.125 -0.2235 -0.6509 -1.7729
 8872TIP3   OH248106   1.960   0.170   5.741 -0.0017  0.2510 -0.3761
 8872TIP3    H148107   2.052   0.172   5.716 -0.0440  0.4986 -0.5201
 8872TIP3    H248108   1.916   0.219   5.671 -0.1636  0.6661  0.0109
 8873TIP3   OH248109   4.438   4.977   2.854  0.4693 -0.3710 -0.3444
 8873TIP3    H148110   4.343   4.992   2.856  0.1630 -1.8708 -1.6209
 8873TIP3    H248111   4.474   5.054   2.810 -0.1638  0.1804  0.0926
 8874TIP3   OH248112   0.092   6.533  11.393 -0.1412  0.3848  0.2403
 8874TIP3    H148113   0.068   6.616  11.351  0.6802  0.2815 -0.4253
 8874TIP3    H248114   0.165   6.500  11.342  1.8206  0.9614  2.6012
 8875TIP3   OH248115   5.743   3.734  14.095  0.2902  0.1752  0.2009
 8875TIP3    H148116   5.734   3.773  14.008 -0.7525  1.2690  0.7853
 8875TIP3    H248117   5.669   3.674  14.103 -0.9079  1.7329  1.1670
 8876TIP3   OH248118   5.416   0.820  16.923 -0.1125  0.3174 -0.2819
 8876TIP3    H148119   5.404   0.784  16.835 -1.9789  1.1054 -0.3617
 8876TIP3    H248120   5.511   0.818  16.937  0.3451  1.5363 -2.8950
 8877TIP3   OH248121   1.320   6.681   1.292  0.2680  0.5280 -0.3312
 8877TIP3    H148122   1.330   6.645   1.380 -2.2199 -0.9340 -0.6147
 8877TIP3    H248123   1.321   6.605   1.234 -1.7923  1.1378 -1.2170
 8878TIP3   OH248124   5.145   5.484  15.501  0.5141  0.1349  0.1208
 8878TIP3    H148125   5.118   5.520  15.586  0.1767  0.9451 -0.3280
 8878TIP3    H248126   5.223   5.434  15.521 -0.5879 -1.1907  1.2277
 8879TIP3   OH248127   1.769   5.459  10.949 -0.1089 -0.6131  0.1522
 8879TIP3    H148128   1.864   5.461  10.942 -0.0181 -2.2117  0.6369
 8879TIP3    H248129   1.738   5.480  10.861  0.6466  1.4678  0.3506
 8880TIP3   OH248130   2.307   0.879  11.465  0.4927  0.1352 -0.6178
 8880TIP3    H148131   2.396   0.848  11.449  1.5121  3.2333 -1.2637
 8880TIP3    H248132   2.273   0.900  11.378 -0.7375 -0.7121 -0.3392
 8881TIP3   OH248133   4.108   6.619   3.467  0.2572 -0.3936 -0.1220
 8881TIP3    H148134   4.115   6.681   3.395 -0.2305  0.0225  0.1811
 8881TIP3    H248135   4.197   6.587   3.481  0.4549 -0.0020 -0.4910
 8882TIP3   OH248136   4.677   2.526   2.216 -0.5056 -0.1403 -0.0586
 8882TIP3    H148137   4.582   2.523   2.225 -0.4047 -1.7662  0.6657
 8882TIP3    H248138   4.694   2.488   2.130 -0.4648 -0.8822  0.2683
 8883TIP3   OH248139   2.202   3.916  13.905  0.3674  0.1863 -0.0830
 8883TIP3    H148140   2.220   3.832  13.863 -0.9017 -0.8935  1.4941
 8883TIP3    H248141   2.107   3.918  13.917  0.3919  1.8243 -0.0536
 8884TIP3   OH248142   5.912   0.125  11.935 -0.3746  0.1797 -0.4504
 8884TIP3    H148143   5.891   0.044  11.889 -0.2144 -1.7782  2.7735
 8884TIP3    H248144   5.834   0.146  11.986  0.5543  0.4778  0.8960
 8885TIP3   OH248145   4.115   0.832  16.839  0.3340 -0.1742 -0.0031
 8885TIP3    H148146   4.093   0.898  16.905  0.1600  0.3908 -0.6049
 8885TIP3    H248147   4.185   0.873  16.787  0.6789 -0.7296  0.0187
 8886TIP3   OH248148   2.908   5.696   2.722 -0.0191 -0.1848  0.7495
 8886TIP3    H148149   2.914   5.778   2.674 -0.9120 -0.8842 -0.6287
 8886TIP3    H248150   2.959   5.634   2.669 -2.2858 -1.3341 -0.1973
 8887TIP3   OH248151   5.387   6.482   4.458  0.4338 -0.2610  0.8278
 8887TIP3    H148152   5.301   6.506   4.490  0.4680  0.4202  0.4214
 8887TIP3    H248153   5.412   6.405   4.509 -0.2577 -0.2397  1.1922
 8888TIP3   OH248154   1.467   6.038  13.152  0.1966 -0.4706  0.1262
 8888TIP3    H148155   1.484   6.027  13.246 -1.2028  1.2811  0.6279
 8888TIP3    H248156   1.553   6.047  13.113  0.7707 -0.3167  1.3872
 8889TIP3   OH248157   6.329   5.958   5.794 -0.6492  0.0387 -0.2183
 8889TIP3    H148158   6.289   5.896   5.734  0.4731  0.7254 -1.7146
 8889TIP3    H248159   6.414   5.919   5.817 -1.0841 -0.2396  0.9698
 8890TIP3   OH248160   4.925   5.249   0.226 -0.6349 -0.0094  0.6096
 8890TIP3    H148161   5.008   5.265   0.181 -0.2869 -2.0465  0.4413
 8890TIP3    H248162   4.889   5.336   0.243  1.4259  0.8998  0.4855
 8891TIP3   OH248163   0.368   0.436  11.158 -0.5162 -0.3373  0.6059
 8891TIP3    H148164   0.454   0.464  11.127 -0.2519 -0.6236  1.0767
 8891TIP3    H248165   0.316   0.426  11.078  0.5230 -2.2727  0.1500
 8892TIP3   OH248166   6.214   5.227  11.725  0.7742 -0.0534  0.2039
 8892TIP3    H148167   6.151   5.296  11.707  0.5614 -0.5995 -1.1967
 8892TIP3    H248168   6.161   5.149  11.740  0.9532  0.2660  2.8471
 8893TIP3   OH248169   5.924   3.362   0.950  0.0716 -0.0401  0.8752
 8893TIP3    H148170   5.911   3.334   1.041 -0.9959 -0.4134  0.6274
 8893TIP3    H248171   5.922   3.281   0.900  0.4920  0.1783  0.5088
 8894TIP3   OH248172   1.216   0.927   2.425 -0.0138 -0.1320 -0.3914
 8894TIP3    H148173   1.249   0.985   2.493  1.6618 -1.6890  0.1839
 8894TIP3    H248174   1.205   0.983   2.348 -1.6356  1.5772  1.0516
 8895TIP3   OH248175   5.084   2.320  16.554 -0.2012  0.1768 -0.1091
 8895TIP3    H148176   5.151   2.358  16.611  0.1393  0.8456 -0.9423
 8895TIP3    H248177   5.045   2.250  16.606  1.3431 -0.4105  0.2888
 8896TIP3   OH248178   0.765   4.284  13.340  0.4970 -0.8860 -0.2761
 8896TIP3    H148179   0.855   4.300  13.310 -0.0593 -0.2325 -1.6464
 8896TIP3    H248180   0.710   4.318  13.270 -0.8715  1.2786  1.7580
 8897TIP3   OH248181   0.371   0.102   4.270 -0.0895  0.2143 -0.1775
 8897TIP3    H148182   0.435   0.158   4.315 -0.8934  1.9061 -1.0815
 8897TIP3    H248183   0.331   0.050   4.340  0.5783  0.8667  0.7062
 8898TIP3   OH248184   3.125   5.107  16.124 -0.5230  0.1992  0.2851
 8898TIP3    H148185   3.040   5.063  16.118 -0.1233 -0.5271  0.0083
 8898TIP3    H248186   3.156   5.113  16.034  0.0340 -0.1402  0.4537
 8899TIP3   OH248187   5.942   3.792   5.927 -0.1835  0.0163  1.0548
 8899TIP3    H148188   5.924   3.820   6.017 -0.0412  0.8982  0.8130
 8899TIP3    H248189   5.917   3.867   5.873 -1.3845 -0.9436  0.2590
 8900TIP3   OH248190   5.354   3.919   2.487  0.2869  0.5444  0.0294
 8900TIP3    H148191   5.316   3.839   2.524 -2.0058  0.2942 -2.7085
 8900TIP3    H248192   5.448   3.907   2.497 -0.0708 -1.8225  1.0115
 8901TIP3   OH248193   5.461   2.134   2.347  0.4107  0.8484  0.0857
 8901TIP3    H148194   5.504   2.065   2.297 -1.1829 -2.5930  3.2525
 8901TIP3    H248195   5.498   2.126   2.435 -1.9364  2.1574  1.2352
 8902TIP3   OH248196   4.730   4.331  13.888 -0.0633 -0.0010 -0.5162
 8902TIP3    H148197   4.788   4.347  13.813 -1.3547 -0.4185 -1.6257
 8902TIP3    H248198   4.693   4.244  13.873  0.1356 -0.3566  0.9388
 8903TIP3   OH248199   3.319   2.777  15.435 -0.1477 -0.3225  0.0115
 8903TIP3    H148200   3.276   2.693  15.453  0.4834 -0.9577 -1.4012
 8903TIP3    H248201   3.412   2.759  15.448 -0.0474  0.2722  0.1182
 8904TIP3   OH248202   4.184   0.077  16.679  0.1549  0.0027  0.3068
 8904TIP3    H148203   4.105   0.092  16.626  0.6012  0.7801 -0.1466
 8904TIP3    H248204   4.204  -0.016  16.665 -1.4601 -0.5516  1.5230
 8905TIP3   OH248205   3.640   0.934   6.128  0.3296 -0.3017 -0.3057
 8905TIP3    H148206   3.567   0.876   6.147 -0.1257 -0.9516 -3.7279
 8905TIP3    H248207   3.674   0.959   6.214 -1.5294 -2.9841  1.2714
 8906TIP3   OH248208   5.462   0.766  14.652  0.2924  0.4507 -0.5632
 8906TIP3    H148209   5.446   0.834  14.587 -2.2110  1.3709  0.9569
 8906TIP3    H248210   5.445   0.808  14.736  3.8610 -0.6015  0.8022
 8907TIP3   OH248211   6.557   2.696  16.807 -0.2566 -1.0343  0.2486
 8907TIP3    H148212   6.548   2.619  16.750 -3.7615 -1.2045  0.9271
 8907TIP3    H248213   6.473   2.702  16.852  0.4476  2.4301  1.2128
 8908TIP3   OH248214   1.833   4.161  11.241 -0.2219  0.3047 -0.2305
 8908TIP3    H148215   1.771   4.093  11.215  0.5277 -1.8162  3.2893
 8908TIP3    H248216   1.917   4.131  11.207 -0.1058  0.0954  0.2380
 8909TIP3   OH248217   5.200   0.784  13.897 -0.5423  0.5906 -0.1834
 8909TIP3    H148218   5.294   0.797  13.909 -0.2822  0.3404 -1.7716
 8909TIP3    H248219   5.159   0.860  13.938  0.0798 -1.2866  4.2808
 8910TIP3   OH248220   2.695   2.354  15.199 -0.2664  0.1308 -0.0640
 8910TIP3    H148221   2.784   2.370  15.166 -1.6482  0.9377 -3.5244
 8910TIP3    H248222   2.697   2.262  15.227  1.0725 -0.5506 -2.2332
 8911TIP3   OH248223   0.475   2.073   1.901 -0.1134  1.1142  0.4977
 8911TIP3    H148224   0.526   1.999   1.933 -0.4685  0.2511 -0.8792
 8911TIP3    H248225   0.539   2.127   1.854 -0.3380  0.3411 -0.7138
 8912TIP3   OH248226   2.129   0.875  12.103 -0.1919 -0.6847  0.3677
 8912TIP3    H148227   2.043   0.914  12.083 -0.2583 -1.2521 -0.4595
 8912TIP3    H248228   2.168   0.858  12.018  0.1911 -1.6692  0.7375
 8913TIP3   OH248229   1.195   1.386  12.101 -0.8046  0.2781  0.2721
 8913TIP3    H148230   1.203   1.355  12.011 -0.0392  0.1109  0.4000
 8913TIP3    H248231   1.111   1.350  12.131 -1.1223  0.4422 -0.4134
 8914TIP3   OH248232   6.655   1.508  16.978  0.1804 -0.6703  0.3546
 8914TIP3    H148233   6.667   1.592  17.021  0.4159 -0.6860  0.3202
 8914TIP3    H248234   6.669   1.444  17.048 -0.1500 -0.6780  0.4164
 8915TIP3   OH248235   4.289   4.687  15.571 -0.2118  0.0452 -0.3592
 8915TIP3    H148236   4.257   4.704  15.482 -0.9304  0.1576 -0.0794
 8915TIP3    H248237   4.377   4.652  15.558 -0.8605 -1.3477 -1.1929
 8916TIP3   OH248238   1.483   2.226   1.091  0.3962 -0.1615  0.0418
 8916TIP3    H148239   1.442   2.263   1.012  0.2031 -0.6283 -0.0808
 8916TIP3    H248240   1.555   2.173   1.057 -0.2184 -1.0576  0.1225
 8917TIP3   OH248241   3.368   4.184   4.595  0.3201  0.4772  0.3590
 8917TIP3    H148242   3.420   4.206   4.672 -1.4583  2.2403  1.0875
 8917TIP3    H248243   3.363   4.266   4.545 -1.4074  0.2299  0.1012
 8918TIP3   OH248244   1.285   2.588  13.534  0.1166 -0.5987 -0.3581
 8918TIP3    H148245   1.210   2.528  13.524 -1.1628  0.5650  1.9855
 8918TIP3    H248246   1.253   2.672  13.502 -0.2392  0.3614  2.3942
 8919TIP3   OH248247   4.115   4.345  13.421  0.1805 -0.2326  0.2337
 8919TIP3    H148248   4.155   4.301  13.346 -0.9044  0.2142 -0.6168
 8919TIP3    H248249   4.126   4.439  13.403  1.3523 -0.1139  1.4271
 8920TIP3   OH248250   3.071   0.852   2.080 -0.2323 -0.3221  0.2690
 8920TIP3    H148251   3.024   0.836   1.999 -0.5391  0.0837  0.3611
 8920TIP3    H248252   3.032   0.792   2.143  0.1033 -0.7383  0.0841
 8921TIP3   OH248253   0.013   0.738   6.349  0.0195 -0.0015 -0.4021
 8921TIP3    H148254  -0.060   0.712   6.294 -0.3296  2.0162 -0.9431
 8921TIP3    H248255  -0.024   0.746   6.437  0.3735 -2.3186 -0.0127
 8922TIP3   OH248256   1.001   2.062   2.483  0.3782 -0.4737 -0.2250
 8922TIP3    H148257   1.040   2.081   2.397  0.1335 -1.1168 -0.4877
 8922TIP3    H248258   1.033   2.131   2.540 -1.0982  1.1670 -1.3161
 8923TIP3   OH248259   1.918   2.331  13.341  0.4008  0.2670  0.2277
 8923TIP3    H148260   1.872   2.284  13.411 -1.2999  1.1987 -0.2614
 8923TIP3    H248261   1.866   2.316  13.263  2.5675 -1.1927 -1.0150
 8924TIP3   OH248262   6.378   5.425   0.507  0.3754  0.1990  0.3799
 8924TIP3    H148263   6.470   5.407   0.528 -0.0011 -1.3495  0.7699
 8924TIP3    H248264   6.342   5.339   0.484 -1.2976  0.5846  1.5225
 8925TIP3   OH248265   4.386   3.270   3.680  0.1225 -0.0450  0.7788
 8925TIP3    H148266   4.423   3.207   3.619  1.1384  2.1826 -0.9668
 8925TIP3    H248267   4.301   3.293   3.643  0.4702  0.8351  0.5010
 8926TIP3   OH248268   6.402   5.222   1.594  0.4064 -0.2425 -0.0147
 8926TIP3    H148269   6.311   5.252   1.587  1.1286  1.8350 -0.8809
 8926TIP3    H248270   6.431   5.257   1.679  0.8108  0.3385 -0.3840
 8927TIP3   OH248271   0.222   3.426  13.820 -0.2015  0.4261 -0.4781
 8927TIP3    H148272   0.209   3.336  13.850 -0.1050  1.2723  2.2544
 8927TIP3    H248273   0.225   3.478  13.900  0.0134  2.8484 -1.9954
 8928TIP3   OH248274   6.588   1.623  12.712  0.6478 -0.6677 -0.1215
 8928TIP3    H148275   6.498   1.640  12.686 -0.2046  0.1429  3.1663
 8928TIP3    H248276   6.639   1.632  12.631 -1.9414  0.8913 -1.6105
 8929TIP3   OH248277   0.284   0.364  15.665 -0.3668 -0.7324  0.0831
 8929TIP3    H148278   0.341   0.425  15.712  1.2282 -1.3256 -1.0204
 8929TIP3    H248279   0.195   0.396  15.681  0.3749  1.1142  0.5689
 8930TIP3   OH248280   2.787   0.745   1.267 -0.0334  0.3545  0.2086
 8930TIP3    H148281   2.822   0.768   1.181  0.5231  0.5597  0.4897
 8930TIP3    H248282   2.713   0.804   1.279 -1.3673 -1.0510 -1.0060
 8931TIP3   OH248283   3.913   2.085   1.317  0.2936  0.4079  0.2503
 8931TIP3    H148284   3.893   2.006   1.368  2.5478  0.5813  1.4162
 8931TIP3    H248285   3.928   2.153   1.382 -0.2184  1.4692 -0.7288
 8932TIP3   OH248286   2.552   1.840  12.542  0.0760 -0.2542 -0.2263
 8932TIP3    H148287   2.596   1.888  12.612 -1.5322 -1.2265  1.5034
 8932TIP3    H248288   2.600   1.758  12.535 -0.4440 -0.6353  0.5501
 8933TIP3   OH248289   4.815   2.865   0.102  0.3124 -0.1880  0.0632
 8933TIP3    H148290   4.782   2.777   0.088  1.1750 -0.5891  0.4953
 8933TIP3    H248291   4.888   2.873   0.041 -0.0712  0.3998 -0.3209
 8934TIP3   OH248292   6.666   0.952   5.648  0.0840 -0.0471  0.4085
 8934TIP3    H148293   6.578   0.988   5.636  0.6207  0.5950 -1.9681
 8934TIP3    H248294   6.723   1.028   5.649  0.6105 -0.4412  2.3038
 8935TIP3   OH248295   3.557   0.641  10.740 -0.0448 -0.3345  0.7227
 8935TIP3    H148296   3.547   0.546  10.746  1.7103 -0.5532  0.4490
 8935TIP3    H248297   3.524   0.662  10.653 -0.2805 -0.7298  0.7133
 8936TIP3   OH248298   3.360   6.792  16.191  0.2553  0.1053 -0.2066
 8936TIP3    H148299   3.277   6.802  16.238  0.4124 -0.1208  0.1160
 8936TIP3    H248300   3.349   6.845  16.112 -0.1790  0.1157 -0.1390
 8937TIP3   OH248301   4.682   6.611   3.432 -0.3392  0.0688  0.3905
 8937TIP3    H148302   4.634   6.597   3.351 -0.4666 -0.9298  0.6264
 8937TIP3    H248303   4.773   6.623   3.405 -0.7859  2.5664 -0.1033
 8938TIP3   OH248304   3.312   1.320  15.138  0.3036 -0.7731 -0.3847
 8938TIP3    H148305   3.341   1.361  15.057  0.2697 -1.2568 -0.6403
 8938TIP3    H248306   3.227   1.358  15.156  1.8335  2.0248  1.3315
 8939TIP3   OH248307   0.840   1.591   3.246 -0.1546 -0.0771 -0.3419
 8939TIP3    H148308   0.770   1.654   3.229 -0.3058 -0.4256 -1.0857
 8939TIP3    H248309   0.805   1.534   3.314 -1.6739 -1.8274 -2.4746
 8940TIP3   OH248310   0.687   4.314  14.600 -0.5595  0.4242  0.5481
 8940TIP3    H148311   0.709   4.398  14.561 -0.8708  0.5407  0.6235
 8940TIP3    H248312   0.675   4.333  14.693  2.1491 -0.1979  1.0844
 8941TIP3   OH248313   4.894   1.527   3.662 -0.0535  0.4137 -0.6642
 8941TIP3    H148314   4.828   1.583   3.622 -0.2568 -0.0440 -0.9808
 8941TIP3    H248315   4.922   1.574   3.740 -1.9036 -0.1122  0.3365
 8942TIP3   OH248316   4.320   2.727  11.516 -0.1334  0.4500  0.7973
 8942TIP3    H148317   4.362   2.644  11.495  1.7611  1.9899 -1.7199
 8942TIP3    H248318   4.230   2.716  11.485  0.5037 -0.1415 -0.9070
 8943TIP3   OH248319   2.543   5.377   0.556  0.3922 -0.2245  0.2140
 8943TIP3    H148320   2.477   5.446   0.546 -0.8180 -1.2604  0.8595
 8943TIP3    H248321   2.568   5.354   0.467  0.8103  1.0336 -0.0105
 8944TIP3   OH248322   1.689   3.812   6.366  0.4001 -0.3737 -1.3045
 8944TIP3    H148323   1.642   3.816   6.449  0.6284 -0.2029 -1.1864
 8944TIP3    H248324   1.733   3.727   6.368 -2.8097 -2.1944 -2.9572
 8945TIP3   OH248325   6.437   5.089   2.769 -0.3733  0.2205  1.0474
 8945TIP3    H148326   6.514   5.102   2.715  0.2913  0.9657  2.1399
 8945TIP3    H248327   6.397   5.009   2.737  0.2101  0.4642 -0.2909
 8946TIP3   OH248328   6.057   4.947   5.982  0.4496  0.2941 -0.0997
 8946TIP3    H148329   6.112   4.954   6.060 -0.1665  0.3499  0.3337
 8946TIP3    H248330   5.974   4.911   6.013  0.1523  0.4346 -0.7064
 8947TIP3   OH248331   1.413   1.575   5.891 -0.2283  0.0429 -0.1994
 8947TIP3    H148332   1.394   1.531   5.974 -0.3091 -0.7110 -0.6082
 8947TIP3    H248333   1.328   1.587   5.850 -0.2512  1.0484  0.1381
 8948TIP3   OH248334   4.053   0.565   2.316  0.1230  0.7432 -0.5212
 8948TIP3    H148335   3.959   0.567   2.298 -0.3024 -0.8568  1.3363
 8948TIP3    H248336   4.081   0.656   2.312 -1.4389  1.1868 -1.4300
 8949TIP3   OH248337   3.547   1.782   0.906  0.2776 -0.3339 -0.3346
 8949TIP3    H148338   3.497   1.723   0.849  0.4021 -1.5445  0.7742
 8949TIP3    H248339   3.639   1.760   0.889  0.3594  0.2300 -0.6358
 8950TIP3   OH248340   1.679   2.372   3.898  0.0483  0.6101  0.3836
 8950TIP3    H148341   1.616   2.440   3.924  0.3450  0.6758  0.9465
 8950TIP3    H248342   1.668   2.364   3.804 -3.7451 -2.3210  0.9447
 8951TIP3   OH248343   5.513   0.027  12.456 -0.0467 -0.0670  0.1857
 8951TIP3    H148344   5.453   0.044  12.384 -0.2510  0.9863  0.6017
 8951TIP3    H248345   5.467   0.058  12.534  1.6238  2.1981  0.3338
 8952TIP3   OH248346   3.058   2.175  15.928 -0.1297 -0.5002 -0.2893
 8952TIP3    H148347   3.092   2.143  15.844  0.8972  0.3458 -0.2074
 8952TIP3    H248348   2.987   2.235  15.905  0.8340  0.5298 -0.5968
 8953TIP3   OH248349   2.265   6.447  12.761 -0.5091 -0.4276  0.0254
 8953TIP3    H148350   2.210   6.514  12.721 -1.1296 -0.7098  0.3965
 8953TIP3    H248351   2.203   6.382  12.794  0.1593 -2.6333 -2.8617
 8954TIP3   OH248352   1.084   5.231   3.367 -0.2170  0.3134  0.3191
 8954TIP3    H148353   1.095   5.191   3.454  2.6307 -0.3140 -0.3042
 8954TIP3    H248354   1.139   5.309   3.369 -1.1248  0.9896 -0.5144
 8955TIP3   OH248355   5.885   5.193  15.964 -0.0638 -0.0835 -0.0638
 8955TIP3    H148356   5.969   5.230  15.992 -0.2677  0.0366  0.4010
 8955TIP3    H248357   5.893   5.183  15.870  0.4007  0.1156 -0.0455
 8956TIP3   OH248358   6.133   1.936  13.225 -0.3123 -0.4353  0.4158
 8956TIP3    H148359   6.105   2.028  13.234  0.4882 -0.2472  1.0157
 8956TIP3    H248360   6.057   1.892  13.187 -0.4371  0.6195 -0.5782
 8957TIP3   OH248361   3.155   5.058  12.510  0.0853  0.1217  0.3760
 8957TIP3    H148362   3.061   5.041  12.503  0.4613 -1.4483 -1.5429
 8957TIP3    H248363   3.193   4.971  12.525  1.2224  0.7612  1.2497
 8958TIP3   OH248364   4.042   3.893   5.257 -0.1875  0.8046  0.3512
 8958TIP3    H148365   3.976   3.905   5.324 -1.4780  1.1422 -0.9509
 8958TIP3    H248366   4.036   3.800   5.234 -0.0830  0.7951  0.3611
 8959TIP3   OH248367   5.757   0.155  12.556 -0.1750 -0.4149 -0.0393
 8959TIP3    H148368   5.702   0.101  12.499  1.7183 -1.5017 -0.8754
 8959TIP3    H248369   5.805   0.211  12.496 -1.1866  1.3445  0.7596
 8960TIP3   OH248370   4.264   1.433  16.926  0.0840 -0.1196 -0.2586
 8960TIP3    H148371   4.324   1.462  16.857  1.8734  1.7743  1.9899
 8960TIP3    H248372   4.321   1.398  16.994 -1.6556 -2.1295  0.2096
 8961TIP3   OH248373   0.100   3.140   2.339 -0.1770 -0.0216  0.4408
 8961TIP3    H148374   0.158   3.065   2.352 -0.5652 -0.3803  0.0942
 8961TIP3    H248375   0.139   3.188   2.266 -0.5297 -0.4692 -0.0409
 8962TIP3   OH248376   0.196   1.927   1.840  0.3578  0.0477  0.5257
 8962TIP3    H148377   0.268   1.869   1.865  1.1768  0.8531  0.0699
 8962TIP3    H248378   0.173   1.973   1.921  0.3492 -0.2209  0.6752
 8963TIP3   OH248379   6.625   2.293  14.773  0.1989 -0.0223  0.2599
 8963TIP3    H148380   6.598   2.376  14.812 -0.4440  0.9745 -2.1944
 8963TIP3    H248381   6.548   2.237  14.780 -0.3667  0.6034 -0.7327
 8964TIP3   OH248382   4.421   2.646   5.050  0.3077 -0.2765 -0.6782
 8964TIP3    H148383   4.397   2.566   5.096  1.1471 -0.1772 -0.0552
 8964TIP3    H248384   4.443   2.617   4.961  1.2618 -0.8315 -0.2683
 8965TIP3   OH248385   2.446   3.704  13.063 -0.1741  0.8740 -0.4152
 8965TIP3    H148386   2.507   3.642  13.103 -1.3940 -1.2653 -1.7497
 8965TIP3    H248387   2.363   3.687  13.107 -0.7810  0.7339 -1.5848
 8966TIP3   OH248388   2.313   0.829   4.977 -0.3337 -0.3145  0.0423
 8966TIP3    H148389   2.276   0.817   5.065 -1.2574 -1.8909 -0.5360
 8966TIP3    H248390   2.240   0.860   4.924 -0.3653 -1.5497 -0.6629
 8967TIP3   OH248391   6.118   6.190   4.309  0.4072  0.3388 -0.2489
 8967TIP3    H148392   6.120   6.262   4.372  2.0643 -0.3387  0.5052
 8967TIP3    H248393   6.035   6.146   4.325  0.6226  0.4363  1.1585
 8968TIP3   OH248394   0.921   5.632   4.790  0.5602 -0.0076  0.1472
 8968TIP3    H148395   0.940   5.709   4.736 -0.0065  0.0108 -0.0307
 8968TIP3    H248396   0.989   5.633   4.857  1.3266 -0.0793 -0.6183
 8969TIP3   OH248397   5.524   1.440   3.101  0.0092 -0.2698 -0.3123
 8969TIP3    H148398   5.430   1.451   3.089 -0.3952 -2.1101  0.8729
 8969TIP3    H248399   5.550   1.377   3.034  0.4226  0.2909 -0.6870
 8970TIP3   OH248400   3.695   4.163  16.120 -0.4941 -0.3743 -0.2097
 8970TIP3    H148401   3.654   4.249  16.110  2.0574  1.0754  1.3104
 8970TIP3    H248402   3.766   4.163  16.056  0.0100 -1.0409  0.3442
 8971TIP3   OH248403   1.068   2.835   2.885  0.1677  0.3270  0.0379
 8971TIP3    H148404   0.974   2.832   2.866  0.4155 -1.8454 -0.9658
 8971TIP3    H248405   1.074   2.812   2.978 -0.5017  3.9451  1.0798
 8972TIP3   OH248406   3.742   0.702   2.439 -0.3943 -0.0319 -0.4814
 8972TIP3    H148407   3.683   0.630   2.461 -0.9412  0.8572  1.1038
 8972TIP3    H248408   3.688   0.765   2.392  0.0695 -0.6107 -1.8156
 8973TIP3   OH248409   4.072   6.156  12.091 -0.1191  0.0561 -0.5336
 8973TIP3    H148410   4.040   6.135  12.179  0.4471  1.1487 -0.0552
 8973TIP3    H248411   4.115   6.076  12.061 -1.9660 -0.9401 -0.5814
 8974TIP3   OH248412   0.739   6.673  12.756  0.3882 -0.0781  0.0909
 8974TIP3    H148413   0.668   6.615  12.781  0.8440 -0.5522  0.3000
 8974TIP3    H248414   0.784   6.627  12.685  1.2253 -0.3459  0.7826
 8975TIP3   OH248415   5.739   1.654   5.632 -0.5295 -0.5364 -0.1162
 8975TIP3    H148416   5.813   1.662   5.693 -0.2736 -2.1869 -0.1883
 8975TIP3    H248417   5.779   1.625   5.550 -1.4110 -2.8461  0.2514
 8976TIP3   OH248418   3.582   2.196  11.957  0.0364 -0.2526 -0.3998
 8976TIP3    H148419   3.500   2.191  11.908 -0.0409  0.8795 -0.4034
 8976TIP3    H248420   3.647   2.155  11.900 -0.0244  1.1645 -1.5046
 8977TIP3   OH248421   6.203   5.123  14.499 -0.5448  0.1326 -0.4506
 8977TIP3    H148422   6.219   5.183  14.573 -0.4509 -0.9536  0.4210
 8977TIP3    H248423   6.284   5.074  14.490 -1.0810 -0.7945 -0.2962
 8978TIP3   OH248424   3.020   3.920  13.817 -0.0087 -0.2290  0.2303
 8978TIP3    H148425   3.056   3.959  13.896 -0.9818  0.2487  0.4417
 8978TIP3    H248426   3.039   3.983  13.747 -0.6617  0.1426  0.3868
 8979TIP3   OH248427   4.023   3.980   3.329 -0.1739 -0.4421 -0.1174
 8979TIP3    H148428   3.960   4.006   3.397  2.6979  0.6217  2.2618
 8979TIP3    H248429   4.023   3.885   3.332 -0.9337 -0.4258  0.5791
 8980TIP3   OH248430   5.972   4.892   2.238 -0.2231 -0.2524  0.0511
 8980TIP3    H148431   5.923   4.877   2.319  1.5232 -1.7959  0.8487
 8980TIP3    H248432   5.915   4.856   2.169 -0.8605 -0.6934  0.8006
 8981TIP3   OH248433   4.300   4.591   4.096  0.0261 -0.0807 -0.2587
 8981TIP3    H148434   4.361   4.540   4.044  0.7410  0.5174 -0.0098
 8981TIP3    H248435   4.353   4.627   4.167 -0.4737  0.9929 -0.4245
 8982TIP3   OH248436   1.397   4.616  13.697  0.1458 -0.3859  0.2956
 8982TIP3    H148437   1.333   4.624  13.767 -1.8234  1.0901 -1.6114
 8982TIP3    H248438   1.470   4.673  13.724 -0.5349  0.0785  1.1765
 8983TIP3   OH248439   1.888   5.693   2.128  0.8129 -0.3007  0.4958
 8983TIP3    H148440   1.919   5.744   2.203  1.2613 -0.3546  0.3445
 8983TIP3    H248441   1.894   5.753   2.054 -0.5460  0.0636  0.6724
 8984TIP3   OH248442   1.825   1.122  11.185  0.2848 -0.1506  0.0716
 8984TIP3    H148443   1.830   1.089  11.096  1.2568 -1.2145  0.5163
 8984TIP3    H248444   1.890   1.193  11.189 -0.2162  0.3322 -0.2371
 8985TIP3   OH248445   2.523   6.051  12.562 -1.2241  0.1313  0.3016
 8985TIP3    H148446   2.493   6.137  12.591 -0.8134  0.7066 -0.9244
 8985TIP3    H248447   2.562   6.011  12.639  0.8078  2.0345  0.3028
 8986TIP3   OH248448   6.579   4.950  11.322 -0.1124 -0.1653 -0.2151
 8986TIP3    H148449   6.537   5.007  11.258 -0.7341 -1.8833 -1.3565
 8986TIP3    H248450   6.655   4.914  11.277  0.1087 -0.4921  0.4022
 8987TIP3   OH248451   1.046   2.899   6.254  0.1876 -0.6091 -0.1612
 8987TIP3    H148452   1.059   2.950   6.334 -0.8298 -0.8251  0.1606
 8987TIP3    H248453   1.121   2.840   6.250  0.4462 -0.3217  0.4184
 8988TIP3   OH248454   0.993   1.952   6.798 -0.7220  0.3103  0.1023
 8988TIP3    H148455   0.988   2.026   6.860 -1.4213 -1.1553  1.8555
 8988TIP3    H248456   0.972   1.876   6.852 -2.2698 -0.9065 -2.1652
 8989TIP3   OH248457   6.322   3.307  12.375  0.5326 -0.0667 -0.0881
 8989TIP3    H148458   6.394   3.276  12.319  0.7765  2.1819 -1.0562
 8989TIP3    H248459   6.352   3.287  12.464  0.9376 -2.0383 -0.6456
 8990TIP3   OH248460   1.758   5.234  11.834  0.6909  0.0464  0.3142
 8990TIP3    H148461   1.806   5.289  11.772  0.9807 -1.9955 -1.3248
 8990TIP3    H248462   1.825   5.206  11.897  1.1403 -0.7255 -0.4957
 8991TIP3   OH248463   2.434   6.226   2.309  0.0633  0.3702 -0.7125
 8991TIP3    H148464   2.477   6.262   2.387 -1.6663  0.2778  0.3087
 8991TIP3    H248465   2.343   6.253   2.317 -0.5802 -1.4123 -1.6332
 8992TIP3   OH248466   3.913   6.065  15.867 -0.1513 -0.0110 -0.4741
 8992TIP3    H148467   3.875   6.092  15.783  0.0891  0.1146 -0.5431
 8992TIP3    H248468   3.990   6.122  15.878 -0.4279  0.2687  0.0332
 8993TIP3   OH248469   2.871   4.884  14.909 -0.0510 -0.4201 -0.1914
 8993TIP3    H148470   2.941   4.825  14.880 -0.8432 -1.0806 -0.7940
 8993TIP3    H248471   2.854   4.940  14.833 -1.6836 -1.7205 -0.8089
 8994TIP3   OH248472   3.332   4.676  15.082 -0.6236 -0.2340  0.2756
 8994TIP3    H148473   3.297   4.746  15.136 -0.4782  0.5592 -0.6348
 8994TIP3    H248474   3.377   4.618  15.143 -0.5004  0.6227  1.0013
 8995TIP3   OH248475   4.007   4.588  15.605 -0.1464  0.7267  0.8127
 8995TIP3    H148476   3.962   4.655  15.553 -1.2099  0.3291  1.2125
 8995TIP3    H248477   4.100   4.610  15.597 -0.4735  2.1287  0.7797
 8996TIP3   OH248478   5.930   2.666   6.994  0.7765 -0.2341  0.5247
 8996TIP3    H148479   5.842   2.697   7.015  0.5325  0.1404 -0.9625
 8996TIP3    H248480   5.920   2.571   6.987  0.6266 -0.2525  0.9871
 8997TIP3   OH248481   0.296   3.972  11.258  0.1021 -0.2817 -0.1475
 8997TIP3    H148482   0.243   4.033  11.207  0.2342  1.4368  1.7143
 8997TIP3    H248483   0.371   3.953  11.203 -0.3221  0.6420 -1.0512
 8998TIP3   OH248484   1.974   6.807   4.647  0.1726  0.4016 -0.2936
 8998TIP3    H148485   1.943   6.897   4.634  0.2969  0.6134  0.7834
 8998TIP3    H248486   2.006   6.779   4.561  0.9506  1.6956 -0.4327
 8999TIP3   OH248487   2.859   5.586   0.789 -0.0593  0.0590 -0.3883
 8999TIP3    H148488   2.835   5.505   0.744 -0.1385 -0.2024  0.1174
 8999TIP3    H248489   2.949   5.604   0.760  0.2122 -0.5879  0.0198
 9000TIP3   OH248490   3.276   1.649  14.809 -0.1169  0.4666 -0.5357
 9000TIP3    H148491   3.325   1.711  14.865 -2.1426  0.6237  1.1100
 9000TIP3    H248492   3.201   1.699  14.779 -0.3741 -0.4144 -1.3585
 9001TIP3   OH248493   6.271   0.579   0.370  0.0816 -0.0589  0.7324
 9001TIP3    H148494   6.231   0.541   0.292 -0.6308 -1.0365  1.5629
 9001TIP3    H248495   6.343   0.520   0.391 -0.8948 -0.8428  1.9026
 9002TIP3   OH248496   6.202   0.120   6.429  0.7637  0.8616 -0.3873
 9002TIP3    H148497   6.144   0.044   6.432  1.6737  0.1780  1.2226
 9002TIP3    H248498   6.161   0.180   6.368  0.1192 -1.0135 -1.8503
 9003TIP3   OH248499   0.519   2.950   6.289 -0.0288 -0.6314  0.2418
 9003TIP3    H148500   0.539   2.887   6.358  0.3361 -1.5111 -0.6482
 9003TIP3    H248501   0.586   3.018   6.298  0.1247 -0.8335  0.6353
 9004TIP3   OH248502   2.395   3.901   5.773 -0.6138 -0.4614 -0.1296
 9004TIP3    H148503   2.416   3.993   5.786  1.9878 -0.4587 -3.6256
 9004TIP3    H248504   2.354   3.898   5.687 -4.3914 -2.1247  1.5948
 9005TIP3   OH248505   2.920   2.099  16.436 -0.2195 -0.2552  0.6987
 9005TIP3    H148506   2.921   2.013  16.479  2.5818 -0.3163  0.5710
 9005TIP3    H248507   2.890   2.080  16.347  2.9257 -1.5860 -0.1597
 9006TIP3   OH248508   4.195   5.137   3.108 -0.2283  0.0620  0.0410
 9006TIP3    H148509   4.228   5.224   3.130 -0.2647 -0.1290  0.8833
 9006TIP3    H248510   4.100   5.144   3.120 -0.5198  0.6252 -2.4247
 9007TIP3   OH248511   3.161   6.520   0.206 -0.1786  0.2901 -0.2353
 9007TIP3    H148512   3.148   6.482   0.120 -3.1807  1.3582 -0.3156
 9007TIP3    H248513   3.080   6.500   0.254 -0.6308  3.8420  0.6769
 9008TIP3   OH248514   5.383   1.848  14.962  0.7091 -0.4881  0.0831
 9008TIP3    H148515   5.430   1.822  14.883 -2.8610 -0.0098 -2.3229
 9008TIP3    H248516   5.382   1.769  15.016  0.6084 -1.7685 -1.7113
 9009TIP3   OH248517   4.061   1.569   2.891  0.3096  0.4012 -0.1418
 9009TIP3    H148518   4.090   1.613   2.811  0.2910 -0.5600 -0.6925
 9009TIP3    H248519   4.142   1.537   2.931  0.2722  0.3960 -0.0710
 9010TIP3   OH248520   5.033   4.661   5.327 -0.1198 -0.4784 -0.0587
 9010TIP3    H148521   4.984   4.653   5.246  0.4025  1.0069 -0.5264
 9010TIP3    H248522   4.967   4.674   5.395 -0.7444 -4.1030  0.1448
 9011TIP3   OH248523   1.285   1.551   1.384  0.3956 -0.3962  0.7201
 9011TIP3    H148524   1.344   1.543   1.459  0.2953 -2.3765  0.6288
 9011TIP3    H248525   1.211   1.601   1.417  1.4301  0.8362  1.2490
 9012TIP3   OH248526   1.639   0.945  14.074 -0.3474  0.7496 -0.1800
 9012TIP3    H148527   1.719   0.958  14.124  0.1579 -0.0171 -0.7813
 9012TIP3    H248528   1.645   1.008  14.002 -0.0032  0.2992 -0.5522
 9013TIP3   OH248529   3.998   1.899   0.296  0.5406 -0.0267 -0.9207
 9013TIP3    H148530   3.964   1.983   0.265 -0.0987 -0.4583 -1.4001
 9013TIP3    H248531   4.070   1.923   0.354 -0.2124  0.8778 -0.3511
 9014TIP3   OH248532   3.073   6.245  13.753  0.5586  0.4784 -0.7665
 9014TIP3    H148533   3.128   6.322  13.737  1.5932  0.8001  3.6933
 9014TIP3    H248534   2.984   6.280  13.759  0.9698  1.2975  0.7818
 9015TIP3   OH248535   4.566   1.029   4.507  0.1844  0.1863  0.0515
 9015TIP3    H148536   4.590   1.114   4.472  2.2280  0.1233  1.2123
 9015TIP3    H248537   4.609   1.025   4.593 -1.7626 -1.0841  1.0121
 9016TIP3   OH248538   3.680   6.634  11.041 -0.6366 -0.5779 -0.0726
 9016TIP3    H148539   3.697   6.713  10.989 -1.4848  0.1391  0.7274
 9016TIP3    H248540   3.634   6.575  10.981  0.1864 -0.5638 -0.7389
 9017TIP3   OH248541   3.039   1.527   1.069 -0.2221 -0.0884  0.7561
 9017TIP3    H148542   3.104   1.543   1.137 -0.4735 -2.7331  1.6902
 9017TIP3    H248543   3.001   1.612   1.050  1.0246  0.9241  2.7407
 9018TIP3   OH248544   3.666   5.073  11.283  0.0200 -0.0001 -0.5074
 9018TIP3    H148545   3.682   4.987  11.320  1.5666  0.3926 -0.2393
 9018TIP3    H248546   3.696   5.066  11.192 -3.2721 -0.8084 -1.5964
 9019TIP3   OH248547   5.306   5.764   1.773 -0.0681  0.0499 -0.2818
 9019TIP3    H148548   5.302   5.669   1.775 -0.1600  0.0507 -0.3893
 9019TIP3    H248549   5.374   5.787   1.836  1.5060 -0.1882 -1.8691
 9020TIP3   OH248550   4.354   3.842  12.926  0.1211  0.2831 -0.1249
 9020TIP3    H148551   4.304   3.795  12.993 -0.1891  0.0221 -0.5348
 9020TIP3    H248552   4.430   3.877  12.972  0.1074 -0.2241  0.2818
 9021TIP3   OH248553   3.950   0.503   4.406  0.0857  0.4988  0.0878
 9021TIP3    H148554   3.989   0.485   4.321 -2.2296 -1.0689 -0.6864
 9021TIP3    H248555   3.866   0.545   4.387 -0.9117 -0.7473  1.5297
 9022TIP3   OH248556   5.860   3.885   6.160 -0.4774 -0.2633  0.2804
 9022TIP3    H148557   5.781   3.937   6.146  0.1283  0.2924 -1.1839
 9022TIP3    H248558   5.828   3.800   6.188 -1.6309 -0.2211 -0.8383
 9023TIP3   OH248559   2.607   5.100   4.770  0.4817  0.8633  0.2251
 9023TIP3    H148560   2.574   5.107   4.680  0.1332 -0.7863  0.2070
 9023TIP3    H248561   2.645   5.012   4.774 -0.9171  0.3310  2.1606
 9024TIP3   OH248562   3.617   2.807   0.629 -0.0077  0.5713 -0.1515
 9024TIP3    H148563   3.690   2.746   0.635  0.3866  0.8136 -2.1453
 9024TIP3    H248564   3.547   2.766   0.680  0.7586 -0.7791 -0.1574
 9025TIP3   OH248565   6.373   1.124  11.057 -0.0084 -0.6152  0.2404
 9025TIP3    H148566   6.395   1.039  11.019 -0.1865 -0.9268  0.8274
 9025TIP3    H248567   6.413   1.188  10.998 -1.0395 -1.0615 -0.9697
 9026TIP3   OH248568   1.651   5.356  13.804  0.4892  0.1463 -0.1956
 9026TIP3    H148569   1.637   5.373  13.711 -0.3637 -1.7547 -0.4365
 9026TIP3    H248570   1.746   5.362  13.815  0.4884  1.6273 -0.9179
 9027TIP3   OH248571   0.885   1.423   6.472 -0.2324  0.7452 -1.0209
 9027TIP3    H148572   0.896   1.394   6.563 -1.0559  2.3043 -0.3945
 9027TIP3    H248573   0.971   1.456   6.448 -0.0022  0.3044 -0.8149
 9028TIP3   OH248574   3.317   6.359   3.268  0.3577 -0.1383  0.0278
 9028TIP3    H148575   3.346   6.268   3.279  1.2924  0.0801 -0.6276
 9028TIP3    H248576   3.386   6.411   3.309 -0.5704  0.2487  1.1298
 9029TIP3   OH248577   2.061   6.093  11.904  0.3026 -0.1152 -0.7471
 9029TIP3    H148578   2.030   6.101  11.994  0.3579 -0.8102 -0.6655
 9029TIP3    H248579   2.149   6.130  11.907  0.2876 -0.0922 -0.5242
 9030TIP3   OH248580   0.261   6.753  14.644  0.1747 -0.4712 -0.2351
 9030TIP3    H148581   0.297   6.841  14.635  0.4736 -0.5980 -0.2654
 9030TIP3    H248582   0.185   6.752  14.585  0.5492 -0.4417 -0.7222
 9031TIP3   OH248583   3.674   0.813  16.217 -0.0834 -0.5336  0.2029
 9031TIP3    H148584   3.728   0.738  16.238 -0.8986 -1.5073 -1.0869
 9031TIP3    H248585   3.737   0.882  16.195  0.6580 -1.4066 -0.4849
 9032TIP3   OH248586   4.728   4.836  10.744  0.1890 -0.2923  0.2030
 9032TIP3    H148587   4.803   4.838  10.803  2.6699  1.4972 -2.9099
 9032TIP3    H248588   4.754   4.778  10.673 -0.4297  2.1298 -2.0671
 9033TIP3   OH248589   3.749   4.594   2.352 -0.0315 -0.2026 -0.4652
 9033TIP3    H148590   3.701   4.613   2.272 -1.9701  0.1025  0.7352
 9033TIP3    H248591   3.704   4.644   2.420  0.7768 -1.4547  1.0334
 9034TIP3   OH248592   0.252   6.223  15.687  0.3004 -0.2190 -0.4037
 9034TIP3    H148593   0.308   6.182  15.753 -0.1580 -0.7258 -0.3196
 9034TIP3    H248594   0.191   6.277  15.738  2.9265  3.1583 -0.6896
 9035TIP3   OH248595   5.727   3.041   1.970  0.0846 -0.2487  0.0411
 9035TIP3    H148596   5.641   3.011   2.000 -0.0026  1.5739  1.7200
 9035TIP3    H248597   5.716   3.055   1.876 -1.9528  1.5429  0.5138
 9036TIP3   OH248598   5.505   0.694   2.325 -0.2558  0.7550 -0.2537
 9036TIP3    H148599   5.420   0.689   2.283  0.9897 -1.1260 -2.6454
 9036TIP3    H248600   5.508   0.617   2.383  0.5143 -0.2524 -1.5964
 9037TIP3   OH248601   1.678   1.503  13.229 -0.0483  0.2266  0.0641
 9037TIP3    H148602   1.681   1.585  13.277  1.2905 -0.2050  0.7390
 9037TIP3    H248603   1.682   1.435  13.296  3.0399 -0.3764 -0.6757
 9038TIP3   OH248604   1.649   2.359   3.611  0.1260 -0.5267 -0.0399
 9038TIP3    H148605   1.672   2.267   3.595 -1.2387 -1.3712  2.6187
 9038TIP3    H248606   1.559   2.367   3.579 -0.1790 -0.4343  0.8311
 9039TIP3   OH248607   5.850   4.732   0.094  0.2344 -0.3759 -0.6036
 9039TIP3    H148608   5.855   4.790   0.170 -0.0580 -1.5194  0.3113
 9039TIP3    H248609   5.832   4.790   0.020 -1.7730  0.5125  0.5574
 9040TIP3   OH248610   4.829   6.042   4.881  0.1179 -0.4520  0.5474
 9040TIP3    H148611   4.829   6.026   4.976  1.3177  0.2007  0.6543
 9040TIP3    H248612   4.836   6.137   4.872  1.5204 -0.6105 -0.2074
 9041TIP3   OH248613   2.499   5.640   2.384 -0.5258  0.6539  0.2249
 9041TIP3    H148614   2.507   5.604   2.472 -4.3849  2.6790  1.5114
 9041TIP3    H248615   2.460   5.570   2.332 -0.3861  0.2242  0.7042
 9042TIP3   OH248616   0.750   4.875   6.573 -0.0222  0.5370  0.2653
 9042TIP3    H148617   0.745   4.907   6.663 -0.8252 -1.3743  0.9363
 9042TIP3    H248618   0.769   4.953   6.521  1.0411  1.5879  2.1445
 9043TIP3   OH248619   3.745   3.499  14.214 -0.3598  0.0531  0.5336
 9043TIP3    H148620   3.802   3.422  14.211  0.0127  0.3808 -2.3534
 9043TIP3    H248621   3.661   3.465  14.244  0.2658 -1.1730  0.9568
 9044TIP3   OH248622   1.882   3.831   5.628 -0.2856  0.0231 -0.2953
 9044TIP3    H148623   1.954   3.769   5.616  1.0741  0.9397  2.8135
 9044TIP3    H248624   1.840   3.803   5.709 -2.5263  0.4450 -1.2652
 9045TIP3   OH248625   1.528   5.749  15.507  0.8870 -0.5015 -0.3960
 9045TIP3    H148626   1.571   5.786  15.430  1.8700  1.3348  0.9989
 9045TIP3    H248627   1.455   5.699  15.471  0.1953  1.8425 -2.4631
 9046TIP3   OH248628   2.936   1.502   5.499 -0.1537 -0.1207 -0.5089
 9046TIP3    H148629   2.972   1.478   5.413  0.7596 -0.5038 -0.0193
 9046TIP3    H248630   2.966   1.591   5.514 -0.3243 -0.0491 -0.5892
 9047TIP3   OH248631   6.721   0.885  14.790 -0.0539  0.2020  0.3858
 9047TIP3    H148632   6.807   0.908  14.826  0.2834 -2.4355  1.3178
 9047TIP3    H248633   6.677   0.839  14.861 -1.1190 -1.0306 -1.0550
 9048TIP3   OH248634   1.453   5.191  13.882  0.0868 -0.2225  0.0586
 9048TIP3    H148635   1.451   5.197  13.977  1.5272 -1.2444  0.1843
 9048TIP3    H248636   1.515   5.259  13.855  0.0022 -0.2109 -0.1078
 9049TIP3   OH248637   5.469   2.509  16.162 -0.4810 -0.5317  0.2095
 9049TIP3    H148638   5.454   2.474  16.250  2.3628 -1.9692  0.1873
 9049TIP3    H248639   5.477   2.604  16.174 -1.1370 -0.6168  1.3318
 9050TIP3   OH248640   3.705   5.847   0.689 -0.3816  0.1604  0.2145
 9050TIP3    H148641   3.763   5.921   0.704 -0.5680  0.4046 -0.2755
 9050TIP3    H248642   3.621   5.874   0.726 -0.8876  0.8280 -1.3722
 9051TIP3   OH248643   2.215   5.519   2.541 -0.4866 -0.0072  0.2413
 9051TIP3    H148644   2.192   5.427   2.529 -0.1052  0.0726 -1.1730
 9051TIP3    H248645   2.305   5.517   2.573 -0.4412 -0.1210  0.1082
 9052TIP3   OH248646   6.073   3.586   2.836  0.9433 -0.3665 -0.0565
 9052TIP3    H148647   6.161   3.600   2.799  1.4205 -1.3331  0.6924
 9052TIP3    H248648   6.015   3.635   2.778  2.0302  0.6667 -0.2958
 9053TIP3   OH248649   4.477   4.270   5.137  0.1014 -0.3099  0.6667
 9053TIP3    H148650   4.544   4.228   5.192 -2.3676 -1.8058  2.6073
 9053TIP3    H248651   4.438   4.198   5.088 -1.2522  0.3225  0.8100
 9054TIP3   OH248652   2.646   1.016  11.978 -0.3495 -0.4460 -0.8251
 9054TIP3    H148653   2.703   0.954  11.932 -0.6155 -0.8318 -0.6358
 9054TIP3    H248654   2.650   1.096  11.926  0.3514 -0.4780 -0.8286
 9055TIP3   OH248655   3.668   5.199   5.801  0.4160  0.0340 -0.4379
 9055TIP3    H148656   3.729   5.259   5.758  1.4957 -1.5123 -1.1026
 9055TIP3    H248657   3.686   5.208   5.894  0.8287  0.4691 -0.5620
 9056TIP3   OH248658   2.929   4.981   5.110 -0.0459 -0.0835 -0.0445
 9056TIP3    H148659   2.876   4.901   5.110 -1.7486  0.9977  2.3023
 9056TIP3    H248660   2.997   4.965   5.175  0.0549  0.1303 -0.0970
 9057TIP3   OH248661   0.012   4.577   4.558 -0.4419 -0.3705 -0.0850
 9057TIP3    H148662  -0.045   4.501   4.550  0.0695 -0.8410  0.6649
 9057TIP3    H248663   0.100   4.541   4.561 -0.2517  0.1709  1.3087
 9058TIP3   OH248664   0.619   2.652   5.264 -0.3517  0.4751 -0.3698
 9058TIP3    H148665   0.560   2.654   5.340  0.9065  0.3531  0.6233
 9058TIP3    H248666   0.686   2.587   5.287  0.7384  1.3398 -1.0482
 9059TIP3   OH248667   5.245   5.751   3.619 -0.2018 -0.4066 -0.4546
 9059TIP3    H148668   5.242   5.815   3.691 -2.6206  2.1809 -2.7250
 9059TIP3    H248669   5.338   5.739   3.602  0.3226  1.6857  0.7582
 9060TIP3   OH248670   4.964   1.687   1.052  0.3535  0.3654 -0.1070
 9060TIP3    H148671   5.011   1.762   1.089 -0.5217  1.2983 -0.8439
 9060TIP3    H248672   4.933   1.638   1.128 -0.3543  1.5785  0.4123
 9061TIP3   OH248673   2.286   0.296   1.913 -0.0511 -0.1980  0.4068
 9061TIP3    H148674   2.312   0.205   1.897  2.5234  0.0767  2.6749
 9061TIP3    H248675   2.265   0.330   1.826  3.6323 -1.6047 -1.1812
 9062TIP3   OH248676   5.527   2.518   2.996 -0.4912  0.4923  0.5416
 9062TIP3    H148677   5.580   2.450   3.037 -0.6292  0.2249  0.2796
 9062TIP3    H248678   5.498   2.573   3.068  2.2838  2.1590  0.4425
 9063TIP3   OH248679   0.645   5.650  16.523 -0.1599 -0.3021  0.1074
 9063TIP3    H148680   0.692   5.661  16.440 -0.4947  0.4897  0.0217
 9063TIP3    H248681   0.712   5.665  16.590  0.3826 -2.0889 -0.0058
 9064TIP3   OH248682   1.606   2.947  14.272  0.1352 -0.1930  0.2101
 9064TIP3    H148683   1.548   2.897  14.214 -0.1094  0.5808 -0.2121
 9064TIP3    H248684   1.687   2.896  14.273 -0.1779 -0.7102 -0.0511
 9065TIP3   OH248685   1.821   2.164  12.241 -0.4297 -0.2248 -0.0226
 9065TIP3    H148686   1.769   2.169  12.321  0.4413 -3.6635  0.8306
 9065TIP3    H248687   1.909   2.190  12.268 -0.6342  0.9001 -0.4091
 9066TIP3   OH248688   0.103   5.027   4.490  0.1047 -0.1366  0.3148
 9066TIP3    H148689   0.152   5.017   4.572 -0.3445  0.8653  0.7124
 9066TIP3    H248690   0.171   5.030   4.422  0.3716 -3.2298  0.4108
 9067TIP3   OH248691   2.995   4.074  17.187  0.1729  0.3263  0.5380
 9067TIP3    H148692   2.935   4.056  17.114 -0.7017 -2.0866  1.8073
 9067TIP3    H248693   3.074   4.026  17.164  0.3104  0.5013  0.6480
 9068TIP3   OH248694   0.043   0.711   2.024  0.1883 -0.0710  0.4295
 9068TIP3    H148695  -0.004   0.629   2.011  1.2680 -0.5405 -0.5829
 9068TIP3    H248696   0.073   0.736   1.937 -0.8174  1.8311  0.6047
 9069TIP3   OH248697   3.900   4.236  15.572  0.3674 -1.2096 -0.7084
 9069TIP3    H148698   3.901   4.144  15.543 -1.4649 -1.7034  0.6984
 9069TIP3    H248699   3.837   4.279  15.514  1.0877 -0.8682 -1.2475
 9070TIP3   OH248700   2.919   5.018   0.494  0.0557  0.0285  0.2723
 9070TIP3    H148701   2.980   5.091   0.482  0.6281 -0.4506  0.2927
 9070TIP3    H248702   2.952   4.970   0.569 -2.1928  1.6334  2.3954
 9071TIP3   OH248703   2.208   3.933  12.045 -0.2193 -0.1444  0.1566
 9071TIP3    H148704   2.212   3.936  11.950  1.6452  1.4500  0.2712
 9071TIP3    H248705   2.287   3.977  12.075 -1.5545  0.8055  2.4661
 9072TIP3   OH248706   6.346   2.476  14.957 -0.3953  0.0838 -0.5026
 9072TIP3    H148707   6.441   2.489  14.958  0.0304 -2.6043 -0.6288
 9072TIP3    H248708   6.318   2.510  14.872  0.6272 -0.0318 -0.8942
 9073TIP3   OH248709   3.179   1.874   2.325  0.0017 -0.3939 -0.2199
 9073TIP3    H148710   3.225   1.791   2.317 -0.2147 -0.3763 -1.7621
 9073TIP3    H248711   3.096   1.860   2.279 -0.8828  0.0682  1.1740
 9074TIP3   OH248712   5.053   4.919  12.781 -0.3453 -0.1108 -0.5647
 9074TIP3    H148713   5.002   4.968  12.845  0.8640  0.9756 -0.4071
 9074TIP3    H248714   5.035   4.827  12.801 -0.8444  0.2325  0.6294
 9075TIP3   OH248715   6.488   6.284  14.238 -0.0188 -0.1031  0.2315
 9075TIP3    H148716   6.465   6.264  14.329  0.2744 -0.8958  0.1399
 9075TIP3    H248717   6.522   6.201  14.204  0.8459  0.4604 -0.2927
 9076TIP3   OH248718   0.255   6.735   4.474 -0.5760  0.3004 -0.2461
 9076TIP3    H148719   0.260   6.694   4.560 -2.9225  1.1606  0.3404
 9076TIP3    H248720   0.180   6.693   4.431 -0.9378  1.5658 -0.9085
 9077TIP3   OH248721   6.739   5.996   4.985  0.0423  0.1822  0.0628
 9077TIP3    H148722   6.767   6.014   4.895  0.6895 -0.6507  0.0821
 9077TIP3    H248723   6.805   6.038   5.040  0.8221 -1.0499  0.1142
 9078TIP3   OH248724   3.342   1.801  14.154 -0.6243  0.2840 -0.5126
 9078TIP3    H148725   3.281   1.856  14.204 -0.0118  2.3176 -1.9552
 9078TIP3    H248726   3.421   1.854  14.146  0.7289 -1.6469 -0.1632
 9079TIP3   OH248727   6.554   0.044   4.127 -0.1227 -0.2507  0.0418
 9079TIP3    H148728   6.573   0.118   4.184  1.2914 -0.2326 -0.4415
 9079TIP3    H248729   6.502   0.082   4.056  1.4139  0.4896 -0.7188
 9080TIP3   OH248730   0.326   2.434  14.269  0.0211  0.4939 -0.1659
 9080TIP3    H148731   0.290   2.473  14.189 -0.0388 -0.5058 -0.6292
 9080TIP3    H248732   0.321   2.340  14.254  1.1810  0.3238  0.5061
 9081TIP3   OH248733   1.436   3.270   1.288  0.0866 -0.4020  0.0169
 9081TIP3    H148734   1.512   3.309   1.330 -0.2271 -2.3527  2.4985
 9081TIP3    H248735   1.389   3.345   1.250  1.2308  1.2532  1.7641
 9082TIP3   OH248736   5.218   3.907   1.093  0.3873  0.2624 -0.4709
 9082TIP3    H148737   5.199   3.924   1.185 -1.2253 -0.0679 -0.7316
 9082TIP3    H248738   5.313   3.898   1.090  0.3059 -2.0102  1.5669
 9083TIP3   OH248739   5.816   1.871  16.935 -0.2130 -0.5594  0.2215
 9083TIP3    H148740   5.884   1.936  16.916 -0.3862 -0.2208  0.7545
 9083TIP3    H248741   5.764   1.910  17.006  0.6150 -1.9493  1.6214
 9084TIP3   OH248742   5.097   3.453  15.949  0.0017  0.2337  0.3840
 9084TIP3    H148743   5.141   3.507  16.015 -0.2617 -0.6097  1.2585
 9084TIP3    H248744   5.019   3.420  15.993  0.0544 -0.6968 -0.2045
 9085TIP3   OH248745   4.879   5.968  14.470 -0.3333  0.2705 -0.2164
 9085TIP3    H148746   4.868   6.042  14.410 -2.2548  0.7472  0.7067
 9085TIP3    H248747   4.791   5.933  14.483  0.4523 -1.7340 -0.0452
 9086TIP3   OH248748   1.933   6.103  11.306  0.4288  0.2377  0.3487
 9086TIP3    H148749   1.876   6.178  11.288  0.3284  0.2411  0.6879
 9086TIP3    H248750   2.016   6.125  11.264  0.7109  0.9706  1.2762
 9087TIP3   OH248751   6.716   2.446   5.761 -0.1673  0.5552 -0.2739
 9087TIP3    H148752   6.736   2.444   5.855 -1.5253  2.3337  0.0659
 9087TIP3    H248753   6.643   2.385   5.752 -0.8132  1.2720  0.0315
 9088TIP3   OH248754   6.345   3.760   1.034  0.3509 -0.5034 -0.5613
 9088TIP3    H148755   6.408   3.780   1.103 -1.9038 -1.4107  1.8057
 9088TIP3    H248756   6.275   3.824   1.047 -0.9181 -1.8087 -0.8897
 9089TIP3   OH248757   4.096   4.128   5.137 -0.1969  0.2522  0.2739
 9089TIP3    H148758   4.096   4.038   5.170  0.7658  0.8442  1.9418
 9089TIP3    H248759   4.172   4.132   5.078 -1.0606 -0.3954 -0.9159
 9090TIP3   OH248760   1.631   4.423   2.667  0.7860 -0.2714  0.7346
 9090TIP3    H148761   1.585   4.369   2.603  1.1024  0.4206 -0.0881
 9090TIP3    H248762   1.611   4.383   2.751 -0.6860 -0.4401  0.3255
 9091TIP3   OH248763   5.274   0.685   2.570  0.4494  0.5083  0.2155
 9091TIP3    H148764   5.250   0.694   2.478  0.7665  0.9334  0.1744
 9091TIP3    H248765   5.298   0.773   2.598  0.5760  0.3409  0.6426
 9092TIP3   OH248766   0.089   2.446  16.310 -1.0834  0.8800  0.9602
 9092TIP3    H148767   0.023   2.465  16.377 -1.4614  1.1120  0.5185
 9092TIP3    H248768   0.090   2.524  16.254 -0.9047  0.6023  0.5774
 9093TIP3   OH248769   4.319   6.802   1.497  0.3816  0.3477 -1.0694
 9093TIP3    H148770   4.400   6.852   1.509 -0.1108  1.0337 -0.5998
 9093TIP3    H248771   4.347   6.722   1.452  1.4794  0.1102  0.0244
 9094TIP3   OH248772   1.113   4.869  14.091  0.2958 -0.2641  0.2434
 9094TIP3    H148773   1.028   4.900  14.060  0.8848  1.6860  0.5052
 9094TIP3    H248774   1.173   4.887  14.018  0.8644  0.2187  0.8322
 9095TIP3   OH248775   2.947   6.421  13.462  0.9660 -0.3382  0.3941
 9095TIP3    H148776   2.879   6.392  13.523  0.6875 -1.4653 -0.4279
 9095TIP3    H248777   3.003   6.478  13.514 -0.7852  0.8583  1.0045
 9096TIP3   OH248778   1.894   2.881  13.822 -0.4193  0.2644  0.5998
 9096TIP3    H148779   1.819   2.874  13.880 -0.0894  1.3757  1.1708
 9096TIP3    H248780   1.962   2.921  13.875 -0.3846  2.1071 -0.7796
 9097TIP3   OH248781   4.395   4.620   0.651 -0.4561 -0.1745 -0.4010
 9097TIP3    H148782   4.391   4.714   0.667  1.2979 -0.0304 -0.6770
 9097TIP3    H248783   4.470   4.591   0.703  1.9366 -0.6239 -3.9304
 9098TIP3   OH248784   2.708   6.808  16.108 -0.0973 -0.0895 -0.3326
 9098TIP3    H148785   2.642   6.742  16.130 -0.8056  0.7818  0.1665
 9098TIP3    H248786   2.671   6.891  16.139  0.5275  0.6303 -1.4950
 9099TIP3   OH248787   5.072   2.878   3.793  0.2671 -0.1749 -0.0216
 9099TIP3    H148788   5.025   2.954   3.826 -0.5552 -0.0903 -1.3480
 9099TIP3    H248789   5.142   2.915   3.738  0.9746 -0.3390  0.7552
 9100TIP3   OH248790   5.452   5.064  12.085 -0.3302 -0.6195  0.4544
 9100TIP3    H148791   5.487   5.153  12.088 -0.8539 -0.4700  2.8695
 9100TIP3    H248792   5.359   5.075  12.067 -0.2834 -0.7252  0.1353
 9101TIP3   OH248793   1.047   0.317  15.251 -0.0589  0.0886 -0.0620
 9101TIP3    H148794   1.121   0.360  15.207 -0.1842  0.7532  0.3765
 9101TIP3    H248795   1.029   0.373  15.327  0.1959 -1.0771  0.8723
 9102TIP3   OH248796   6.799   2.963   1.157  0.5872  0.0239 -0.5195
 9102TIP3    H148797   6.848   2.882   1.143  0.5991  0.2125 -1.6315
 9102TIP3    H248798   6.729   2.939   1.217  2.6352 -0.0326  1.9231
 9103TIP3   OH248799   3.742   2.891  15.952  0.6146  0.3227 -0.6039
 9103TIP3    H148800   3.780   2.872  15.866 -0.9063 -0.9295 -1.0313
 9103TIP3    H248801   3.792   2.837  16.013  0.7213  0.0749 -0.9098
 9104TIP3   OH248802   1.333   1.365  12.333  0.2886 -0.2790  0.3762
 9104TIP3    H148803   1.302   1.391  12.420  1.4870  2.0859  0.1144
 9104TIP3    H248804   1.258   1.381  12.275 -0.1993 -0.9686  0.8078
 9105TIP3   OH248805   5.681   0.837   4.804  0.6591  0.3483 -0.0649
 9105TIP3    H148806   5.655   0.929   4.797  1.1530  0.3489 -2.4752
 9105TIP3    H248807   5.703   0.812   4.714 -0.5320 -2.4491  0.3689
 9106TIP3   OH248808   1.019   0.762   3.783  0.1479  0.3687 -0.1258
 9106TIP3    H148809   0.960   0.715   3.841 -1.3720  0.4476 -1.5446
 9106TIP3    H248810   1.077   0.695   3.748 -0.4189 -0.0519 -0.2664
 9107TIP3   OH248811   1.251   0.432  17.133 -0.0492  0.0832  0.6003
 9107TIP3    H148812   1.218   0.349  17.168 -1.6639 -0.5060 -2.1800
 9107TIP3    H248813   1.324   0.406  17.076 -2.4965  0.1538 -2.7457
 9108TIP3   OH248814   3.130   4.616   0.672  0.0569 -0.6921 -0.0439
 9108TIP3    H148815   3.145   4.659   0.757  1.3961 -0.3920 -0.4237
 9108TIP3    H248816   3.213   4.627   0.625 -1.4601  1.3717 -2.3691
 9109TIP3   OH248817   0.116   1.114  17.274  0.6914  0.6655  0.2830
 9109TIP3    H148818   0.178   1.103  17.347  0.5077  1.2430  0.5293
 9109TIP3    H248819   0.171   1.110  17.196  0.6299 -2.1349  0.3260
 9110TIP3   OH248820   4.311   3.740  15.335 -0.3469 -0.6372 -0.7161
 9110TIP3    H148821   4.327   3.834  15.342  1.4498 -0.8984 -0.9115
 9110TIP3    H248822   4.223   3.728  15.368  0.0274  0.9070  0.9152
 9111TIP3   OH248823   2.470   5.239   4.568 -0.0439  0.2073 -0.2507
 9111TIP3    H148824   2.404   5.171   4.580  1.4166 -1.3225 -0.6484
 9111TIP3    H248825   2.433   5.316   4.612 -2.6664 -0.2076 -1.6258
 9112TIP3   OH248826   0.013   3.085  16.253 -0.2593  0.0083  0.3071
 9112TIP3    H148827   0.070   3.097  16.177 -1.7633  0.4142 -0.7752
 9112TIP3    H248828  -0.070   3.126  16.228 -0.5142  0.9101  2.4949
 9113TIP3   OH248829   2.736   0.524   4.656  0.3095  0.4057 -0.2072
 9113TIP3    H148830   2.698   0.480   4.581 -2.2066 -1.3373  2.0013
 9113TIP3    H248831   2.669   0.586   4.685  1.1451  0.9008  0.7354
 9114TIP3   OH248832   5.554   3.194  10.447 -0.1460  0.0679  0.1147
 9114TIP3    H148833   5.574   3.211  10.355  2.2892 -2.9192  0.0198
 9114TIP3    H248834   5.638   3.204  10.492 -0.7417 -1.3067  1.5785
 9115TIP3   OH248835   0.150   1.602   2.114 -0.7013  0.4640  0.4759
 9115TIP3    H148836   0.080   1.547   2.150 -2.2169  3.6258  2.6235
 9115TIP3    H248837   0.117   1.630   2.029 -0.5127 -0.8483 -0.0355
 9116TIP3   OH248838   3.903   6.217  15.369  0.3076  0.1142 -0.6380
 9116TIP3    H148839   3.981   6.174  15.333 -1.1085 -2.6978 -0.4849
 9116TIP3    H248840   3.831   6.189  15.312 -1.0496  0.3215  0.9281
 9117TIP3   OH248841   3.061   4.111  14.963  0.0933 -0.0144 -0.3422
 9117TIP3    H148842   3.034   4.119  15.055  2.4551  3.8997  0.1256
 9117TIP3    H248843   3.095   4.022  14.957 -0.0575 -0.3410  2.6218
 9118TIP3   OH248844   6.037   4.146  13.285 -0.7573  0.2092  0.0423
 9118TIP3    H148845   6.026   4.235  13.251 -1.0887  0.0646 -0.2383
 9118TIP3    H248846   5.988   4.146  13.367 -1.1805  0.1446 -0.2063
 9119TIP3   OH248847   0.976   1.257   3.547 -0.3050  0.3342 -0.1433
 9119TIP3    H148848   0.896   1.302   3.574 -0.8875  0.1323 -1.4669
 9119TIP3    H248849   0.963   1.166   3.574 -0.6798  0.2325 -0.6462
 9120TIP3   OH248850   6.705   3.876   3.984 -0.0097 -0.9646 -0.0459
 9120TIP3    H148851   6.668   3.904   3.900 -1.0870 -0.0507  0.7184
 9120TIP3    H248852   6.799   3.890   3.974  0.0349 -2.2209 -1.6073
 9121TIP3   OH248853   2.177   5.511  14.602 -0.4003  0.2337  0.0620
 9121TIP3    H148854   2.264   5.536  14.634  1.5559 -1.4373 -3.5903
 9121TIP3    H248855   2.137   5.463  14.674  0.9651  2.5654  2.4353
 9122TIP3   OH248856   4.022   2.445  10.601  0.2400 -0.4039  0.3912
 9122TIP3    H148857   4.003   2.352  10.587 -0.1574 -0.4774  1.4137
 9122TIP3    H248858   3.955   2.491  10.551 -1.4635 -0.6672  2.3500
 9123TIP3   OH248859   5.441   1.500   1.286  0.0157  0.1005  0.2848
 9123TIP3    H148860   5.529   1.475   1.312 -0.0010  0.2899  0.5287
 9123TIP3    H248861   5.436   1.594   1.305 -0.0882  0.1841 -0.1489
 9124TIP3   OH248862   5.674   4.553  12.034 -0.2095  0.8858  0.0340
 9124TIP3    H148863   5.626   4.552  11.951  1.8264 -0.6461 -1.1763
 9124TIP3    H248864   5.742   4.620  12.022  1.6815 -1.0709 -0.5240
 9125TIP3   OH248865   4.595   2.307   1.337  0.1860  0.1660  0.1925
 9125TIP3    H148866   4.660   2.304   1.407  0.8740  1.1405 -0.4006
 9125TIP3    H248867   4.515   2.338   1.381  0.6198  0.7916  0.5437
 9126TIP3   OH248868   4.543   0.256  11.948  0.1683 -0.9079  0.3689
 9126TIP3    H148869   4.494   0.183  11.985  3.3042 -2.9505  0.6421
 9126TIP3    H248870   4.506   0.267  11.860 -1.8433 -1.3195  1.1390
 9127TIP3   OH248871   3.044   1.360   5.290  0.3012  0.0543 -0.2871
 9127TIP3    H148872   3.041   1.266   5.305  0.8518  0.2228  0.9749
 9127TIP3    H248873   3.138   1.381   5.288  0.1844  0.8333  1.2805
 9128TIP3   OH248874   4.315   6.505   4.530 -0.0632 -0.0267 -0.3635
 9128TIP3    H148875   4.381   6.487   4.463  1.2597 -0.6208  1.0539
 9128TIP3    H248876   4.335   6.443   4.600 -1.4182  0.5804  0.5747
 9129TIP3   OH248877   0.861   2.950   5.329  0.3948 -0.2423 -0.0046
 9129TIP3    H148878   0.908   3.032   5.345 -0.4098  0.3866 -0.8040
 9129TIP3    H248879   0.885   2.894   5.403 -0.1631  1.2087  1.3086
 9130TIP3   OH248880   1.415   2.120  12.886 -0.0150 -0.3821  0.0428
 9130TIP3    H148881   1.435   2.027  12.900 -1.5376 -0.9929 -1.6213
 9130TIP3    H248882   1.356   2.142  12.958 -2.1564 -1.5931 -1.2724
 9131TIP3   OH248883   1.182   4.640   5.580 -0.5487  0.4117  0.1398
 9131TIP3    H148884   1.163   4.720   5.630  0.4901  2.4071 -2.5518
 9131TIP3    H248885   1.097   4.611   5.548 -1.0479 -0.1185  1.8661
 9132TIP3   OH248886   1.803   0.318   1.360  0.0652 -0.3872 -0.2397
 9132TIP3    H148887   1.817   0.262   1.284  0.5861  1.2407 -1.3702
 9132TIP3    H248888   1.844   0.401   1.337 -1.8223  0.8933  0.8749
 9133TIP3   OH248889   6.057   3.372   1.415  0.3572 -0.5405  0.1830
 9133TIP3    H148890   6.006   3.330   1.346 -0.1459  1.5934 -0.7520
 9133TIP3    H248891   5.992   3.416   1.470  0.9054 -0.7499  1.0196
 9134TIP3   OH248892   6.199   1.647  13.605 -0.4365 -0.2365  0.4211
 9134TIP3    H148893   6.292   1.628  13.595 -0.4261 -0.3209  0.6748
 9134TIP3    H248894   6.156   1.581  13.550 -0.4479 -1.8158  2.2708
 9135TIP3   OH248895   5.251   0.160  13.516 -0.4260 -0.3767  0.1219
 9135TIP3    H148896   5.330   0.212  13.530 -0.4935  0.1433 -1.2788
 9135TIP3    H248897   5.204   0.164  13.599 -0.8541  2.5758 -0.1902
 9136TIP3   OH248898   4.457   2.104  12.546  0.2921 -0.3840  0.1211
 9136TIP3    H148899   4.452   2.160  12.624  0.1252 -0.6250  0.2832
 9136TIP3    H248900   4.367   2.073  12.534  0.2706 -0.1473 -0.3134
 9137TIP3   OH248901   5.132   3.223  14.238  0.4795 -0.3594  0.9382
 9137TIP3    H148902   5.155   3.190  14.152 -0.0515  1.1136  0.2135
 9137TIP3    H248903   5.216   3.242  14.280  0.7178  0.7256  0.0066
 9138TIP3   OH248904   1.049   5.569  10.853 -0.4064 -0.1545  0.3873
 9138TIP3    H148905   0.961   5.562  10.817  0.6826 -3.9518 -1.8403
 9138TIP3    H248906   1.041   5.539  10.943 -1.7292  1.7396  0.9408
 9139TIP3   OH248907   0.009   3.527  14.994  0.9270  0.4175 -0.3687
 9139TIP3    H148908  -0.022   3.451  14.946 -0.8793  1.6029 -1.1179
 9139TIP3    H248909   0.037   3.589  14.926 -0.4928  1.6209  0.1304
 9140TIP3   OH248910   5.331   1.410   3.383 -0.6800 -0.4140  0.0756
 9140TIP3    H148911   5.256   1.417   3.442 -0.0356 -3.1058  1.3371
 9140TIP3    H248912   5.404   1.448   3.432 -1.0068  1.2843 -0.7440
 9141TIP3   OH248913   4.682   0.705  16.861  0.2872 -0.5065  0.1327
 9141TIP3    H148914   4.695   0.737  16.772 -2.2643 -1.2489 -0.5488
 9141TIP3    H248915   4.623   0.769  16.901  1.7984  0.0903  1.4831
 9142TIP3   OH248916   5.723   5.133   2.731 -0.1164  0.7035  0.3257
 9142TIP3    H148917   5.749   5.043   2.752 -0.7798  0.9278  2.1520
 9142TIP3    H248918   5.760   5.186   2.801  0.8501  1.9700 -1.1131
 9143TIP3   OH248919   3.398   3.854   3.800 -0.4702  0.1218 -0.7880
 9143TIP3    H148920   3.352   3.897   3.872  2.2105  0.1987  0.9298
 9143TIP3    H248921   3.378   3.908   3.723 -1.8448  1.1004  0.2320
 9144TIP3   OH248922   2.505   2.806  16.119 -0.4475 -0.3283 -0.1131
 9144TIP3    H148923   2.558   2.730  16.096 -1.2940 -0.7277 -0.7546
 9144TIP3    H248924   2.415   2.782  16.095 -0.6724  0.9994 -0.6733
 9145TIP3   OH248925   2.179   4.116   5.172  0.2085  0.1005 -0.1330
 9145TIP3    H148926   2.143   4.032   5.141  0.0780 -0.4209  1.3797
 9145TIP3    H248927   2.109   4.153   5.226  1.2597 -0.0617  1.3613
 9146TIP3   OH248928   5.170   0.073  14.618 -0.0377 -0.0015  0.0256
 9146TIP3    H148929   5.180   0.117  14.703 -2.5496  0.9852 -0.1623
 9146TIP3    H248930   5.235   0.002  14.621  0.1233  0.1893  2.6447
 9147TIP3   OH248931   4.817   6.093  16.733 -0.3701 -0.1155 -0.0952
 9147TIP3    H148932   4.877   6.039  16.784  1.0587 -0.7599 -2.3764
 9147TIP3    H248933   4.859   6.179  16.729 -0.3557 -0.1382 -0.4262
 9148TIP3   OH248934   6.411   3.717   4.433  0.4509 -0.3179  0.0396
 9148TIP3    H148935   6.459   3.635   4.442  0.7800 -0.1484 -0.1586
 9148TIP3    H248936   6.450   3.759   4.357 -0.1574 -0.2766 -0.2516
 9149TIP3   OH248937   5.563   5.888   5.247  0.0881 -0.5756 -0.0009
 9149TIP3    H148938   5.558   5.982   5.265  0.7772 -0.6263  0.4746
 9149TIP3    H248939   5.642   5.879   5.194 -0.4888 -0.7720 -0.8445
 9150TIP3   OH248940   6.558   2.697  12.842 -0.0133  0.5753 -0.0221
 9150TIP3    H148941   6.633   2.748  12.873 -1.0619  1.9107  0.3140
 9150TIP3    H248942   6.481   2.740  12.879 -0.9344 -1.1303  0.1055
 9151TIP3   OH248943   0.560   5.852  11.564  0.1542 -0.5326  0.0917
 9151TIP3    H148944   0.499   5.863  11.637 -1.4872 -0.3563 -1.2740
 9151TIP3    H248945   0.591   5.940  11.545  2.7090 -0.8912  2.3120
 9152TIP3   OH248946   6.424   5.268   5.227  0.8686 -0.0082 -0.1188
 9152TIP3    H148947   6.495   5.243   5.286  0.6790  0.1441  0.1764
 9152TIP3    H248948   6.345   5.237   5.272  0.9006 -2.1682 -1.4696
 9153TIP3   OH248949   6.206   1.688  17.290  0.0105 -0.5692  0.1886
 9153TIP3    H148950   6.140   1.642  17.341 -0.4264 -0.7257 -0.5157
 9153TIP3    H248951   6.289   1.646  17.314 -0.5416 -2.7489 -1.5777
 9154TIP3   OH248952   3.599   1.971  11.143 -0.1425 -0.4556 -0.1811
 9154TIP3    H148953   3.555   1.886  11.145  2.4818 -1.8650  0.4973
 9154TIP3    H248954   3.654   1.968  11.064 -1.5767  1.4676 -1.3046
 9155TIP3   OH248955   4.546   3.321  15.793 -0.2318 -0.2338  0.0802
 9155TIP3    H148956   4.585   3.237  15.770 -1.1025 -0.1736 -1.7222
 9155TIP3    H248957   4.511   3.354  15.711  1.8838  2.8576  0.3256
 9156TIP3   OH248958   3.160   4.862  12.786 -0.0250 -0.5302 -0.0727
 9156TIP3    H148959   3.234   4.913  12.818 -0.7379  0.4767 -0.0223
 9156TIP3    H248960   3.197   4.806  12.717  0.7706 -0.0131 -0.0660
 9157TIP3   OH248961   2.876   3.579  14.867  0.0845 -0.0576  0.0901
 9157TIP3    H148962   2.809   3.575  14.798  0.9695 -0.2630 -0.7700
 9157TIP3    H248963   2.900   3.488  14.882 -0.2886 -0.0349  0.8700
 9158TIP3   OH248964   2.493   4.938   3.633  0.6748 -0.0457 -0.0087
 9158TIP3    H148965   2.530   4.966   3.717  0.7186 -0.7427  0.2030
 9158TIP3    H248966   2.569   4.913   3.581  0.6179  0.0261 -0.1255
 9159TIP3   OH248967   2.870   5.666  15.841  0.2898 -0.2001 -0.3448
 9159TIP3    H148968   2.787   5.668  15.792 -1.7014  0.3830  2.9333
 9159TIP3    H248969   2.853   5.607  15.914  1.4386  2.9744  2.5974
 9160TIP3   OH248970   3.658   4.520  11.527  0.2134 -0.0635  0.1915
 9160TIP3    H148971   3.688   4.599  11.481  1.0908  0.6935  2.0139
 9160TIP3    H248972   3.569   4.541  11.554  0.2698  0.1105  0.2435
 9161TIP3   OH248973   5.903   0.794  16.666  0.3381  0.6899 -0.0292
 9161TIP3    H148974   5.870   0.774  16.753  0.6688 -2.7667 -0.5934
 9161TIP3    H248975   5.827   0.826  16.617 -0.5918 -0.4906  0.6227
 9162TIP3   OH248976   2.393   4.372  14.103  0.0277  0.3671 -0.1276
 9162TIP3    H148977   2.410   4.462  14.130  1.2787  0.1793 -0.2719
 9162TIP3    H248978   2.299   4.361  14.115  0.0728  1.2775  1.1311
 9163TIP3   OH248979   5.010   1.419   2.773  0.0233 -0.4337 -0.1734
 9163TIP3    H148980   5.102   1.398   2.781  0.6520  2.2209  0.1099
 9163TIP3    H248981   4.967   1.369   2.842  1.1674 -2.0123 -0.5832
 9164TIP3   OH248982   5.361   2.815   4.594 -0.3488  0.3299  0.1935
 9164TIP3    H148983   5.280   2.815   4.543 -0.3873 -1.4577  0.2316
 9164TIP3    H248984   5.338   2.861   4.675 -0.8445  1.3427 -0.5112
 9165TIP3   OH248985   3.130   4.611  14.835  0.4249  0.3326  0.0716
 9165TIP3    H148986   3.064   4.584  14.899  0.1482 -0.2702 -0.4572
 9165TIP3    H248987   3.199   4.653  14.887  0.3402 -0.4151  0.7999
 9166TIP3   OH248988   6.774   5.899   3.862 -0.1365 -0.2528 -0.2247
 9166TIP3    H148989   6.823   5.934   3.787 -0.7898  1.1620 -0.0088
 9166TIP3    H248990   6.687   5.880   3.827  0.0224 -1.0535 -0.1848
 9167TIP3   OH248991   3.921   0.104  11.246 -0.1233  0.0572 -0.1331
 9167TIP3    H148992   3.829   0.126  11.233  0.2931  2.1369  0.3778
 9167TIP3    H248993   3.970   0.173  11.201  1.1989 -0.9869 -0.3468
 9168TIP3   OH248994   1.077   3.597  12.442  0.1121 -0.6523  0.3280
 9168TIP3    H148995   1.078   3.501  12.438  3.3261 -0.6798  0.1462
 9168TIP3    H248996   1.004   3.623  12.386 -0.3430 -2.9651 -0.2109
 9169TIP3   OH248997   0.410   4.607   2.071 -0.8812  0.1222 -0.4831
 9169TIP3    H148998   0.482   4.644   2.019 -0.4275  1.1211  0.8262
 9169TIP3    H248999   0.337   4.600   2.009 -0.5926  2.0565 -1.0744
 9170TIP3   OH249000   2.345   1.257   3.772  0.3482  0.0160  1.0176
 9170TIP3    H149001   2.392   1.329   3.730  3.3266 -1.4207  1.7703
 9170TIP3    H249002   2.337   1.190   3.703 -1.5927  0.6544  0.5865
 9171TIP3   OH249003   0.103   0.411  15.916 -0.0450 -0.7917  0.2308
 9171TIP3    H149004   0.041   0.452  15.977  0.0129 -1.6699  0.8922
 9171TIP3    H249005   0.153   0.350  15.970  0.8782 -0.6624 -0.4543
 9172TIP3   OH249006   6.539   4.402   5.150  0.6815  0.2269  0.6222
 9172TIP3    H149007   6.456   4.449   5.151 -0.5205 -1.8235 -0.8847
 9172TIP3    H249008   6.585   4.435   5.073 -0.0216 -0.7934 -0.2460
 9173TIP3   OH249009   1.913   4.677  14.641 -0.2890  0.2979 -0.3083
 9173TIP3    H149010   1.841   4.702  14.583 -0.8315 -1.0128 -0.2188
 9173TIP3    H249011   1.990   4.722  14.606 -0.5736 -0.6325 -2.1531
 9174TIP3   OH249012   2.959   6.546  11.869  0.2971 -0.0952  0.6247
 9174TIP3    H149013   2.931   6.580  11.954 -1.9942 -0.1100 -0.0906
 9174TIP3    H249014   3.052   6.525  11.881  0.6856  2.3408  2.3464
 9175TIP3   OH249015   6.603   1.766  17.084  0.7924 -0.4286  0.7881
 9175TIP3    H149016   6.559   1.851  17.086  0.2856 -0.6873  0.6600
 9175TIP3    H249017   6.678   1.776  17.143 -0.1385 -0.3786  1.9640
 9176TIP3   OH249018   4.379   3.506   1.810 -0.4153  0.1676  0.1101
 9176TIP3    H149019   4.296   3.464   1.789  0.1118 -0.9560  0.2599
 9176TIP3    H249020   4.444   3.459   1.758  0.3756 -0.1008  1.3234
 9177TIP3   OH249021   5.705   6.352   1.957 -0.0543  0.4992 -0.1603
 9177TIP3    H149022   5.659   6.407   2.020  2.1051  2.3166 -0.1246
 9177TIP3    H249023   5.697   6.263   1.992 -1.1169  1.1491  1.2899
 9178TIP3   OH249024   1.487   0.654  14.631  0.9032 -0.1999  0.1367
 9178TIP3    H149025   1.417   0.693  14.579  0.2869 -1.8626 -0.3281
 9178TIP3    H249026   1.547   0.726  14.649 -0.8317  1.2187  0.3878
 9179TIP3   OH249027   6.001   2.209   3.842  0.6199  0.2055 -0.5453
 9179TIP3    H149028   6.002   2.123   3.800  2.8555 -0.5459  0.9528
 9179TIP3    H249029   6.066   2.261   3.794 -1.2329  1.3278 -1.9077
 9180TIP3   OH249030   3.231   3.941   4.685 -0.2535  0.2492  0.5406
 9180TIP3    H149031   3.287   4.005   4.640 -1.5658  0.9794 -0.0626
 9180TIP3    H249032   3.232   3.864   4.628  1.0071 -0.1417  1.0717
 9181TIP3   OH249033   3.306   0.462  13.630  0.0798  0.1224  0.3742
 9181TIP3    H149034   3.215   0.434  13.622  0.6139 -1.5260 -0.2560
 9181TIP3    H249035   3.324   0.512  13.550  0.0803 -0.6510 -0.1212
 9182TIP3   OH249036   2.408   1.501   4.034 -0.0260 -0.6857  0.4685
 9182TIP3    H149037   2.317   1.494   4.004  0.0807  0.4800 -0.1567
 9182TIP3    H249038   2.460   1.504   3.953  0.5347 -0.8666  0.8179
 9183TIP3   OH249039   3.306   5.575   1.763 -0.2166 -0.0373  0.4289
 9183TIP3    H149040   3.375   5.580   1.830 -0.2682 -2.1334  0.6689
 9183TIP3    H249041   3.269   5.488   1.773 -1.6039  0.3634 -1.0055
 9184TIP3   OH249042   0.199   3.927  17.037 -0.2882  0.0352  0.2588
 9184TIP3    H149043   0.108   3.935  17.010  0.3042 -2.7061 -3.0227
 9184TIP3    H249044   0.221   3.835  17.021  2.6920  0.3175  2.2184
 9185TIP3   OH249045   5.521   3.306   1.763 -0.1943  0.3468 -0.3846
 9185TIP3    H149046   5.542   3.214   1.777  2.1972  0.9421  0.1588
 9185TIP3    H249047   5.557   3.351   1.840 -0.2917  1.8542 -1.1962
 9186TIP3   OH249048   3.985   6.304  17.177  0.8335  0.1222  0.2308
 9186TIP3    H149049   3.970   6.372  17.112 -2.0484  0.0983  0.7894
 9186TIP3    H249050   4.046   6.243  17.135  0.2242  0.9019 -1.8493
 9187TIP3   OH249051   0.274   4.720  11.846 -0.7276 -0.3255 -0.1247
 9187TIP3    H149052   0.325   4.661  11.901 -1.0516 -0.7258 -0.2490
 9187TIP3    H249053   0.325   4.801  11.843 -0.9502 -0.1153  1.1826
 9188TIP3   OH249054   5.321   3.932   4.934  0.0805 -0.3741  0.4582
 9188TIP3    H149055   5.258   3.927   5.007  0.6022 -1.7070  0.8206
 9188TIP3    H249056   5.336   3.841   4.909  1.8940 -0.0645  0.3876
 9189TIP3   OH249057   1.995   5.983   5.439  0.3301  0.0535 -0.5038
 9189TIP3    H149058   2.070   6.019   5.485  0.1428 -0.1849 -0.0010
 9189TIP3    H249059   2.013   5.889   5.435 -0.4593 -0.1585  0.6145
 9190TIP3   OH249060   4.040   2.894   5.826  0.1696  0.1136  0.0757
 9190TIP3    H149061   4.079   2.815   5.788  1.1330  0.0378  1.1995
 9190TIP3    H249062   3.946   2.884   5.809  0.2120 -1.5389  0.6680
 9191TIP3   OH249063   5.641   5.519   5.529  0.5959  0.1702 -0.0980
 9191TIP3    H149064   5.681   5.565   5.455 -3.7716 -0.5208 -3.0265
 9191TIP3    H249065   5.605   5.589   5.584  3.0729  0.6370  1.0237
 9192TIP3   OH249066   6.170   3.188   3.773  0.2924  0.2879  0.2364
 9192TIP3    H149067   6.235   3.133   3.817 -0.4108 -0.3922  0.4451
 9192TIP3    H249068   6.198   3.278   3.790  0.7595  0.0063  0.9447
 9193TIP3   OH249069   3.748   5.801  12.842 -0.3443  0.3420 -0.3102
 9193TIP3    H149070   3.722   5.731  12.902 -0.9116  0.2411 -0.6600
 9193TIP3    H249071   3.843   5.797  12.838 -0.5092 -2.7281 -3.0531
 9194TIP3   OH249072   4.157   0.575   1.246  0.1392  0.8279  0.0373
 9194TIP3    H149073   4.211   0.505   1.208 -0.6273 -0.0995  0.6240
 9194TIP3    H249074   4.205   0.603   1.324  0.4027  0.8980 -0.1487
 9195TIP3   OH249075   3.968   5.229  10.423  0.1492  0.1830 -0.0678
 9195TIP3    H149076   3.892   5.204  10.476  1.4710 -1.8110  0.9208
 9195TIP3    H249077   3.983   5.155  10.366 -0.0615  1.5440 -1.9288
 9196TIP3   OH249078   0.101   4.315  16.221 -0.1005 -0.3574  0.5834
 9196TIP3    H149079   0.033   4.251  16.242 -0.0281  0.1222  2.4076
 9196TIP3    H249080   0.182   4.277  16.257  0.6170 -0.8929 -1.5045
 9197TIP3   OH249081   0.225   2.918  13.364 -0.5985  0.0758 -0.1370
 9197TIP3    H149082   0.193   2.859  13.432  0.8996  1.1271  1.5482
 9197TIP3    H249083   0.205   3.006  13.397  1.3882  0.6489 -0.3728
 9198TIP3   OH249084   3.528   6.294  14.535  0.1891  0.3882  0.5424
 9198TIP3    H149085   3.470   6.226  14.569 -2.8286  2.8167  0.4684
 9198TIP3    H249086   3.591   6.247  14.481 -3.7463 -2.0878 -2.1242
 9199TIP3   OH249087   4.093   6.642   5.776  0.7635 -0.5897  0.3651
 9199TIP3    H149088   4.019   6.699   5.795  1.0130  0.2163 -1.0148
 9199TIP3    H249089   4.159   6.699   5.737 -0.0296 -2.2074 -3.6741
 9200TIP3   OH249090   4.594   1.081  13.648 -0.0232 -1.0161 -0.1919
 9200TIP3    H149091   4.525   1.021  13.619  1.0891 -2.2955 -0.2586
 9200TIP3    H249092   4.548   1.162  13.669 -1.6719 -2.1056  0.5693
 9201TIP3   OH249093   1.396   4.792  13.951 -0.3745  0.1195  0.2309
 9201TIP3    H149094   1.446   4.820  14.028  2.1518 -0.5974 -1.1099
 9201TIP3    H249095   1.410   4.861  13.887 -1.5170  0.1374 -0.0140
 9202TIP3   OH249096   2.310   1.030  16.031  0.0353 -0.4982  0.2289
 9202TIP3    H149097   2.377   1.095  16.056  1.0132 -1.7654  0.9342
 9202TIP3    H249098   2.273   1.000  16.114 -2.4095  1.1786 -0.1943
 9203TIP3   OH249099   2.817   1.103  13.332  0.0879 -0.1996 -0.3957
 9203TIP3    H149100   2.754   1.031  13.337 -0.4760  0.2958 -0.3407
 9203TIP3    H249101   2.858   1.093  13.246  1.1303 -1.5106  0.2218
 9204TIP3   OH249102   3.365   1.628  12.423  1.2793 -0.7483 -0.6129
 9204TIP3    H149103   3.305   1.635  12.349 -1.3322 -3.1768  1.1642
 9204TIP3    H249104   3.342   1.702  12.479 -1.1738 -2.4698  0.7544
 9205TIP3   OH249105   3.255   2.301   1.044 -0.2808 -0.4135 -0.1772
 9205TIP3    H149106   3.161   2.286   1.041 -0.8491  2.8904 -0.5038
 9205TIP3    H249107   3.290   2.221   1.084 -3.1173 -1.9756 -0.6647
 9206TIP3   OH249108   3.953   6.296   3.357  0.2305 -0.0742  0.2880
 9206TIP3    H149109   3.977   6.385   3.382  2.1533 -0.4832 -0.0190
 9206TIP3    H249110   3.874   6.307   3.303  1.8194  1.6748 -1.7915
 9207TIP3   OH249111   1.370   5.493  12.332  0.5324  0.6658  0.1915
 9207TIP3    H149112   1.314   5.423  12.299 -0.9996  1.2819  1.4431
 9207TIP3    H249113   1.456   5.474  12.294  0.6795 -3.1146  2.1519
 9208TIP3   OH249114   6.810   6.021  14.246 -0.0236 -0.3950 -0.5570
 9208TIP3    H149115   6.772   6.029  14.158 -0.5139 -2.3194 -0.5482
 9208TIP3    H249116   6.765   5.945  14.284  3.1336 -2.1300 -0.1679
 9209TIP3   OH249117   0.756   6.353   6.202  0.9708 -0.0259  0.6464
 9209TIP3    H149118   0.730   6.282   6.259 -2.6608  0.1730 -0.6242
 9209TIP3    H249119   0.769   6.312   6.116 -1.6468  0.8544 -0.2118
 9210TIP3   OH249120   3.501   1.015  11.092 -0.5595  0.4259 -0.0747
 9210TIP3    H149121   3.525   1.031  11.001  1.3017 -1.2146  0.0917
 9210TIP3    H249122   3.487   0.921  11.097 -1.3063  0.5882  1.1983
 9211TIP3   OH249123   5.176   2.764  13.333  0.2955  0.6580 -0.7162
 9211TIP3    H149124   5.231   2.728  13.263 -0.1327 -1.0699 -0.1953
 9211TIP3    H249125   5.087   2.753  13.301  0.0957 -0.1808  0.0983
 9212TIP3   OH249126   2.899   0.208   5.818  0.2830  0.2657 -0.3511
 9212TIP3    H149127   2.987   0.216   5.855  0.2673  0.3706 -0.3369
 9212TIP3    H249128   2.913   0.202   5.724  0.3600 -0.5700 -0.2898
 9213TIP3   OH249129   1.551   0.805   0.031  0.2913  0.2213 -0.0443
 9213TIP3    H149130   1.487   0.757  -0.022  0.8328 -0.5412 -0.0084
 9213TIP3    H249131   1.575   0.744   0.100 -1.2465  1.5879  1.7538
 9214TIP3   OH249132   3.335   1.913   1.663 -0.3582 -1.1913  0.0786
 9214TIP3    H149133   3.351   1.995   1.618 -0.7259 -2.1406 -1.8550
 9214TIP3    H249134   3.239   1.907   1.668 -0.3142 -0.5568  2.0424
 9215TIP3   OH249135   1.101   5.869   3.070  0.4668 -0.1086  0.5184
 9215TIP3    H149136   1.164   5.888   3.139 -0.2453  2.8636  0.4033
 9215TIP3    H249137   1.116   5.936   3.004 -2.0639  0.0042 -0.0102
 9216TIP3   OH249138   3.941   5.972  10.421 -0.3389  0.7395 -0.1651
 9216TIP3    H149139   3.897   5.889  10.441  1.4162 -0.0693  0.3988
 9216TIP3    H249140   3.996   5.952  10.346 -0.5099  1.6080 -0.5249
 9217TIP3   OH249141   5.765   5.688   1.357 -0.0351 -0.1049 -0.4436
 9217TIP3    H149142   5.719   5.758   1.404 -0.5922 -0.5944 -0.2539
 9217TIP3    H249143   5.731   5.694   1.268 -1.3798 -1.2305 -0.0298
 9218TIP3   OH249144   2.995   0.659   2.923  0.0057 -0.2894 -0.2705
 9218TIP3    H149145   3.067   0.614   2.879  1.8393 -1.1488  3.4389
 9218TIP3    H249146   2.967   0.599   2.992 -2.5481  1.1336 -0.0134
 9219TIP3   OH249147   5.655   6.346  14.021 -0.3071 -0.4131  0.5758
 9219TIP3    H149148   5.631   6.271  14.075 -1.0502 -0.8626 -0.3767
 9219TIP3    H249149   5.737   6.378  14.060 -0.4326 -1.1951  1.4987
 9220TIP3   OH249150   0.748   1.449   3.483 -0.1456  0.0610  0.4694
 9220TIP3    H149151   0.685   1.382   3.455 -0.9410  0.4821  1.2249
 9220TIP3    H249152   0.739   1.451   3.578  1.3219 -0.1692  0.6215
 9221TIP3   OH249153   1.849   2.588   3.761  0.0370  0.2326  0.2031
 9221TIP3    H149154   1.799   2.647   3.816 -0.6188 -0.4392  0.3341
 9221TIP3    H249155   1.811   2.501   3.777  0.3596 -0.0858 -0.6988
 9222TIP3   OH249156   0.367   4.014   5.642  0.8111 -0.0200  0.0244
 9222TIP3    H149157   0.294   4.055   5.688  0.2646  0.0736 -0.8949
 9222TIP3    H249158   0.337   4.008   5.551  2.6341  1.6633 -0.7231
 9223TIP3   OH249159   1.292   4.090   0.666  0.2261 -0.0123  0.4574
 9223TIP3    H149160   1.268   4.182   0.682 -0.4849 -0.0642 -0.2962
 9223TIP3    H249161   1.385   4.086   0.686  0.8871  1.5053 -2.1028
 9224TIP3   OH249162   5.323   2.103   1.682 -0.1309 -0.2124 -0.3861
 9224TIP3    H149163   5.416   2.105   1.706 -0.2410 -0.4662  0.0676
 9224TIP3    H249164   5.300   2.194   1.668  0.3361 -0.1927 -1.0845
 9225TIP3   OH249165   3.797   4.745  12.956  0.1599  0.0984 -0.5239
 9225TIP3    H149166   3.883   4.728  12.994 -0.8727 -0.1870  1.7455
 9225TIP3    H249167   3.787   4.840  12.960  0.2334  0.1051 -0.4971
 9226TIP3   OH249168   2.772   2.341  12.186  0.2639 -0.1100 -0.6439
 9226TIP3    H149169   2.814   2.365  12.269 -0.0013  1.1100 -0.8469
 9226TIP3    H249170   2.809   2.401  12.122 -1.2904  0.5716 -0.9449
 9227TIP3   OH249171   0.203   0.280  16.340  0.4225  0.1025 -0.4055
 9227TIP3    H149172   0.193   0.215  16.409 -1.8148  1.2495  0.4206
 9227TIP3    H249173   0.216   0.363  16.386 -1.1255  0.8894 -1.3246
 9228TIP3   OH249174   3.233   0.436  11.046  0.1048  0.7999  0.2937
 9228TIP3    H149175   3.148   0.398  11.023  0.4665 -0.3755  0.8231
 9228TIP3    H249176   3.294   0.396  10.984  0.8389 -1.2177  2.2179
 9229TIP3   OH249177   6.773   6.255   1.552  0.1542 -0.1158  0.0194
 9229TIP3    H149178   6.814   6.191   1.610 -1.2125  0.3773  1.5688
 9229TIP3    H249179   6.835   6.328   1.549  0.8572 -0.7214 -0.2381
 9230TIP3   OH249180   0.182   3.109   1.496 -0.1632 -0.5172  0.4010
 9230TIP3    H149181   0.109   3.048   1.514 -1.0257  0.8287  1.6068
 9230TIP3    H249182   0.202   3.096   1.404 -0.7373 -2.2028  0.4904
 9231TIP3   OH249183   6.196   4.140   3.511 -0.1716  0.0800  0.2130
 9231TIP3    H149184   6.235   4.226   3.497 -0.1706 -0.0359 -0.5109
 9231TIP3    H249185   6.198   4.128   3.606  1.6391  0.0130  0.1677
 9232TIP3   OH249186   0.750   0.211   0.598 -0.2438  0.3230 -0.3282
 9232TIP3    H149187   0.830   0.189   0.551 -0.5275 -0.1397 -0.6094
 9232TIP3    H249188   0.778   0.226   0.688  0.2631  0.9261 -0.5874
 9233TIP3   OH249189   6.182   4.333   0.594 -0.2080 -0.1968 -0.0980
 9233TIP3    H149190   6.251   4.354   0.531 -0.7670 -0.6727 -0.8711
 9233TIP3    H249191   6.187   4.404   0.659 -0.2237  0.7970 -1.1621
 9234TIP3   OH249192   1.720   2.714  15.264 -0.5568  0.5185 -0.3174
 9234TIP3    H149193   1.751   2.798  15.230  1.4168 -0.4928 -1.0917
 9234TIP3    H249194   1.791   2.684  15.321 -0.5976 -1.3287 -1.2191
 9235TIP3   OH249195   3.235   3.346   5.004  0.4522  0.3765  0.1018
 9235TIP3    H149196   3.145   3.378   4.998 -0.1490 -0.8655  1.8059
 9235TIP3    H249197   3.240   3.307   5.092  3.6223  3.3294  1.3351
 9236TIP3   OH249198   5.523   4.671  17.107  0.3853  0.1612  0.1694
 9236TIP3    H149199   5.477   4.669  17.191 -1.1540 -1.1015 -0.6695
 9236TIP3    H249200   5.494   4.752  17.066 -2.7416 -1.5779 -1.2052
 9237TIP3   OH249201   4.472   0.557  14.675  0.0857  0.3928  0.3034
 9237TIP3    H149202   4.465   0.492  14.604  1.8121 -0.6478  1.0459
 9237TIP3    H249203   4.474   0.641  14.630 -1.4206 -0.0863 -0.7264
 9238TIP3   OH249204   3.813   3.476  15.414 -0.0243 -0.5393  0.5299
 9238TIP3    H149205   3.864   3.532  15.356 -1.1464  0.6117  0.6435
 9238TIP3    H249206   3.733   3.525  15.432  0.0756 -1.1045  2.6541
 9239TIP3   OH249207   6.194   4.302   2.612  0.0421  0.0166  0.2816
 9239TIP3    H149208   6.190   4.359   2.689  1.0960  2.3286 -1.2969
 9239TIP3    H249209   6.103   4.291   2.586 -0.3304 -0.8608  1.8698
 9240TIP3   OH249210   1.677   0.176  11.505 -0.3380 -0.4530  0.0258
 9240TIP3    H149211   1.692   0.259  11.459 -0.0632 -0.9173 -0.7420
 9240TIP3    H249212   1.625   0.200  11.581  0.2439  0.5141  0.1325
 9241TIP3   OH249213   2.011   1.026   5.920  0.3564  0.1873  0.5804
 9241TIP3    H149214   2.038   1.059   5.835  0.1678 -0.2785  0.3364
 9241TIP3    H249215   1.953   1.093   5.955  0.2788  0.2899  0.2534
 9242TIP3   OH249216   0.246   4.961  15.973 -0.3642 -1.0618  0.3182
 9242TIP3    H149217   0.255   4.883  15.919 -0.2773 -0.3511 -0.7211
 9242TIP3    H249218   0.335   4.995  15.981 -0.5072 -0.6230  0.0728
 9243TIP3   OH249219   2.527   5.402  11.257  0.0028  0.2888 -0.2845
 9243TIP3    H149220   2.435   5.382  11.276  0.3390 -0.1342  0.9626
 9243TIP3    H249221   2.538   5.492  11.285 -0.1898  0.5639 -1.0659
 9244TIP3   OH249222   6.376   1.908   3.158  0.8498 -0.2066 -0.5780
 9244TIP3    H149223   6.419   1.864   3.085  2.0368 -0.4071  0.2323
 9244TIP3    H249224   6.446   1.954   3.204  0.1540 -0.2740  0.5792
 9245TIP3   OH249225   0.296   6.137  12.808 -0.4793 -0.0107 -0.0327
 9245TIP3    H149226   0.261   6.180  12.886 -0.2467  1.6540 -0.8285
 9245TIP3    H249227   0.391   6.135  12.822 -0.6494 -2.4563  1.0825
 9246TIP3   OH249228   2.723   5.815   5.060 -0.0914 -0.0641  0.3565
 9246TIP3    H149229   2.739   5.739   5.004  1.0307  0.6684 -0.3602
 9246TIP3    H249230   2.631   5.809   5.084 -0.6917 -0.2501 -1.8458
 9247TIP3   OH249231   3.240   5.642   2.308  0.2999  0.3634 -0.2498
 9247TIP3    H149232   3.304   5.713   2.315  0.1867  0.4696 -0.3093
 9247TIP3    H249233   3.155   5.685   2.309  0.2549  0.2947 -1.2922
 9248TIP3   OH249234   4.729   2.801   1.730 -0.1259  0.5469  0.3398
 9248TIP3    H149235   4.655   2.742   1.745  1.1859 -1.1523  0.2348
 9248TIP3    H249236   4.800   2.765   1.784  0.6262  2.1639  0.4573
 9249TIP3   OH249237   5.092   6.470   2.354  0.5367  0.1263 -0.3617
 9249TIP3    H149238   5.024   6.488   2.419  0.2379 -1.2461 -0.2717
 9249TIP3    H249239   5.159   6.421   2.402  0.2685 -0.9791 -1.0983
 9250TIP3   OH249240   5.729   6.466   4.399  0.2263 -1.0272  0.0989
 9250TIP3    H149241   5.672   6.475   4.476  2.5061 -0.7600  1.8393
 9250TIP3    H249242   5.750   6.372   4.396  0.4654 -0.9732  0.0725
 9251TIP3   OH249243   2.288   1.488  12.449  0.7095 -0.1046  0.5752
 9251TIP3    H149244   2.378   1.484  12.417  1.1103 -1.2651  1.8341
 9251TIP3    H249245   2.295   1.533  12.533 -0.1808  1.7727 -0.3225
 9252TIP3   OH249246   5.030   2.519  15.794  0.0516  0.0161  0.1463
 9252TIP3    H149247   4.984   2.456  15.738  1.2789 -1.5828  0.9076
 9252TIP3    H249248   5.086   2.466  15.850 -0.5363  1.6313  2.3502
 9253TIP3   OH249249   5.852   3.990   5.251  0.5384  0.0773  0.2562
 9253TIP3    H149250   5.924   3.955   5.198  0.4105  1.3664 -0.8104
 9253TIP3    H249251   5.778   3.932   5.232  0.4861  0.5430 -1.0308
 9254TIP3   OH249252   1.592   4.678  10.912  0.2608 -0.4570 -0.3331
 9254TIP3    H149253   1.505   4.706  10.884  0.4217  0.3888  0.0169
 9254TIP3    H249254   1.585   4.582  10.916 -0.0243 -0.5488 -2.3734
 9255TIP3   OH249255   0.758   2.310  15.424 -0.0305 -0.7089 -0.5748
 9255TIP3    H149256   0.720   2.374  15.485  0.5221  0.9960 -1.9849
 9255TIP3    H249257   0.825   2.265  15.475  2.4218  2.6741 -0.6597
 9256TIP3   OH249258   1.037   0.085  13.094 -0.0432  0.0743 -0.0869
 9256TIP3    H149259   1.085   0.011  13.057  1.2667  0.3529  0.9717
 9256TIP3    H249260   0.999   0.051  13.175  0.0229  0.3806  0.0736
 9257TIP3   OH249261   5.974   6.063   4.638  0.5715  0.5271  0.6099
 9257TIP3    H149262   6.011   5.975   4.650  0.7728  0.0968 -2.7342
 9257TIP3    H249263   6.047   6.122   4.655  0.9352 -0.0285  0.9932
 9258TIP3   OH249264   1.444   0.875  11.962 -0.8021 -0.0576 -0.4901
 9258TIP3    H149265   1.442   0.847  11.870  1.2551 -2.6275  0.1951
 9258TIP3    H249266   1.399   0.806  12.009  1.1139 -0.4546  0.8191
 9259TIP3   OH249267   3.116   3.798   4.304  0.3532 -0.3145 -0.3620
 9259TIP3    H149268   3.192   3.783   4.361 -0.1420  0.2055  0.4453
 9259TIP3    H249269   3.050   3.736   4.336  0.5315 -0.9894 -1.2677
 9260TIP3   OH249270   4.629   4.032  13.345  0.1038  0.1057  0.1715
 9260TIP3    H149271   4.668   4.086  13.413 -0.3691 -0.9691  1.3221
 9260TIP3    H249272   4.703   3.986  13.305  0.5923  2.1517 -1.3334
 9261TIP3   OH249273   1.386   5.930  11.532 -0.1743  0.0858 -0.1685
 9261TIP3    H149274   1.339   6.010  11.557  0.3612  0.8452 -1.5694
 9261TIP3    H249275   1.317   5.863  11.527 -0.8601  0.8046 -0.5016
 9262TIP3   OH249276   5.321   6.385  15.424 -0.0923  0.2959  0.3602
 9262TIP3    H149277   5.366   6.447  15.366 -0.5998  0.7468  0.4446
 9262TIP3    H249278   5.378   6.379  15.501  0.5413 -0.2469 -0.1534
 9263TIP3   OH249279   1.355   3.544   4.540 -0.2492 -0.0092  0.1636
 9263TIP3    H149280   1.312   3.462   4.563 -0.2821  0.0554  0.3305
 9263TIP3    H249281   1.383   3.532   4.449  1.8843 -1.0952  0.9331
 9264TIP3   OH249282   0.569   2.204   0.588 -0.0510 -0.5783 -0.6879
 9264TIP3    H149283   0.561   2.112   0.562  0.1036 -0.6122 -0.6172
 9264TIP3    H249284   0.636   2.204   0.656  1.4577 -0.1332 -2.1299
 9265TIP3   OH249285   4.422   4.102   3.673 -0.4826 -0.2955  0.2457
 9265TIP3    H149286   4.512   4.119   3.645 -0.3999 -1.7291 -0.4165
 9265TIP3    H249287   4.409   4.009   3.653 -1.5507 -0.5017  1.8634
 9266TIP3   OH249288   6.519   5.786  12.972 -1.0921  0.5953 -0.5708
 9266TIP3    H149289   6.563   5.702  12.985  0.5586  1.7020  1.1149
 9266TIP3    H249290   6.429   5.770  13.002  0.0415  0.2973  2.8079
 9267TIP3   OH249291   3.199   3.045   6.560  0.2237  0.3978 -0.9307
 9267TIP3    H149292   3.152   3.110   6.612 -0.4939 -1.3855  0.7218
 9267TIP3    H249293   3.187   3.073   6.469 -1.7713  1.4554 -0.3658
 9268TIP3   OH249294   5.795   1.092   2.311  0.5139 -0.0120  0.3244
 9268TIP3    H149295   5.845   1.090   2.392  0.8467  0.8827  0.1443
 9268TIP3    H249296   5.821   1.013   2.264 -0.6928 -1.2477  1.6889
 9269TIP3   OH249297   0.666   2.387   2.966  0.3568 -0.1968  0.5644
 9269TIP3    H149298   0.600   2.434   3.016  1.2502 -0.6422  2.2071
 9269TIP3    H249299   0.630   2.382   2.877 -0.2163  2.6584  0.5698
 9270TIP3   OH249300   6.784   4.938  11.171  0.4103  0.0723 -0.8069
 9270TIP3    H149301   6.869   4.897  11.156  0.1840 -0.6879 -0.0180
 9270TIP3    H249302   6.749   4.952  11.083  1.1676  0.0221 -1.1255
 9271TIP3   OH249303   0.739   1.463   6.242  0.4225  0.5368 -0.7310
 9271TIP3    H149304   0.774   1.550   6.224  2.3868 -0.0392  0.1730
 9271TIP3    H249305   0.755   1.449   6.335 -0.2836 -0.6235 -0.7725
 9272TIP3   OH249306   3.037   3.755  12.904 -0.0615 -0.5177  0.3213
 9272TIP3    H149307   2.988   3.699  12.964  1.2828 -2.0219  0.0611
 9272TIP3    H249308   3.109   3.789  12.956  0.1449 -0.4689  0.0058
 9273TIP3   OH249309   5.875   3.349  13.243 -0.9792  0.0025 -0.2503
 9273TIP3    H149310   5.871   3.325  13.335 -1.3858 -2.6124 -0.9137
 9273TIP3    H249311   5.940   3.291  13.205 -1.3923  0.4867 -1.7706
 9274TIP3   OH249312   4.126   2.210  15.042 -0.1722  0.4009 -0.5913
 9274TIP3    H149313   4.174   2.283  15.082  0.1174  0.1978 -0.5587
 9274TIP3    H249314   4.170   2.132  15.077 -1.2453  0.1971  0.3253
 9275TIP3   OH249315   3.120   5.764  16.012 -0.1683  0.6082  0.3156
 9275TIP3    H149316   3.056   5.835  16.007  2.1739  2.9484  1.7618
 9275TIP3    H249317   3.186   5.786  15.946  0.5764 -0.2423  0.7608
 9276TIP3   OH249318   3.591   1.482  12.907 -0.4098  0.0602 -0.3606
 9276TIP3    H149319   3.601   1.445  12.820 -0.1502 -0.1602 -0.2356
 9276TIP3    H249320   3.519   1.432  12.946 -0.0278 -0.3479 -0.1756
 9277TIP3   OH249321   2.382   5.835   4.146  0.2602 -0.2477  0.8369
 9277TIP3    H149322   2.373   5.773   4.073  0.1181 -1.2804  1.7084
 9277TIP3    H249323   2.462   5.808   4.191 -0.0233 -0.0692  1.4654
 9278TIP3   OH249324   0.629   2.239  12.910  0.1398  0.4148  0.1170
 9278TIP3    H149325   0.565   2.301  12.873  0.5260  0.5519 -0.3334
 9278TIP3    H249326   0.602   2.229  13.001 -0.5992  0.3785 -0.0954
 9279TIP3   OH249327   1.441   6.653   5.706 -0.7947  0.1092 -0.5322
 9279TIP3    H149328   1.409   6.619   5.790  1.1464  0.0059  0.2063
 9279TIP3    H249329   1.411   6.589   5.641 -1.8048 -0.1264  0.1630
 9280TIP3   OH249330   5.078   0.491   1.518  0.2442  0.1407 -0.1897
 9280TIP3    H149331   5.055   0.509   1.609 -0.6027  1.0610 -0.5798
 9280TIP3    H249332   5.060   0.397   1.507 -0.0211  0.1113  0.4859
 9281TIP3   OH249333   4.388   3.116  13.542  0.4770 -0.0575 -0.1797
 9281TIP3    H149334   4.437   3.061  13.481  0.9995  0.5651 -0.3178
 9281TIP3    H249335   4.314   3.061  13.569  0.6372 -0.5942 -0.8185
 9282TIP3   OH249336   2.788   2.729   3.012 -0.6608 -0.0367 -0.0625
 9282TIP3    H149337   2.850   2.698   3.078 -2.0407 -1.3378  0.6440
 9282TIP3    H249338   2.759   2.650   2.967 -2.6732  0.4067  0.3931
 9283TIP3   OH249339   5.590   4.498   5.738  0.2783 -0.4474  0.1091
 9283TIP3    H149340   5.597   4.492   5.834 -0.4171 -0.0429  0.1899
 9283TIP3    H249341   5.644   4.574   5.716 -0.0972 -0.1301  0.2589
 9284TIP3   OH249342   4.158   6.556   1.184  0.3824 -0.0870 -0.0757
 9284TIP3    H149343   4.247   6.583   1.206  0.1654 -1.2697  2.4291
 9284TIP3    H249344   4.149   6.469   1.223 -1.8231 -0.0423 -0.4208
 9285TIP3   OH249345   3.582   6.135   0.561 -0.2756 -0.3105  0.2507
 9285TIP3    H149346   3.655   6.196   0.574 -1.2977  1.1936 -0.8942
 9285TIP3    H249347   3.588   6.110   0.469 -0.7530 -0.7800  0.3464
 9286TIP3   OH249348   4.573   0.615  15.537  0.3301  0.3146 -0.0283
 9286TIP3    H149349   4.633   0.550  15.574 -1.4994 -0.0479  2.4413
 9286TIP3    H249350   4.539   0.573  15.458 -0.2353 -1.4238  1.1017
 9287TIP3   OH249351   1.363   0.983   3.742  0.5521  0.3019 -0.0425
 9287TIP3    H149352   1.413   0.937   3.674  1.0419  0.4517  0.2128
 9287TIP3    H249353   1.380   1.075   3.726  0.8212  0.3305  0.3998
 9288TIP3   OH249354   0.980   0.144  16.852 -0.2476 -0.1487 -0.3304
 9288TIP3    H149355   1.041   0.131  16.779  0.1868  2.2863 -0.4575
 9288TIP3    H249356   0.902   0.181  16.812 -0.5591 -0.1795  0.2485
 9289TIP3   OH249357   1.722   1.339   0.846  0.5077 -0.3551  0.3231
 9289TIP3    H149358   1.721   1.415   0.787 -2.0633  0.1169  0.9268
 9289TIP3    H249359   1.674   1.271   0.799  2.4464 -1.5266 -0.0356
 9290TIP3   OH249360   2.547   5.659  16.463 -0.0881 -0.5494 -0.6890
 9290TIP3    H149361   2.576   5.656  16.371 -1.9339  2.2542 -1.4361
 9290TIP3    H249362   2.453   5.677  16.458 -0.2706 -0.6697  1.7560
 9291TIP3   OH249363   2.562   4.176  14.601  0.0254  0.6722 -0.7461
 9291TIP3    H149364   2.568   4.251  14.541 -0.6891  0.0046 -1.6613
 9291TIP3    H249365   2.469   4.167  14.619  0.3348  1.6772  1.5281
 9292TIP3   OH249366   0.889   6.324   4.301  0.5271  0.2872 -0.0956
 9292TIP3    H149367   0.805   6.295   4.266  1.6158 -2.1845 -0.8200
 9292TIP3    H249368   0.881   6.419   4.311 -1.6852  0.3118 -1.9233
 9293TIP3   OH249369   2.626   5.405   0.089  0.1371 -0.2282 -0.3571
 9293TIP3    H149370   2.624   5.335   0.154  0.0663  0.4429  0.3653
 9293TIP3    H249371   2.570   5.473   0.126 -0.5585 -0.1646 -1.4973
 9294TIP3   OH249372   0.583   4.273  12.294  0.2319 -0.2288 -0.3021
 9294TIP3    H149373   0.490   4.271  12.272  0.0710 -0.0208  0.3399
 9294TIP3    H249374   0.627   4.296  12.212 -0.4025  1.1656 -0.2725
 9295TIP3   OH249375   3.310   3.301   0.144  0.3153  0.4499  0.0168
 9295TIP3    H149376   3.387   3.302   0.200 -0.4437 -0.4886  1.1222
 9295TIP3    H249377   3.242   3.345   0.195 -0.1266  0.4589 -0.5667
 9296TIP3   OH249378   2.246   2.908   0.117  0.1408 -0.1249 -0.6815
 9296TIP3    H149379   2.329   2.944   0.085 -0.3512  2.5231  0.8618
 9296TIP3    H249380   2.229   2.955   0.198 -2.2732 -1.5152 -0.3249
 9297TIP3   OH249381   0.929   6.222  14.400 -0.5690 -0.0880 -0.1054
 9297TIP3    H149382   0.889   6.139  14.376 -0.1793 -0.1479 -0.5439
 9297TIP3    H249383   0.971   6.254  14.320 -0.1592  0.2127  0.2213
 9298TIP3   OH249384   4.040   1.203   4.223 -0.2398  0.2196  0.3197
 9298TIP3    H149385   3.965   1.209   4.283 -1.0169 -0.6709 -0.5372
 9298TIP3    H249386   4.000   1.197   4.136  0.8838  1.8835 -0.3310
 9299TIP3   OH249387   4.997   4.375   1.931 -0.1932  0.0095  0.0202
 9299TIP3    H149388   5.082   4.343   1.963  0.3791  0.8736 -0.5985
 9299TIP3    H249389   4.962   4.428   2.003 -0.6700 -1.1691  0.6549
 9300TIP3   OH249390   3.972   0.152  16.907  0.1208  0.0730 -0.2577
 9300TIP3    H149391   4.033   0.121  16.840  0.5911 -1.5990  0.9165
 9300TIP3    H249392   3.890   0.106  16.889  1.1469 -2.8224  2.1773
 9301TIP3   OH249393   5.778   3.658   2.786  0.5114  0.1980  0.0729
 9301TIP3    H149394   5.808   3.618   2.704  1.9731 -1.0407  1.1871
 9301TIP3    H249395   5.750   3.584   2.840 -1.1657  1.0699  0.4191
 9302TIP3   OH249396   2.522   1.724  16.701  0.4005 -0.6070  0.3499
 9302TIP3    H149397   2.464   1.770  16.640  1.8172  0.0989 -0.4839
 9302TIP3    H249398   2.549   1.791  16.763  1.4357 -0.6128 -0.0940
 9303TIP3   OH249399   4.486   3.702  16.268  0.9364  0.1552 -0.1198
 9303TIP3    H149400   4.413   3.746  16.311  0.0051 -1.1715 -0.3399
 9303TIP3    H249401   4.564   3.745  16.304  0.0441  2.3591 -0.7373
 9304TIP3   OH249402   2.277   4.575  14.455  0.3607 -0.4578  0.1723
 9304TIP3    H149403   2.360   4.623  14.458 -0.4975  1.0844 -0.5748
 9304TIP3    H249404   2.240   4.585  14.542 -0.3963  1.2992 -0.3336
 9305TIP3   OH249405   4.869   4.100   2.688 -0.1486  0.2759  0.6177
 9305TIP3    H149406   4.924   4.176   2.707  0.5725  0.0095 -0.3907
 9305TIP3    H249407   4.879   4.043   2.765 -0.3493  0.9959  1.1821
 9306TIP3   OH249408   4.109   3.393   3.402 -0.6855  0.2132  0.5069
 9306TIP3    H149409   4.145   3.475   3.369  0.5345 -1.3912 -2.2928
 9306TIP3    H249410   4.030   3.378   3.351 -1.2385 -0.0839  1.4197
 9307TIP3   OH249411   2.887   3.145   1.062  0.0588 -0.0932  0.0549
 9307TIP3    H149412   2.971   3.104   1.084 -0.9515 -1.4019  1.5508
 9307TIP3    H249413   2.897   3.236   1.092  1.1637 -0.0459 -0.3969
 9308TIP3   OH249414   4.454   6.624   3.959  0.2510 -0.1401  0.5068
 9308TIP3    H149415   4.502   6.670   4.028  1.9367 -1.6793  0.3955
 9308TIP3    H249416   4.505   6.641   3.880 -0.8477  0.3769 -0.0888
 9309TIP3   OH249417   1.013   4.377  13.209 -0.0665 -0.4428 -0.1554
 9309TIP3    H149418   1.023   4.471  13.221 -0.9430 -0.4941  1.0458
 9309TIP3    H249419   1.097   4.340  13.238 -1.4913 -0.4220  4.3709
 9310TIP3   OH249420   5.195   4.840  15.774  0.4893 -0.1245 -0.6072
 9310TIP3    H149421   5.227   4.760  15.817  2.9264  0.0314 -2.0943
 9310TIP3    H249422   5.149   4.809  15.696  0.3590 -0.1200 -0.5350
 9311TIP3   OH249423   6.165   6.092  13.703  0.2378  0.2056  0.5280
 9311TIP3    H149424   6.159   5.996  13.702 -1.7300  0.2967  0.6094
 9311TIP3    H249425   6.153   6.117  13.612  2.5533  0.3135  0.2320
 9312TIP3   OH249426   5.057   3.005  15.357 -0.3131  0.3250  0.5138
 9312TIP3    H149427   5.124   2.948  15.320 -1.3751 -0.6064  0.0214
 9312TIP3    H249428   5.104   3.058  15.422  1.1894  0.7010 -0.8576
 9313TIP3   OH249429   6.500   0.760   3.513 -0.1884 -0.0811 -0.2402
 9313TIP3    H149430   6.406   0.779   3.516 -0.0523  0.8367 -1.1768
 9313TIP3    H249431   6.510   0.679   3.561 -1.4864 -0.2545 -0.2395
 9314TIP3   OH249432   3.100   3.203   1.335  0.1320  0.8327 -0.4320
 9314TIP3    H149433   3.105   3.240   1.423 -1.5679  4.1980 -1.6470
 9314TIP3    H249434   3.190   3.200   1.304  0.5499  1.4372  0.7108
 9315TIP3   OH249435   5.372   5.588   0.251 -0.6024 -0.2922 -0.6617
 9315TIP3    H149436   5.446   5.607   0.194 -0.9552  2.1038 -0.3863
 9315TIP3    H249437   5.297   5.628   0.207 -1.0002  0.9400  1.0742
 9316TIP3   OH249438   0.120   5.135   2.515 -0.4900  0.3856 -0.2377
 9316TIP3    H149439   0.107   5.181   2.598 -1.1914 -0.5032  0.1419
 9316TIP3    H249440   0.112   5.043   2.536  1.6489  0.0115 -0.8672
 9317TIP3   OH249441   2.388   2.578   2.662 -0.0983 -0.3774  0.4788
 9317TIP3    H149442   2.321   2.616   2.605 -1.2742 -1.5848  1.0340
 9317TIP3    H249443   2.471   2.606   2.624 -0.8971  0.2197 -0.8505
 9318TIP3   OH249444   5.704   0.532  13.013 -0.1701 -0.0099  0.0303
 9318TIP3    H149445   5.620   0.496  12.984  0.2421 -2.1277  1.3331
 9318TIP3    H249446   5.682   0.592  13.083 -0.5587 -1.3959  1.1274
 9319TIP3   OH249447   5.150   2.521   4.275  0.3418  0.1589 -0.2611
 9319TIP3    H149448   5.064   2.502   4.313  0.4286 -2.2226 -1.1705
 9319TIP3    H249449   5.148   2.479   4.189  2.2930  0.4060 -0.4473
 9320TIP3   OH249450   1.325   2.533   2.819 -0.3296 -0.1391  0.0674
 9320TIP3    H149451   1.250   2.502   2.870  0.2110 -0.8052  0.4681
 9320TIP3    H249452   1.347   2.460   2.761  0.8310 -0.4661  0.8855
 9321TIP3   OH249453   3.687   4.478  16.651  0.5567 -0.1376 -0.2688
 9321TIP3    H149454   3.721   4.552  16.601  0.0308 -0.7163 -1.5177
 9321TIP3    H249455   3.701   4.502  16.743  0.5221  1.4385 -0.6553
 9322TIP3   OH249456   1.672   1.504   2.320 -0.0654 -0.3267 -0.1979
 9322TIP3    H149457   1.591   1.452   2.318 -0.5655  0.4625 -0.9136
 9322TIP3    H249458   1.715   1.478   2.402 -1.1893 -0.5352  0.3363
 9323TIP3   OH249459   0.342   2.150   5.543  0.1793  0.1964  0.7430
 9323TIP3    H149460   0.287   2.112   5.612 -1.3552  0.4226 -0.3283
 9323TIP3    H249461   0.309   2.239   5.532  2.3234  1.1612  1.7069
 9324TIP3   OH249462   6.798   2.059  15.452 -0.4783 -0.1359  0.0755
 9324TIP3    H149463   6.773   1.968  15.470 -0.2852 -0.3544 -0.7559
 9324TIP3    H249464   6.798   2.101  15.538  0.4172 -1.1638  0.5863
 9325TIP3   OH249465   5.363   3.981  11.926  0.0443  0.0975  0.2887
 9325TIP3    H149466   5.358   4.043  11.853  0.8230  0.6867  0.7208
 9325TIP3    H249467   5.354   3.895  11.885  0.8113  0.4050 -0.5469
 9326TIP3   OH249468   1.759   3.236  13.685  0.2731  0.0576 -0.6148
 9326TIP3    H149469   1.815   3.233  13.763 -1.0791  0.5501  0.3884
 9326TIP3    H249470   1.776   3.321  13.646 -0.9238  0.8606  0.5698
 9327TIP3   OH249471   4.810   3.483   4.367 -0.4851  0.1409  0.0330
 9327TIP3    H149472   4.804   3.392   4.339 -2.0053 -0.0023  0.7801
 9327TIP3    H249473   4.825   3.478   4.461 -0.3830  0.6775  0.0470
 9328TIP3   OH249474   0.755   5.845   0.671  0.0060  0.6356 -0.0288
 9328TIP3    H149475   0.774   5.826   0.762 -0.7962  1.5964  0.3418
 9328TIP3    H249476   0.769   5.761   0.625 -0.9647 -0.1898  1.1691
 9329TIP3   OH249477   5.070   6.539  14.236 -0.1311 -0.1355  0.0252
 9329TIP3    H149478   5.055   6.560  14.328  1.9474 -0.8554  0.5689
 9329TIP3    H249479   5.104   6.621  14.198  0.6352 -0.3081  0.3210
 9330TIP3   OH249480   2.363   3.307  11.359 -0.2055  0.0684 -0.0394
 9330TIP3    H149481   2.331   3.220  11.337 -0.8878  0.6637 -1.4903
 9330TIP3    H249482   2.291   3.366  11.335  0.7213  1.1345 -0.2590
 9331TIP3   OH249483   2.179   0.395   0.223 -0.5051  0.2294  0.1158
 9331TIP3    H149484   2.211   0.485   0.216  0.1103 -0.1189 -2.1063
 9331TIP3    H249485   2.150   0.373   0.134 -0.3393 -1.8844  0.5548
 9332TIP3   OH249486   0.516   0.524  11.747 -0.3045  0.6594 -0.0081
 9332TIP3    H149487   0.467   0.466  11.688 -1.1481 -1.1801  2.4028
 9332TIP3    H249488   0.458   0.535  11.822  1.7435  0.9488  1.5534
 9333TIP3   OH249489   0.006   4.882   2.498  0.0522 -0.9847 -0.3809
 9333TIP3    H149490   0.080   4.844   2.451  0.9209  0.7846 -0.4842
 9333TIP3    H249491  -0.063   4.889   2.432  0.1707 -1.5956 -0.5699
 9334TIP3   OH249492   2.778   4.865  14.423  0.3398  0.8053 -0.1831
 9334TIP3    H149493   2.781   4.945  14.370  3.7896 -0.5967 -2.2180
 9334TIP3    H249494   2.803   4.893  14.510 -1.7701  2.5024 -0.0859
 9335TIP3   OH249495   1.482   0.269   3.377 -1.2069  0.1183  0.0523
 9335TIP3    H149496   1.530   0.202   3.329 -0.5199  0.2053  0.6069
 9335TIP3    H249497   1.526   0.352   3.354 -1.2957  0.2346  0.2954
 9336TIP3   OH249498   4.004   0.049  15.804 -0.0133  0.2412 -0.1736
 9336TIP3    H149499   3.978   0.041  15.712 -2.4279 -0.0663  0.4916
 9336TIP3    H249500   3.977  -0.034  15.844 -0.0396  0.8175  1.0408
 9337TIP3   OH249501   5.544   4.068  14.203  0.1272 -0.0161  0.6695
 9337TIP3    H149502   5.525   3.992  14.149  0.5842 -0.0486  0.5478
 9337TIP3    H249503   5.460   4.093  14.240 -0.5004  1.0067 -1.3674
 9338TIP3   OH249504   6.755   2.654  12.313 -0.2532 -0.9554 -0.0483
 9338TIP3    H149505   6.682   2.715  12.318 -0.0286 -0.6826 -0.0242
 9338TIP3    H249506   6.766   2.622  12.403  0.6550  0.2053  0.2814
 9339TIP3   OH249507   0.098   1.645  15.496  0.4427  0.1971 -0.1225
 9339TIP3    H149508   0.159   1.659  15.424 -0.6529  2.2723 -0.6658
 9339TIP3    H249509   0.012   1.655  15.457 -0.3260 -3.2975  0.5149
 9340TIP3   OH249510   0.818   4.569  15.123 -0.3470  0.1977  0.2576
 9340TIP3    H149511   0.913   4.566  15.138 -0.3697  1.0480  0.6087
 9340TIP3    H249512   0.786   4.633  15.186 -1.0804  0.3600 -0.2738
 9341TIP3   OH249513   6.097   5.592  14.480 -0.2779  0.4682  0.2607
 9341TIP3    H149514   6.068   5.532  14.411 -0.6807 -0.6004  1.3286
 9341TIP3    H249515   6.159   5.651  14.437 -0.0561 -0.5763 -0.8725
 9342TIP3   OH249516   2.894   6.197   0.952  0.1982 -0.7615  0.0312
 9342TIP3    H149517   2.952   6.122   0.964  1.4883  0.0236 -1.2283
 9342TIP3    H249518   2.901   6.246   1.034  0.7755 -1.0413  0.1507
 9343TIP3   OH249519   0.209   6.026   2.464 -0.1001  0.2960 -1.2581
 9343TIP3    H149520   0.237   6.114   2.490 -0.7916  0.6264 -1.6314
 9343TIP3    H249521   0.119   6.037   2.435 -0.6532 -0.7998  0.0448
 9344TIP3   OH249522   6.581   3.968  16.590 -0.1966  0.3182 -0.2224
 9344TIP3    H149523   6.524   3.917  16.648  0.3379 -1.3130 -1.0788
 9344TIP3    H249524   6.668   3.961  16.629  0.0388 -0.1936 -0.8361
 9345TIP3   OH249525   2.914   2.784  15.093 -0.0207 -0.2744  0.1871
 9345TIP3    H149526   3.003   2.780  15.128  0.2399 -0.9262 -0.5489
 9345TIP3    H249527   2.914   2.722  15.020 -1.1406 -0.4339  0.3190
 9346TIP3   OH249528   2.960   2.318  13.881  0.2641  0.4764  0.0551
 9346TIP3    H149529   2.866   2.321  13.896  0.4524  0.9667  1.1652
 9346TIP3    H249530   2.989   2.409  13.890  0.6943  0.4913 -1.3101
 9347TIP3   OH249531   3.910   5.726   2.019  0.5146 -0.3903 -0.2492
 9347TIP3    H149532   3.837   5.788   2.027  0.3755 -0.7565  1.5552
 9347TIP3    H249533   3.987   5.777   2.043  0.2825 -1.1260  2.1874
 9348TIP3   OH249534   2.691   0.497   5.911  0.0381  0.0728  0.1272
 9348TIP3    H149535   2.769   0.535   5.870 -0.6015  0.4445 -0.7426
 9348TIP3    H249536   2.703   0.402   5.901 -0.0065  0.1542 -0.7170
 9349TIP3   OH249537   6.355   3.782   0.576  0.5561 -0.5064 -0.8213
 9349TIP3    H149538   6.309   3.700   0.594 -2.3617  1.3040  0.4116
 9349TIP3    H249539   6.434   3.778   0.630 -1.4548 -0.9095  2.2006
 9350TIP3   OH249540   2.412   2.037  13.698 -0.9720  0.2314  0.4710
 9350TIP3    H149541   2.387   1.966  13.756 -0.4951  0.6522  1.1967
 9350TIP3    H249542   2.381   2.116  13.741 -1.9331  0.4300 -0.5671
 9351TIP3   OH249543   1.237   1.027   2.142  0.5714 -1.0118 -0.2736
 9351TIP3    H149544   1.250   1.120   2.124 -1.5127 -1.1174 -2.5243
 9351TIP3    H249545   1.304   0.984   2.090  0.3259 -0.8631 -0.7143
 9352TIP3   OH249546   0.325   5.196  11.544 -0.0420  0.1744  0.6945
 9352TIP3    H149547   0.247   5.193  11.488  0.5439 -0.0469 -0.1286
 9352TIP3    H249548   0.300   5.253  11.617  0.2448  3.3439 -1.5418
 9353TIP3   OH249549   2.642   5.389   1.721 -0.2677  0.1285  0.2142
 9353TIP3    H149550   2.615   5.480   1.711  1.1459  0.3614 -1.7090
 9353TIP3    H249551   2.708   5.376   1.654  1.5302 -1.5628  2.2429
 9354TIP3   OH249552   1.509   0.004  16.491 -0.1649 -0.0639 -0.3182
 9354TIP3    H149553   1.530   0.072  16.556  1.1586  0.2550 -1.0497
 9354TIP3    H249554   1.431  -0.039  16.525  1.1530 -0.6500  2.0632
 9355TIP3   OH249555   6.815   4.199  13.412  0.4277  0.1730  0.3382
 9355TIP3    H149556   6.825   4.254  13.334 -1.2758  3.0284  2.0521
 9355TIP3    H249557   6.776   4.118  13.379  2.8335 -0.0192 -2.2219
 9356TIP3   OH249558   5.172   3.943  12.460  0.1556 -0.0042 -0.3828
 9356TIP3    H149559   5.244   3.943  12.398 -0.0173 -2.4432 -0.6273
 9356TIP3    H249560   5.094   3.926  12.407 -0.5994  2.3554 -0.0840
 9357TIP3   OH249561   4.850   2.070  13.548  0.1835 -0.9255 -0.4377
 9357TIP3    H149562   4.841   2.153  13.503 -0.8189  0.5183  2.3211
 9357TIP3    H249563   4.943   2.047  13.538  1.4705  2.6399  2.2580
 9358TIP3   OH249564   4.402   0.115   3.129 -0.1264 -0.0855  0.3314
 9358TIP3    H149565   4.488   0.076   3.145 -0.2134 -0.2399  0.4269
 9358TIP3    H249566   4.363   0.061   3.060 -0.8433 -1.0797  1.4928
 9359TIP3   OH249567   4.774   2.391  12.747  0.8009  0.0712 -0.4823
 9359TIP3    H149568   4.776   2.301  12.779 -0.0846  0.0963 -0.3496
 9359TIP3    H249569   4.866   2.414  12.734  1.0656 -0.5858  0.2214
 9360TIP3   OH249570   6.409   0.240  16.447  0.5877  0.1713  0.3226
 9360TIP3    H149571   6.315   0.245  16.430  0.2652  1.1005  2.2161
 9360TIP3    H249572   6.423   0.152  16.482  0.5322 -0.1914 -0.5617
 9361TIP3   OH249573   5.563   5.991   5.593 -0.6541  0.6862 -0.0314
 9361TIP3    H149574   5.565   6.087   5.600 -1.5408  0.6033  1.6041
 9361TIP3    H249575   5.552   5.961   5.683 -0.8388 -0.9525 -0.5911
 9362TIP3   OH249576   5.862   3.387  11.703  0.3341 -0.0572  0.0755
 9362TIP3    H149577   5.921   3.345  11.767 -1.5479  0.5029  2.2427
 9362TIP3    H249578   5.775   3.379  11.742 -0.4319  3.4554 -0.7055
 9363TIP3   OH249579   3.659   6.755   0.819  0.1321  0.5152 -0.3604
 9363TIP3    H149580   3.700   6.670   0.803  0.8395  1.0795 -1.5972
 9363TIP3    H249581   3.604   6.771   0.743  1.0179  1.7576 -0.7638
 9364TIP3   OH249582   6.204   3.274  13.933  1.0976  0.0765  0.3644
 9364TIP3    H149583   6.167   3.352  13.892 -1.0688 -1.0619  0.0677
 9364TIP3    H249584   6.288   3.262  13.890  0.8044  1.4368 -0.6154
 9365TIP3   OH249585   5.785   3.530  15.037 -0.1932  0.0738  0.3078
 9365TIP3    H149586   5.726   3.520  15.111 -0.4894  0.8838  0.1771
 9365TIP3    H249587   5.802   3.624  15.031  1.9448 -0.2353  1.0116
 9366TIP3   OH249588   5.161   4.007   2.285 -0.2708 -0.1305 -0.5270
 9366TIP3    H149589   5.080   3.957   2.294  1.0897 -2.7095 -2.4116
 9366TIP3    H249590   5.205   3.996   2.370 -0.5481 -1.1196 -0.5049
 9367TIP3   OH249591   0.437   2.202  14.732 -0.1823 -0.1381  0.1557
 9367TIP3    H149592   0.347   2.231  14.718  0.2468 -0.0305 -2.6914
 9367TIP3    H249593   0.491   2.269  14.691  1.0320 -1.9671 -1.3334
 9368TIP3   OH249594   2.342   2.413   6.115  0.3406 -0.5574 -0.0823
 9368TIP3    H149595   2.383   2.393   6.200  1.0866 -0.5550 -0.4371
 9368TIP3    H249596   2.276   2.480   6.136 -1.9721 -3.1001  1.0596
 9369TIP3   OH249597   2.968   4.132  13.356  0.4539 -0.1492  0.1373
 9369TIP3    H149598   2.914   4.104  13.430  0.2463  0.2382  0.1340
 9369TIP3    H249599   2.924   4.096  13.279 -0.4048  1.0635  0.0416
 9370TIP3   OH249600   5.703   5.577   6.155 -0.7058  0.4529  1.1132
 9370TIP3    H149601   5.631   5.545   6.100 -0.2220  0.6625  0.3374
 9370TIP3    H249602   5.670   5.657   6.195 -1.2929 -0.0513  1.6458
 9371TIP3   OH249603   4.064   0.022  13.254  0.5149 -0.1481  0.9364
 9371TIP3    H149604   4.119  -0.032  13.197  0.2748  0.1289  0.4402
 9371TIP3    H249605   4.021   0.083  13.195 -1.1543 -1.0410  1.2047
 9372TIP3   OH249606   4.930   0.858  14.903 -0.5289  0.4945 -0.5714
 9372TIP3    H149607   4.876   0.841  14.826  0.9708 -1.1426 -1.2840
 9372TIP3    H249608   5.000   0.915  14.871  0.5362 -0.8206 -0.6084
 9373TIP3   OH249609   5.788   2.725  13.711 -0.1666 -0.6031  0.5205
 9373TIP3    H149610   5.784   2.757  13.801  1.4316  0.2204  0.3196
 9373TIP3    H249611   5.879   2.741  13.684 -0.5448 -1.1346 -1.1275
 9374TIP3   OH249612   2.095   5.389  10.532  0.2060  0.3399  0.1883
 9374TIP3    H149613   2.088   5.327  10.460  0.3183  0.6033 -0.0522
 9374TIP3    H249614   2.149   5.344  10.597  1.2281  0.6060 -0.4528
 9375TIP3   OH249615   3.159   2.443   6.076  0.4634  0.0454 -0.7380
 9375TIP3    H149616   3.254   2.454   6.078  0.6070 -1.0684 -0.7912
 9375TIP3    H249617   3.138   2.398   6.158 -0.2470  1.8580  0.1074
 9376TIP3   OH249618   6.170   5.912  12.025 -0.0516  0.0689 -0.2400
 9376TIP3    H149619   6.155   5.931  12.118 -2.9451  2.9003 -1.1767
 9376TIP3    H249620   6.198   5.995  11.988  3.3313 -1.5746 -1.5615
 9377TIP3   OH249621   2.400   2.912  14.703 -0.0605 -0.2783 -0.4629
 9377TIP3    H149622   2.306   2.896  14.687 -0.3185 -0.2439  0.9785
 9377TIP3    H249623   2.440   2.825  14.695 -0.0574 -0.1525 -2.0301
 9378TIP3   OH249624   4.631   0.037   1.174  0.0307  0.3825  0.4529
 9378TIP3    H149625   4.701   0.018   1.237 -0.7260  2.6675  2.0901
 9378TIP3    H249626   4.674   0.037   1.089  1.0868 -2.8189  0.9238
 9379TIP3   OH249627   1.993   5.762  14.810  0.1153 -0.4148  0.4574
 9379TIP3    H149628   1.915   5.736  14.859  0.3318 -0.4463  0.7897
 9379TIP3    H249629   1.968   5.752  14.718 -0.1654 -0.7349  0.5657
 9380TIP3   OH249630   1.243   3.960   5.296 -0.5588 -0.0281 -0.1971
 9380TIP3    H149631   1.198   3.961   5.381  0.9859 -0.7576  0.6324
 9380TIP3    H249632   1.322   4.011   5.311  0.5933 -1.6409 -0.7164
 9381TIP3   OH249633   4.271   2.688   2.953  0.0654  0.6534  0.1350
 9381TIP3    H149634   4.198   2.730   2.999 -0.8017  0.9340 -1.4432
 9381TIP3    H249635   4.257   2.594   2.964  0.3692  0.7268  1.1877
 9382TIP3   OH249636   2.350   4.394   1.414 -0.2357  0.1353  0.3468
 9382TIP3    H149637   2.293   4.349   1.351 -0.8278 -0.0669  1.0169
 9382TIP3    H249638   2.373   4.476   1.371  0.9003 -0.8063 -0.9254
 9383TIP3   OH249639   5.367   5.559  12.177 -0.1088 -0.0807  0.6363
 9383TIP3    H149640   5.441   5.608  12.143  0.1347 -0.1098  1.1212
 9383TIP3    H249641   5.306   5.553  12.103 -0.1753  1.0169  0.5853
 9384TIP3   OH249642   4.570   0.401   1.582 -0.0518  0.0247  0.4793
 9384TIP3    H149643   4.521   0.463   1.637  0.0607  1.2815 -0.8157
 9384TIP3    H249644   4.594   0.331   1.642 -0.6409  0.9735  1.8688
 9385TIP3   OH249645   3.968   5.332   0.020 -0.1590 -0.4772  0.5385
 9385TIP3    H149646   4.018   5.319   0.101  1.1614  1.0418 -0.0241
 9385TIP3    H249647   4.006   5.410  -0.020 -2.1743 -0.0117 -0.5237
 9386TIP3   OH249648   5.154   2.170   0.827 -0.5224 -0.8897  0.6016
 9386TIP3    H149649   5.227   2.213   0.871 -0.4928 -0.0477 -0.2817
 9386TIP3    H249650   5.133   2.226   0.753 -2.6290 -0.6741  1.3378
 9387TIP3   OH249651   0.430   5.279   5.198  0.0123 -0.3951 -0.3412
 9387TIP3    H149652   0.506   5.331   5.223 -1.7630  0.6431  3.3494
 9387TIP3    H249653   0.425   5.211   5.265 -1.7927 -0.9550 -1.0094
 9388TIP3   OH249654   3.414   4.646  13.810  0.2900 -0.4569  0.4801
 9388TIP3    H149655   3.404   4.662  13.716  0.7314 -3.9608 -0.2348
 9388TIP3    H249656   3.325   4.626  13.840  0.0344  1.3388  0.9973
 9389TIP3   OH249657   2.631   1.441   5.122 -0.5067 -0.0399 -0.4703
 9389TIP3    H149658   2.577   1.390   5.183 -0.5814  2.3247  1.5376
 9389TIP3    H249659   2.568   1.497   5.076 -0.0061  1.5305  0.6910
 9390TIP3   OH249660   4.826   3.533  11.058 -0.2069 -0.4860 -0.0277
 9390TIP3    H149661   4.770   3.595  11.103  0.2545  0.3050 -0.5162
 9390TIP3    H249662   4.895   3.587  11.019 -1.3711 -0.9399 -2.8887
 9391TIP3   OH249663   1.470   6.525   2.449  0.0799 -0.1870  0.4247
 9391TIP3    H149664   1.478   6.568   2.363  1.0461  1.0020  1.0907
 9391TIP3    H249665   1.380   6.495   2.452 -0.2072  0.5059 -0.6738
 9392TIP3   OH249666   4.695   0.611   1.007  0.7636 -0.1934 -0.2154
 9392TIP3    H149667   4.603   0.631   0.989  1.4592  0.8871 -2.8021
 9392TIP3    H249668   4.693   0.556   1.085 -1.9246  1.6633  1.0837
 9393TIP3   OH249669   5.328   2.681   0.000 -0.0030 -0.0231 -0.1924
 9393TIP3    H149670   5.398   2.637   0.049  0.5818 -1.5421 -2.3290
 9393TIP3    H249671   5.288   2.740   0.064 -0.2126 -2.9590  2.5204
 9394TIP3   OH249672   0.502   5.875   1.466 -0.2762  0.4807 -0.3823
 9394TIP3    H149673   0.471   5.962   1.493 -1.6144 -0.2129  0.3503
 9394TIP3    H249674   0.596   5.877   1.484 -0.7865  0.7342  2.5547
 9395TIP3   OH249675   0.451   6.692   2.021 -0.1122 -0.3766  0.1195
 9395TIP3    H149676   0.539   6.723   2.001 -0.0135 -0.5032  0.3671
 9395TIP3    H249677   0.394   6.744   1.964 -0.0453  1.0184  1.2962
 9396TIP3   OH249678   5.659   0.623   4.540 -0.1587  0.2244  0.5702
 9396TIP3    H149679   5.604   0.547   4.561 -0.9508 -0.3274 -3.1187
 9396TIP3    H249680   5.602   0.680   4.489  1.1560  2.1792  1.2449
 9397TIP3   OH249681   4.895   1.601  12.423 -0.1923 -0.1038 -0.5897
 9397TIP3    H149682   4.856   1.550  12.352 -0.4377  0.9919 -1.2565
 9397TIP3    H249683   4.878   1.692  12.398 -0.5660  0.2836  1.0366
 9398TIP3   OH249684   6.269   4.681   0.435 -0.0878 -0.3676  0.1481
 9398TIP3    H149685   6.330   4.755   0.438 -0.5662  0.0587 -0.5749
 9398TIP3    H249686   6.325   4.604   0.422  0.3504 -0.0667  0.2512
 9399TIP3   OH249687   0.089   0.761  15.928  0.0164  0.2827 -0.4701
 9399TIP3    H149688   0.081   0.737  15.835  1.0208  0.8386 -0.7034
 9399TIP3    H249689   0.082   0.856  15.929  0.6506  0.3232 -0.0377
 9400TIP3   OH249690   1.870   4.043   3.389  0.0130 -0.2226 -0.2630
 9400TIP3    H149691   1.843   3.957   3.422 -0.4009  0.0395  0.0752
 9400TIP3    H249692   1.958   4.056   3.424  0.2111 -0.6603 -0.5955
 9401TIP3   OH249693   4.908   2.504   5.244 -0.1129 -0.1706  0.4439
 9401TIP3    H149694   4.967   2.552   5.303 -0.7828  0.3854  0.6685
 9401TIP3    H249695   4.821   2.516   5.282 -0.2100 -2.2291  0.9324
 9402TIP3   OH249696   0.163   6.546  11.036  0.7015  0.6203 -0.2621
 9402TIP3    H149697   0.196   6.565  10.948  0.8331  0.2428 -0.2972
 9402TIP3    H249698   0.238   6.559  11.093  0.7136  0.5012 -0.2509
 9403TIP3   OH249699   5.033   0.948  15.191  0.3590 -0.3055  0.3959
 9403TIP3    H149700   5.102   0.908  15.138 -0.1088  0.0711 -0.5221
 9403TIP3    H249701   5.045   1.042  15.177 -1.4461 -0.2777 -1.2440
 9404TIP3   OH249702   0.650   5.447  12.231 -0.1709  0.3213 -0.3460
 9404TIP3    H149703   0.695   5.502  12.295 -0.3237  0.1189 -0.0642
 9404TIP3    H249704   0.704   5.368  12.224 -1.3342 -0.6581  1.2397
 9405TIP3   OH249705   6.507   1.554   2.509  0.0791  0.3870 -0.1515
 9405TIP3    H149706   6.480   1.507   2.430  1.3771  0.8950 -0.9099
 9405TIP3    H249707   6.512   1.646   2.481  0.9201  0.5207  0.4152
 9406TIP3   OH249708   3.062   0.233   5.206 -0.2855  0.2724  0.0399
 9406TIP3    H149709   3.142   0.254   5.254 -1.1787  0.8256  1.3139
 9406TIP3    H249710   3.062   0.137   5.201 -0.1969  0.2087  1.1719
 9407TIP3   OH249711   6.496   2.603  12.181 -0.0211  0.7554 -0.3371
 9407TIP3    H149712   6.420   2.605  12.122 -3.0877  0.5101  3.4539
 9407TIP3    H249713   6.505   2.512  12.207  0.7886  0.9907  0.2464
 9408TIP3   OH249714   2.533   2.861   0.930 -0.5517 -0.3247 -0.3777
 9408TIP3    H149715   2.513   2.955   0.931 -0.8305 -0.3937  0.2518
 9408TIP3    H249716   2.560   2.844   0.840  0.1602  0.5028 -0.3255
 9409TIP3   OH249717   0.805   4.355  11.239  0.7358 -0.8708  0.5814
 9409TIP3    H149718   0.750   4.415  11.188  0.5400 -0.0746  1.7133
 9409TIP3    H249719   0.815   4.278  11.182  0.2122 -0.1543 -0.5009
 9410TIP3   OH249720   0.434   5.844   4.682 -0.5743  0.1902  0.2905
 9410TIP3    H149721   0.385   5.926   4.695  0.2488  0.4247  2.1157
 9410TIP3    H249722   0.380   5.778   4.725 -0.8403 -0.0926 -0.4774
 9411TIP3   OH249723   5.113   0.780   5.299  0.3008  0.3681 -0.0735
 9411TIP3    H149724   5.103   0.872   5.325 -0.7096 -0.3196  2.1545
 9411TIP3    H249725   5.024   0.745   5.299  0.7256 -0.7379 -0.3466
 9412TIP3   OH249726   4.838   5.947   2.256  0.2268 -0.4390 -0.0935
 9412TIP3    H149727   4.889   5.918   2.331  1.1666  1.6236  0.0881
 9412TIP3    H249728   4.810   6.035   2.279 -1.6407 -0.7486 -1.0959
 9413TIP3   OH249729   5.387   6.122   0.618 -0.5866  0.0060 -0.1876
 9413TIP3    H149730   5.377   6.186   0.548 -0.5956  1.5495  1.1872
 9413TIP3    H249731   5.344   6.043   0.585 -2.3835  1.3231 -1.1141
 9414TIP3   OH249732   6.535   0.175  14.889 -0.2396  0.2678  0.7035
 9414TIP3    H149733   6.630   0.176  14.899 -0.3455 -0.5094  1.8270
 9414TIP3    H249734   6.518   0.111  14.820  0.1189  1.2439 -0.3018
 9415TIP3   OH249735   3.834   4.732  13.435 -0.2910 -1.0333 -0.0042
 9415TIP3    H149736   3.791   4.814  13.410 -0.8270 -1.1350  0.5595
 9415TIP3    H249737   3.814   4.671  13.364  1.1554 -0.3260 -1.0265
 9416TIP3   OH249738   1.391   5.074   6.404 -0.0761 -0.2989 -0.1192
 9416TIP3    H149739   1.465   5.133   6.419  0.4685 -1.1343  0.5347
 9416TIP3    H249740   1.314   5.130   6.410  0.4968  0.5634 -0.6925
 9417TIP3   OH249741   3.523   0.705   3.939 -0.4540  0.4122  0.2605
 9417TIP3    H149742   3.549   0.627   3.890  1.5071  0.1653  1.6125
 9417TIP3    H249743   3.503   0.673   4.026  1.8860  1.5610  1.2847
 9418TIP3   OH249744   3.810   1.684   0.758  0.1123 -0.5304  0.6317
 9418TIP3    H149745   3.894   1.731   0.753  1.3618 -2.7140  0.1679
 9418TIP3    H249746   3.826   1.615   0.822 -0.3877 -2.7291 -1.5430
 9419TIP3   OH249747   5.637   4.664  13.101  0.4708 -0.1513  0.0760
 9419TIP3    H149748   5.611   4.573  13.086  1.4025 -0.2298 -1.1537
 9419TIP3    H249749   5.589   4.714  13.035 -1.1735  0.4574  1.6816
 9420TIP3   OH249750   5.794   5.963  13.497 -0.4579 -0.0568  0.1961
 9420TIP3    H149751   5.706   5.974  13.459 -0.5376 -0.9304  0.1116
 9420TIP3    H249752   5.853   5.970  13.423 -0.3356  2.1442  0.4805
 9421TIP3   OH249753   0.913   2.818  11.918 -0.6381  0.1023  0.0151
 9421TIP3    H149754   0.890   2.904  11.952 -0.1126  0.9673 -1.7383
 9421TIP3    H249755   1.007   2.821  11.905 -0.6902 -0.5413 -0.5942
 9422TIP3   OH249756   4.533   5.275  15.439 -0.0139  0.8163 -0.2530
 9422TIP3    H149757   4.487   5.229  15.369 -3.8099  0.8703  2.0389
 9422TIP3    H249758   4.507   5.366  15.429 -0.6946  0.8068  1.2562
 9423TIP3   OH249759   5.244   3.482  16.846  0.0926 -0.1457 -0.6681
 9423TIP3    H149760   5.236   3.498  16.752 -1.1965  0.3018 -0.4910
 9423TIP3    H249761   5.338   3.490  16.863  0.5184 -1.6794 -2.1712
 9424TIP3   OH249762   1.263   2.460   5.929  0.1741 -0.2100  0.0111
 9424TIP3    H149763   1.303   2.546   5.939  1.3643 -0.7878  0.2756
 9424TIP3    H249764   1.168   2.476   5.934  0.4030  1.0378  0.3098
 9425TIP3   OH249765   1.896   4.477  11.941 -0.4335  0.2092 -0.1590
 9425TIP3    H149766   1.845   4.503  11.865 -0.0868 -0.3918 -0.6028
 9425TIP3    H249767   1.888   4.382  11.944  0.2230  0.1603  0.0770
 9426TIP3   OH249768   0.507   4.102  14.137  0.2660 -0.2159 -0.4537
 9426TIP3    H149769   0.552   4.029  14.179  0.2603 -0.0785 -0.2076
 9426TIP3    H249770   0.473   4.154  14.210  0.4036  0.1162 -0.6262
 9427TIP3   OH249771   0.687   2.462   0.849 -0.1887  0.8718  0.3382
 9427TIP3    H149772   0.759   2.480   0.909 -0.3005 -2.0620  1.4482
 9427TIP3    H249773   0.725   2.471   0.762  2.3913 -3.4572  0.8748
 9428TIP3   OH249774   1.318   1.978  15.968  0.4243  0.6120  0.0006
 9428TIP3    H149775   1.310   1.887  15.939  0.0281 -0.3931  3.1537
 9428TIP3    H249776   1.228   2.008  15.978  0.5234  0.0012  2.9806
 9429TIP3   OH249777   5.468   2.242   4.351 -0.4089 -0.2202 -0.0843
 9429TIP3    H149778   5.547   2.293   4.333 -1.8472  1.6248 -1.4006
 9429TIP3    H249779   5.443   2.206   4.266 -1.3203 -0.3012  0.2135
 9430TIP3   OH249780   0.014   2.699   4.026  0.6416  0.4336  0.3804
 9430TIP3    H149781   0.011   2.654   4.111  0.2992 -1.3205 -0.5447
 9430TIP3    H249782   0.106   2.698   4.002  0.8610  1.7159  1.1320
 9431TIP3   OH249783   3.349   5.863  16.217 -0.1415 -0.1307 -0.3643
 9431TIP3    H149784   3.308   5.778  16.199  0.0613 -0.2379 -0.3211
 9431TIP3    H249785   3.434   5.841  16.254  0.5516  0.0884 -1.7967
 9432TIP3   OH249786   2.574   4.718  13.613  0.0740 -0.2875 -0.7577
 9432TIP3    H149787   2.574   4.622  13.612 -2.8124 -0.3122 -0.4112
 9432TIP3    H249788   2.548   4.743  13.524 -0.8034  0.1459 -0.3877
 9433TIP3   OH249789   1.631   4.751   3.564 -0.9014  0.5232 -0.3137
 9433TIP3    H149790   1.687   4.821   3.597  1.6483 -0.9138 -1.4776
 9433TIP3    H249791   1.604   4.780   3.477  2.0173 -0.8526 -1.7570
 9434TIP3   OH249792   6.379   2.525   2.702 -0.0029  0.5169  0.3132
 9434TIP3    H149793   6.409   2.437   2.724 -2.1826 -0.6510 -1.1588
 9434TIP3    H249794   6.395   2.534   2.608  2.3815  2.6236  0.8751
 9435TIP3   OH249795   5.575   0.379   4.679 -0.6535 -0.2633  0.2764
 9435TIP3    H149796   5.611   0.312   4.738 -1.5831 -0.4974  0.5788
 9435TIP3    H249797   5.631   0.375   4.602  1.4825  1.0307  1.7092
 9436TIP3   OH249798   2.567   2.561   0.765 -0.1877  0.3571 -0.3906
 9436TIP3    H149799   2.589   2.642   0.720  0.5863 -0.1658 -0.9769
 9436TIP3    H249800   2.474   2.547   0.746  0.1765  0.0495 -1.9786
 9437TIP3   OH249801   4.142   1.837   2.802  0.3648 -0.4935  0.0585
 9437TIP3    H149802   4.126   1.856   2.894 -0.2465  1.8614 -0.5039
 9437TIP3    H249803   4.177   1.919   2.766  1.9857 -1.8045 -1.4981
 9438TIP3   OH249804   0.306   3.215  15.099 -0.4915 -0.2760  0.5491
 9438TIP3    H149805   0.273   3.185  15.014 -1.9923 -1.7851  1.6132
 9438TIP3    H249806   0.383   3.162  15.115  0.1738  0.4615 -0.1405
 9439TIP3   OH249807   5.071   2.929  11.496  0.1281 -0.3491  0.0748
 9439TIP3    H149808   5.036   2.973  11.418  1.2520  0.8033  0.1956
 9439TIP3    H249809   5.165   2.945  11.492  0.3198 -1.1448  1.1422
 9440TIP3   OH249810   5.621   5.744  14.858 -0.0080 -0.0388 -0.4187
 9440TIP3    H149811   5.652   5.791  14.936  1.4872 -1.2331 -0.2540
 9440TIP3    H249812   5.678   5.775  14.788 -1.2464  0.9098 -1.0295
 9441TIP3   OH249813   6.771   0.779  11.578 -0.5065  0.0721  0.1322
 9441TIP3    H149814   6.851   0.727  11.579 -0.8378 -0.5413  3.8516
 9441TIP3    H249815   6.700   0.714  11.576 -0.9224  0.5277 -0.0871
 9442TIP3   OH249816   6.316   3.185  13.350 -0.3792  0.1337  0.0656
 9442TIP3    H149817   6.402   3.188  13.391  1.3224 -0.1616 -3.3394
 9442TIP3    H249818   6.264   3.130  13.408  1.6170  0.4999  2.2901
 9443TIP3   OH249819   1.419   5.851  14.096 -0.6925  0.0127  0.3273
 9443TIP3    H149820   1.426   5.859  14.000  0.4132 -0.9616  0.3024
 9443TIP3    H249821   1.326   5.833  14.112 -0.8465 -0.0641 -0.5964
 9444TIP3   OH249822   6.781   6.579   3.732  0.0264 -0.3342 -0.1735
 9444TIP3    H149823   6.772   6.590   3.827 -1.1245 -3.0148  0.0804
 9444TIP3    H249824   6.767   6.667   3.697  0.0636  0.6334  2.1064
 9445TIP3   OH249825   6.080   6.384   4.900 -0.2019 -0.0217 -0.4451
 9445TIP3    H149826   6.145   6.432   4.848  0.3918 -1.0225 -0.6374
 9445TIP3    H249827   6.097   6.411   4.990 -0.3996  0.7491 -0.6363
 9446TIP3   OH249828   4.750   1.925   6.107 -0.1644  0.0761 -0.3714
 9446TIP3    H149829   4.813   1.975   6.158 -0.5958  0.3128 -0.0613
 9446TIP3    H249830   4.668   1.973   6.117 -0.7657 -1.0941  0.5732
 9447TIP3   OH249831   0.395   5.254   2.535 -0.0818  0.1550 -0.0301
 9447TIP3    H149832   0.318   5.209   2.502  0.0056  0.0744 -0.1270
 9447TIP3    H249833   0.391   5.341   2.494  0.4650 -0.2261 -0.9199
 9448TIP3   OH249834   2.366   3.749   6.283 -0.9494 -0.7661 -0.2303
 9448TIP3    H149835   2.453   3.709   6.286 -0.9961 -0.8297  0.4220
 9448TIP3    H249836   2.365   3.811   6.356 -1.3580 -0.5746 -0.3958
 9449TIP3   OH249837   3.077   6.285   5.610  0.0229 -0.4258  0.5088
 9449TIP3    H149838   3.126   6.247   5.683 -1.7837 -2.6207  0.6394
 9449TIP3    H249839   3.085   6.220   5.540  0.1276  0.7670 -0.5971
 9450TIP3   OH249840   1.007   5.439   0.719  0.0280 -0.0368 -0.1290
 9450TIP3    H149841   0.939   5.494   0.758 -0.3101  0.4707 -1.4228
 9450TIP3    H249842   0.985   5.435   0.626  1.5634 -0.1743 -0.4985
 9451TIP3   OH249843   1.922   3.298   3.697  0.5492 -0.2160  0.7090
 9451TIP3    H149844   1.904   3.240   3.623 -2.4564  1.2131  0.2140
 9451TIP3    H249845   1.996   3.351   3.668 -0.8327  0.6079 -1.5031
 9452TIP3   OH249846   2.920   2.669   1.084 -0.0563 -0.0334 -0.0520
 9452TIP3    H149847   2.871   2.747   1.110  0.4853  0.9077 -1.7874
 9452TIP3    H249848   3.005   2.702   1.056  0.2744 -1.2662 -0.5385
 9453TIP3   OH249849   3.463   5.986  11.880 -0.3380  0.1683  0.0596
 9453TIP3    H149850   3.388   5.935  11.850  0.0608  0.0109 -0.6788
 9453TIP3    H249851   3.441   6.076  11.859 -1.3081  0.3955  1.9088
 9454TIP3   OH249852   0.243   1.857  16.301 -0.0515  0.1018 -0.2816
 9454TIP3    H149853   0.186   1.812  16.364  0.9846 -1.7765 -0.6393
 9454TIP3    H249854   0.212   1.948  16.302  0.4594  0.3484  3.5565
 9455TIP3   OH249855   6.189   1.593  16.386 -0.9675 -0.5859 -0.0525
 9455TIP3    H149856   6.243   1.538  16.330  0.3697  0.3816  0.2677
 9455TIP3    H249857   6.190   1.549  16.471  0.1759 -0.0302  0.2275
 9456TIP3   OH249858   0.067   3.029  16.763 -0.1245  0.8503 -0.0549
 9456TIP3    H149859   0.006   3.090  16.721  1.7532  1.6594 -1.6809
 9456TIP3    H249860   0.136   3.085  16.798  1.8657 -0.3413 -1.9815
 9457TIP3   OH249861   1.296   2.286   4.225 -0.3402  0.2066 -0.1566
 9457TIP3    H149862   1.352   2.254   4.154 -1.3291 -0.3415 -0.7045
 9457TIP3    H249863   1.268   2.373   4.197  0.0223  0.3760  0.0006
 9458TIP3   OH249864   0.177   6.358   4.156 -0.4301 -0.0225 -0.3313
 9458TIP3    H149865   0.140   6.279   4.195  0.6027  0.1526  1.0227
 9458TIP3    H249866   0.140   6.360   4.067 -1.3337 -1.4178 -0.0080
 9459TIP3   OH249867   3.286   2.613  14.343  0.7940 -0.1976 -0.7348
 9459TIP3    H149868   3.284   2.604  14.438  0.7318  1.0516 -0.6013
 9459TIP3    H249869   3.364   2.566  14.315  0.0303 -1.8112 -0.2191
 9460TIP3   OH249870   2.837   2.055   4.194 -0.0779  0.4558  0.7910
 9460TIP3    H149871   2.831   1.964   4.220 -0.6622 -0.2590 -1.7311
 9460TIP3    H249872   2.756   2.072   4.147  0.5644  1.9158  0.1747
 9461TIP3   OH249873   2.457   0.998  15.742  0.4501 -0.0605 -0.0585
 9461TIP3    H149874   2.483   0.964  15.827  1.2775 -0.7316 -0.5639
 9461TIP3    H249875   2.448   1.093  15.755  0.0683 -0.2237  0.8847
 9462TIP3   OH249876   4.835   3.111   1.232  0.1113 -0.2483 -0.3112
 9462TIP3    H149877   4.925   3.098   1.200  0.2602  1.2594 -0.5506
 9462TIP3    H249878   4.827   3.050   1.305  0.9095 -1.3108 -1.0970
 9463TIP3   OH249879   4.200   3.044   2.787 -0.6575  0.0871  0.0069
 9463TIP3    H149880   4.124   2.985   2.788 -0.8445  0.3279  0.1302
 9463TIP3    H249881   4.171   3.120   2.737 -0.5022  0.1877  0.0683
 9464TIP3   OH249882   5.159   6.753   1.830  0.5888 -0.5311  0.0235
 9464TIP3    H149883   5.195   6.718   1.748  0.7147  0.2283 -0.2489
 9464TIP3    H249884   5.124   6.676   1.875  0.3109 -0.9295 -0.8501
 9465TIP3   OH249885   6.557   5.613   2.109 -0.3549 -0.2507 -0.3984
 9465TIP3    H149886   6.607   5.572   2.038 -0.7889  1.4717 -1.7577
 9465TIP3    H249887   6.535   5.700   2.075 -1.7342  0.1171  1.3468
 9466TIP3   OH249888   6.489   1.245  12.299  0.0073 -0.3232 -0.5111
 9466TIP3    H149889   6.484   1.162  12.346  3.2266 -0.6955 -0.6898
 9466TIP3    H249890   6.542   1.226  12.222 -1.4076  1.3191 -1.9125
 9467TIP3   OH249891   2.831   2.504   2.412 -0.6359  0.5594 -0.1494
 9467TIP3    H149892   2.891   2.463   2.350 -0.5558 -2.0425  1.5700
 9467TIP3    H249893   2.884   2.572   2.455  0.3774 -0.1100 -0.3315
 9468TIP3   OH249894   1.615   2.489  12.507  0.2105 -0.0275 -0.0179
 9468TIP3    H149895   1.550   2.484  12.436 -0.2591  0.4496  0.3727
 9468TIP3    H249896   1.635   2.582  12.514  0.3158 -0.0839  0.4221
 9469TIP3   OH249897   0.419   1.216   0.417 -0.0587  0.5803 -0.4185
 9469TIP3    H149898   0.375   1.297   0.390 -1.9635 -0.4953 -0.6036
 9469TIP3    H249899   0.503   1.246   0.452 -0.3440  2.5665 -1.3190
 9470TIP3   OH249900   4.771   1.033   2.250 -0.2451  0.2026 -0.6073
 9470TIP3    H149901   4.683   1.051   2.216  0.2492  0.8425 -1.5670
 9470TIP3    H249902   4.830   1.058   2.179  0.6496 -1.8020 -0.6053
 9471TIP3   OH249903   2.770   6.609  12.891 -0.2796 -0.2867  0.1722
 9471TIP3    H149904   2.718   6.592  12.813  0.4127  0.1212 -0.3861
 9471TIP3    H249905   2.861   6.607  12.860  0.0643 -1.5339  1.2378
 9472TIP3   OH249906   1.340   3.769   2.605 -0.0935  0.2792  0.0138
 9472TIP3    H149907   1.321   3.715   2.682  0.4598 -0.2992 -0.2543
 9472TIP3    H249908   1.260   3.820   2.592 -0.9483 -1.0660 -0.2069
 9473TIP3   OH249909   2.740   4.351   4.964  0.0748  0.2648 -0.6606
 9473TIP3    H149910   2.763   4.375   5.054  1.7540 -0.8010 -0.7949
 9473TIP3    H249911   2.685   4.274   4.973 -1.9458  1.6802 -0.4437
 9474TIP3   OH249912   0.364   6.185   4.670 -0.4033  0.3936  0.4954
 9474TIP3    H149913   0.405   6.271   4.661 -0.2474  0.2216 -0.5388
 9474TIP3    H249914   0.368   6.166   4.764  1.3085  0.6758  0.5026
 9475TIP3   OH249915   6.071   3.563  15.765 -0.1150 -0.3602  0.3837
 9475TIP3    H149916   6.025   3.505  15.826 -0.9748  0.9891  1.0439
 9475TIP3    H249917   6.145   3.597  15.815 -1.3900  1.5413  1.0668
 9476TIP3   OH249918   3.161   5.413   4.611  0.2962 -0.5361  0.1534
 9476TIP3    H149919   3.236   5.383   4.662 -2.4249 -2.2751  3.3221
 9476TIP3    H249920   3.132   5.336   4.563  0.3885  0.0862 -0.9265
 9477TIP3   OH249921   3.094   1.783  11.123 -0.0830  0.2315 -0.4607
 9477TIP3    H149922   3.011   1.736  11.129  1.2791 -2.0351  1.8493
 9477TIP3    H249923   3.127   1.762  11.035 -0.6900 -1.0913 -0.3888
 9478TIP3   OH249924   3.118   5.946   2.021  0.5352 -0.6171 -0.3251
 9478TIP3    H149925   3.030   5.951   1.984  0.6366  1.0650 -0.3808
 9478TIP3    H249926   3.128   5.854   2.046 -1.6087 -0.6262  0.6308
 9479TIP3   OH249927   5.222   2.158  13.307 -0.6181  0.8662 -0.5954
 9479TIP3    H149928   5.254   2.193  13.390 -2.1098 -0.0110  0.3837
 9479TIP3    H249929   5.283   2.192  13.241  1.5962  0.1609  1.0414
 9480TIP3   OH249930   5.381   4.850   1.079  0.3200 -0.3403  0.2648
 9480TIP3    H149931   5.437   4.927   1.080  0.2203 -0.1738 -2.7578
 9480TIP3    H249932   5.292   4.885   1.066  0.3142 -0.9327 -1.4984
 9481TIP3   OH249933   6.117   2.029   5.702  0.8005 -0.6353  0.0997
 9481TIP3    H149934   6.053   1.959   5.712  0.6144 -0.2135  1.8697
 9481TIP3    H249935   6.104   2.086   5.777  2.7054 -0.1108  0.0743
 9482TIP3   OH249936   6.763   1.037  11.664 -0.4802 -0.2283 -0.0071
 9482TIP3    H149937   6.726   1.039  11.752 -0.6372  0.0337 -0.0769
 9482TIP3    H249938   6.786   0.945  11.649  0.3010 -0.1314  0.6153
 9483TIP3   OH249939   6.729   5.107  13.096 -0.3885  0.9262 -0.1677
 9483TIP3    H149940   6.785   5.032  13.114  0.6828  1.8879  0.5233
 9483TIP3    H249941   6.720   5.152  13.180 -2.5143  0.5845 -0.1729
 9484TIP3   OH249942   0.714   5.056   3.695  0.3840  0.0931 -0.2489
 9484TIP3    H149943   0.704   5.074   3.789  2.9690  1.5775 -0.1905
 9484TIP3    H249944   0.652   5.115   3.653 -0.1869  0.0452  0.5176
 9485TIP3   OH249945   4.627   2.251   4.805  0.3964  0.0832 -0.0531
 9485TIP3    H149946   4.672   2.170   4.782  2.8561  1.3388  0.0835
 9485TIP3    H249947   4.681   2.289   4.875 -1.5560  1.0771  0.9447
 9486TIP3   OH249948   2.085   5.554   0.456 -0.5085  0.2039 -0.2348
 9486TIP3    H149949   2.081   5.620   0.525  0.3923 -0.4051  0.4197
 9486TIP3    H249950   2.001   5.561   0.411 -0.3644  1.8993 -0.2822
 9487TIP3   OH249951   3.449   4.970   4.260 -0.8935 -0.2759  0.0416
 9487TIP3    H149952   3.537   4.933   4.263 -0.9585 -0.5179 -0.8237
 9487TIP3    H249953   3.444   5.010   4.173 -1.7331 -0.5118 -0.0193
 9488TIP3   OH249954   4.638   3.052   5.656 -0.3413  0.9053 -0.4952
 9488TIP3    H149955   4.723   3.094   5.640  0.4876 -0.6465 -0.2741
 9488TIP3    H249956   4.644   3.018   5.745 -0.6574 -0.4026 -0.9528
 9489TIP3   OH249957   4.757   5.237  16.970 -0.2203  0.2260  0.2221
 9489TIP3    H149958   4.690   5.270  17.031 -0.2044 -0.8357  0.8355
 9489TIP3    H249959   4.784   5.154  17.009 -0.0540 -0.3575 -1.1349
 9490TIP3   OH249960   4.630   2.774  13.138 -0.4655  0.0520 -0.1047
 9490TIP3    H149961   4.586   2.781  13.223  1.9006 -0.5760  1.2215
 9490TIP3    H249962   4.711   2.823  13.149 -0.1542  0.0180 -2.0580
 9491TIP3   OH249963   3.638   2.965  13.318 -0.1847 -0.1472  0.2820
 9491TIP3    H149964   3.727   2.993  13.299  0.1723 -0.3563  1.5865
 9491TIP3    H249965   3.648   2.877  13.355 -0.8930 -0.0473  0.7298
 9492TIP3   OH249966   4.433   0.929  14.901 -0.3449  1.1032 -0.1096
 9492TIP3    H149967   4.424   1.024  14.904 -0.0247  1.1562 -0.6223
 9492TIP3    H249968   4.414   0.906  14.809 -3.7380  0.3209  0.7122
 9493TIP3   OH249969   4.150   6.492   0.801 -0.3080  0.1217 -0.1618
 9493TIP3    H149970   4.078   6.441   0.764 -0.1934  0.7986 -1.3755
 9493TIP3    H249971   4.114   6.534   0.879 -0.2180 -2.3146  1.2329
 9494TIP3   OH249972   6.007   3.882  13.113  0.6456  0.0255 -0.2286
 9494TIP3    H149973   5.970   3.962  13.151 -1.0753 -0.2701 -1.2486
 9494TIP3    H249974   5.994   3.815  13.179  1.1771  0.3588  0.2207
 9495TIP3   OH249975   1.253   3.568  15.787 -0.1941 -0.9705  0.6457
 9495TIP3    H149976   1.316   3.497  15.801 -0.8617 -1.0855  3.3252
 9495TIP3    H249977   1.167   3.527  15.798 -0.6839 -0.2883 -0.5176
 9496TIP3   OH249978   6.280   0.348   3.633  0.0247 -0.2096 -0.2988
 9496TIP3    H149979   6.256   0.263   3.596  0.7652 -0.3711 -0.4191
 9496TIP3    H249980   6.375   0.346   3.636  0.0459  0.6717 -0.4121
 9497TIP3   OH249981   5.008   6.355   0.291 -0.0445 -0.1706  0.4007
 9497TIP3    H149982   4.955   6.430   0.317 -1.3252 -0.2969 -1.6835
 9497TIP3    H249983   5.033   6.374   0.200  0.9326 -1.5187  0.3678
 9498TIP3   OH249984   5.958   3.497   5.415 -0.0585  0.2951 -0.2968
 9498TIP3    H149985   6.043   3.485   5.457 -0.2392 -1.3032 -0.3745
 9498TIP3    H249986   5.973   3.568   5.352  2.0738 -2.0941 -2.6006
 9499TIP3   OH249987   5.662   0.872   5.603  0.7444  0.1935  0.0006
 9499TIP3    H149988   5.689   0.782   5.586  2.3697  0.6825 -0.1637
 9499TIP3    H249989   5.732   0.908   5.658 -0.0938  1.2372  0.4111
 9500TIP3   OH249990   1.803   4.447  13.783  0.3540 -0.4484  0.0696
 9500TIP3    H149991   1.885   4.402  13.803 -0.8026 -3.1170 -1.0028
 9500TIP3    H249992   1.807   4.464  13.689  0.0602  0.2207  0.1777
 9501TIP3   OH249993   6.746   6.768  12.471  0.2967  0.1548  0.2742
 9501TIP3    H149994   6.700   6.723  12.400  1.4589  1.5409 -1.3937
 9501TIP3    H249995   6.831   6.724  12.475  0.8171  1.1061 -0.2584
 9502TIP3   OH249996   4.504   4.923  12.245  0.4769 -0.4690 -0.1745
 9502TIP3    H149997   4.464   4.919  12.331  1.8539  1.3712  0.5947
 9502TIP3    H249998   4.434   4.953  12.187 -0.0721 -0.2704  0.5869
 9503TIP3   OH249999   2.954   3.957   3.388 -0.1008  0.9152  0.1120
 9503TIP3    H150000   2.897   4.033   3.400 -2.1588 -0.7021  0.8674
 9503TIP3    H250001   2.899   3.882   3.411  1.8714 -0.8156 -0.6756
 9504TIP3   OH250002   3.843   3.519  13.608 -0.5065 -0.2003  0.1218
 9504TIP3    H150003   3.865   3.584  13.675 -1.5824 -0.0779  0.3682
 9504TIP3    H250004   3.867   3.435  13.647 -0.9510 -0.1140  0.5817
 9505TIP3   OH250005   5.562   0.344   0.354  0.1116 -0.1641  0.0427
 9505TIP3    H150006   5.653   0.373   0.362  0.3875 -0.5361 -1.6228
 9505TIP3    H250007   5.514   0.423   0.327 -0.3432  0.3955  2.3238
 9506TIP3   OH250008   3.155   6.090  15.634 -0.8444 -0.4399  0.1075
 9506TIP3    H150009   3.211   6.030  15.586 -0.4467  0.9353 -1.1781
 9506TIP3    H250010   3.211   6.127  15.702 -0.1888  0.8916 -1.1405
 9507TIP3   OH250011   3.878   6.580   5.592  0.3353 -0.1825 -0.0146
 9507TIP3    H150012   3.930   6.525   5.651 -0.3773 -0.2106  0.5967
 9507TIP3    H250013   3.869   6.663   5.639  0.2009 -0.0298 -0.3098
 9508TIP3   OH250014   5.667   3.673  15.807 -0.2519  0.2489 -0.2707
 9508TIP3    H150015   5.632   3.730  15.876  0.4008 -0.3646  0.5719
 9508TIP3    H250016   5.660   3.585  15.843 -0.1637 -0.0987 -1.1067
 9509TIP3   OH250017   4.892   2.644   3.299  0.7153  0.0894 -0.0393
 9509TIP3    H150018   4.979   2.679   3.319  0.5931 -0.9398  2.3847
 9509TIP3    H250019   4.909   2.561   3.256  0.9270  0.2194 -0.2081
 9510TIP3   OH250020   4.516   5.489  11.199 -0.0636  0.2324  0.6087
 9510TIP3    H150021   4.507   5.402  11.161  0.1808  0.7109 -0.5483
 9510TIP3    H250022   4.475   5.481  11.286 -2.8142 -0.2469 -0.6701
 9511TIP3   OH250023   2.984   4.554   6.040  0.1705  0.2333 -0.2848
 9511TIP3    H150024   2.928   4.487   6.078 -0.9188  0.5460 -1.2991
 9511TIP3    H250025   3.063   4.507   6.012 -0.2233 -0.4657 -0.2184
 9512TIP3   OH250026   2.777   2.532   1.618 -0.4574 -0.6086  0.1401
 9512TIP3    H150027   2.864   2.508   1.587 -0.9868 -2.2202 -0.1678
 9512TIP3    H250028   2.717   2.490   1.557 -1.4640  0.0885  0.6271
 9513TIP3   OH250029   5.656   5.072  11.805  0.1969 -0.2292  0.1435
 9513TIP3    H150030   5.571   5.048  11.770 -0.3715  0.1049  1.2709
 9513TIP3    H250031   5.672   5.010  11.876  0.0266  0.8662  1.1638
 9514TIP3   OH250032   0.607   2.277  14.931 -0.3118  0.2574  0.4165
 9514TIP3    H150033   0.525   2.229  14.922  0.1521 -0.6474  1.0369
 9514TIP3    H250034   0.668   2.215  14.971  0.2360  1.4114  1.4180
 9515TIP3   OH250035   0.672   5.680  11.901 -0.5434  0.4320  0.6688
 9515TIP3    H150036   0.593   5.653  11.854 -0.5907  0.3906  0.7699
 9515TIP3    H250037   0.689   5.609  11.962  0.8635 -0.5758 -0.8698
 9516TIP3   OH250038   1.802   0.184  16.626 -0.1211 -0.5518  0.1394
 9516TIP3    H150039   1.712   0.198  16.653 -0.2174 -1.0875  0.1103
 9516TIP3    H250040   1.801   0.197  16.531 -0.4022 -1.6876 -0.0195
 9517TIP3   OH250041   4.477   4.658  10.693 -0.1668 -0.1112 -0.4785
 9517TIP3    H150042   4.467   4.647  10.598  2.3848  1.6218 -1.0255
 9517TIP3    H250043   4.569   4.635  10.710  0.0385  1.7873  1.1947
 9518TIP3   OH250044   4.715   6.014  15.303 -0.5469  0.3586  0.6588
 9518TIP3    H150045   4.626   6.027  15.270  0.1848  1.1153 -1.0140
 9518TIP3    H250046   4.750   5.943  15.249  1.1120  2.4941 -1.1419
 9519TIP3   OH250047   0.380   0.025   3.176  0.6557  0.5019 -0.1491
 9519TIP3    H150048   0.464   0.061   3.149  2.6204 -2.5108  1.6042
 9519TIP3    H250049   0.386   0.018   3.271 -1.7770  0.6731  0.0369
 9520TIP3   OH250050   2.450   1.843  15.170 -0.0379 -0.1887 -0.4444
 9520TIP3    H150051   2.417   1.797  15.093 -0.2499  0.3248 -0.6661
 9520TIP3    H250052   2.536   1.803  15.187  1.2726  1.5586 -2.6300
 9521TIP3   OH250053   0.319   6.380  10.765 -0.3895 -0.4682  0.1746
 9521TIP3    H150054   0.376   6.422  10.829  0.1296  1.0240 -1.2262
 9521TIP3    H250055   0.257   6.447  10.739 -0.9253 -1.2040 -0.5016
 9522TIP3   OH250056   1.410   3.795   5.702  0.3070 -0.1556 -0.3906
 9522TIP3    H150057   1.323   3.829   5.724  0.3872  0.7893 -1.4915
 9522TIP3    H250058   1.466   3.872   5.699  1.1071 -0.7192 -0.0643
 9523TIP3   OH250059   1.646   3.592   5.220  0.0795  0.0162  0.2276
 9523TIP3    H150060   1.623   3.500   5.232 -1.0345 -0.0932 -2.4687
 9523TIP3    H250061   1.614   3.635   5.300 -1.0697 -1.6295  0.6862
 9524TIP3   OH250062   2.787   6.565   4.331 -0.0546  0.6558 -0.3494
 9524TIP3    H150063   2.799   6.623   4.407  0.2357 -0.8353  0.7531
 9524TIP3    H250064   2.832   6.610   4.259  1.2732  1.1837  0.7881
 9525TIP3   OH250065   6.617   5.271  11.688 -0.1587 -0.7890  0.1152
 9525TIP3    H150066   6.594   5.341  11.627 -0.6020 -1.9659 -1.1002
 9525TIP3    H250067   6.545   5.270  11.751  0.6071  0.8367  1.0444
 9526TIP3   OH250068   2.394   2.498   5.772  0.1462  0.1395 -0.7479
 9526TIP3    H150069   2.469   2.438   5.775 -0.5857 -0.8377 -1.8417
 9526TIP3    H250070   2.320   2.446   5.803 -0.1280  1.0797  0.2417
 9527TIP3   OH250071   1.298   4.703  11.653 -0.4798 -0.2614  0.6492
 9527TIP3    H150072   1.345   4.761  11.712 -1.3025  0.9758  0.0988
 9527TIP3    H250073   1.354   4.696  11.576  0.2649 -1.3172  1.2723
 9528TIP3   OH250074   2.552   2.672   0.440 -0.9834 -0.1530  0.3301
 9528TIP3    H150075   2.477   2.706   0.391  0.1878  1.9857 -0.0432
 9528TIP3    H250076   2.567   2.736   0.509  1.5375  0.3836 -0.6425
 9529TIP3   OH250077   5.359   4.118  12.220 -0.4233  0.1259  0.3001
 9529TIP3    H150078   5.270   4.150  12.206 -0.2522  0.5389  0.1397
 9529TIP3    H250079   5.400   4.187  12.273 -0.2825 -0.1916  0.6017
 9530TIP3   OH250080   3.059   4.898   1.660  0.1305  0.1741  0.0494
 9530TIP3    H150081   3.034   4.930   1.747 -1.5629  0.1430 -0.4115
 9530TIP3    H250082   3.126   4.832   1.678  0.5437  0.9101  1.2679
 9531TIP3   OH250083   5.116   4.872  11.550  0.7639 -0.2265 -0.0913
 9531TIP3    H150084   5.107   4.934  11.477  1.4749 -0.8195 -0.6960
 9531TIP3    H250085   5.055   4.801  11.528 -1.6651  1.2434  1.6830
 9532TIP3   OH250086   5.671   0.847   1.279  0.2875  0.1534 -0.4195
 9532TIP3    H150087   5.698   0.776   1.221 -0.1782  0.3818 -0.9271
 9532TIP3    H250088   5.742   0.911   1.274 -0.3923  0.8233 -1.8697
 9533TIP3   OH250089   0.590   3.588   2.108 -0.0363 -0.1744 -0.0827
 9533TIP3    H150090   0.638   3.568   2.189 -1.4888 -1.7479  0.4183
 9533TIP3    H250091   0.658   3.599   2.042  1.1340  0.2990  1.1744
 9534TIP3   OH250092   3.513   1.408  16.081  0.1179  0.1123  0.0144
 9534TIP3    H150093   3.525   1.337  16.018 -0.3832  1.0696 -1.1841
 9534TIP3    H250094   3.452   1.372  16.146 -1.2115 -0.0995 -1.3297
 9535TIP3   OH250095   5.212   4.822  16.733 -0.1747 -0.9354  0.1811
 9535TIP3    H150096   5.198   4.807  16.640 -2.2594  0.1129  0.2910
 9535TIP3    H250097   5.235   4.735  16.768 -2.0048 -1.8780 -0.8718
 9536TIP3   OH250098   0.436   0.908  17.251  0.3498  0.5300  0.0342
 9536TIP3    H150099   0.451   0.912  17.345  1.2862 -0.9232 -0.0260
 9536TIP3    H250100   0.524   0.909  17.212  0.0150  0.1516 -0.7584
 9537TIP3   OH250101   3.221   1.202  11.679  0.6487  0.2300 -0.0024
 9537TIP3    H150102   3.142   1.149  11.677  0.7414  0.1192 -0.7393
 9537TIP3    H250103   3.266   1.174  11.759  0.3678 -0.3192 -0.0340
 9538TIP3   OH250104   1.236   3.217   2.756  0.2695  0.1527 -0.2527
 9538TIP3    H150105   1.218   3.247   2.667 -2.9277 -0.8507 -0.0162
 9538TIP3    H250106   1.237   3.297   2.809  1.8647  0.7191 -1.1128
 9539TIP3   OH250107   6.613   4.998  11.602  0.3588  0.3482  0.3375
 9539TIP3    H150108   6.651   4.982  11.516  0.0315  1.3037  0.0107
 9539TIP3    H250109   6.651   5.081  11.631 -1.1173  1.0937  0.1929
 9540TIP3   OH250110   2.702   0.473   1.075  0.0721 -0.1741  0.4768
 9540TIP3    H150111   2.669   0.384   1.058 -1.9367  0.6115  0.1998
 9540TIP3    H250112   2.771   0.485   1.010  0.2810 -1.4841  0.4332
 9541TIP3   OH250113   4.136   4.544   4.762  0.2994  0.5382 -0.4713
 9541TIP3    H150114   4.206   4.590   4.717 -0.6113  4.3993  1.8711
 9541TIP3    H250115   4.179   4.501   4.837  0.8158 -0.7781 -1.5039
 9542TIP3   OH250116   5.966   3.131  14.063  0.3533  0.3918  0.4211
 9542TIP3    H150117   5.892   3.188  14.086  0.8375  0.8385  0.8893
 9542TIP3    H250118   6.041   3.190  14.060  0.3775  0.2746 -1.9564
 9543TIP3   OH250119   3.495   5.729  16.793 -0.5822  0.3321  0.0679
 9543TIP3    H150120   3.517   5.641  16.824 -2.2556  0.5639  1.9722
 9543TIP3    H250121   3.485   5.719  16.699  0.8770 -1.1763  0.0460
 9544TIP3   OH250122   4.128   4.012  11.404 -0.1704  0.3237 -0.5311
 9544TIP3    H150123   4.072   3.943  11.368 -0.9907  0.7709 -0.1312
 9544TIP3    H250124   4.126   4.082  11.339 -1.9769  1.2984  0.5048
 9545TIP3   OH250125   5.861   4.005   2.051 -0.4296  0.0003 -0.0945
 9545TIP3    H150126   5.778   3.967   2.022  0.4400 -0.3967 -2.1800
 9545TIP3    H250127   5.895   4.050   1.974  0.0006  2.5042  1.5196
 9546TIP3   OH250128   2.466   2.727  13.406 -0.3213 -0.0842 -0.1132
 9546TIP3    H150129   2.382   2.773  13.406  0.6006  1.6447  0.4813
 9546TIP3    H250130   2.500   2.740  13.494  0.9450 -0.0729 -0.5958
 9547TIP3   OH250131   6.050   6.770  12.565 -0.3996 -0.3841  0.1582
 9547TIP3    H150132   5.994   6.743  12.493  1.3811  0.5406 -1.6261
 9547TIP3    H250133   6.026   6.712  12.637 -3.6639  0.0392 -0.5146
 9548TIP3   OH250134   4.436   3.523   5.355 -0.0318 -0.0220  0.0707
 9548TIP3    H150135   4.417   3.547   5.265 -3.7593 -0.9271  0.5559
 9548TIP3    H250136   4.455   3.429   5.352 -0.1284 -0.0472  0.2184
 9549TIP3   OH250137   6.159   2.903   0.866 -0.0782  0.1158  0.0294
 9549TIP3    H150138   6.067   2.879   0.872 -0.0997  0.3653  0.7106
 9549TIP3    H250139   6.158   2.996   0.840 -0.0580  0.8437  2.5208
 9550TIP3   OH250140   3.166   4.771  17.028  0.7183 -0.1260  0.7168
 9550TIP3    H150141   3.083   4.723  17.033  0.9776 -0.5719  0.7424
 9550TIP3    H250142   3.231   4.705  17.008  0.7294  0.5725 -1.7515
 9551TIP3   OH250143   3.120   6.096   2.304 -0.4962  0.1412  0.3540
 9551TIP3    H150144   3.168   6.026   2.258  1.0100  1.4040 -0.0322
 9551TIP3    H250145   3.028   6.076   2.287 -0.0925 -1.6450  0.0885
 9552TIP3   OH250146   3.706   2.710   3.241 -0.2015  0.1173  0.2022
 9552TIP3    H150147   3.676   2.645   3.304  0.9272 -1.9387 -1.3329
 9552TIP3    H250148   3.780   2.753   3.284 -1.8585  1.4568  1.8105
 9553TIP3   OH250149   4.598   0.278  12.651 -0.3148  0.4553 -0.2072
 9553TIP3    H150150   4.569   0.205  12.706 -0.8210  0.4079 -0.5305
 9553TIP3    H250151   4.568   0.254  12.563 -0.3717  0.9970 -0.3353
 9554TIP3   OH250152   3.256   4.473  11.845  0.3095  0.5919 -0.2490
 9554TIP3    H150153   3.211   4.551  11.812 -1.5574 -0.3271  0.0610
 9554TIP3    H250154   3.324   4.508  11.903 -1.5933  1.9723  1.2306
 9555TIP3   OH250155   0.533   5.133   2.281  0.1604  0.0514 -0.2079
 9555TIP3    H150156   0.582   5.133   2.199  0.2047  0.7533 -0.1804
 9555TIP3    H250157   0.459   5.192   2.265  1.7049  2.4548  1.1626
 9556TIP3   OH250158   1.302   5.959   5.956  0.0808 -0.2279 -0.0312
 9556TIP3    H150159   1.370   6.017   5.990 -0.0504  0.5221 -1.0311
 9556TIP3    H250160   1.256   5.928   6.034  0.7908  0.2189  0.5763
 9557TIP3   OH250161   2.703   4.379  12.407 -0.2621  0.7970  0.2803
 9557TIP3    H150162   2.693   4.471  12.432 -2.0697  0.1886  1.8875
 9557TIP3    H250163   2.640   4.366  12.336 -0.3628  0.6635  0.3934
 9558TIP3   OH250164   4.010   6.799  15.495 -0.4780  0.0724  0.4449
 9558TIP3    H150165   4.103   6.818  15.505 -0.2757 -0.2446 -0.8193
 9558TIP3    H250166   3.997   6.720  15.548  0.7850 -2.0966 -2.3180
 9559TIP3   OH250167   1.737   6.313   2.270  0.6791  0.1783 -0.3244
 9559TIP3    H150168   1.656   6.359   2.247  0.9922  0.6502 -0.4849
 9559TIP3    H250169   1.723   6.284   2.360  0.0957 -0.2536 -0.5526
 9560TIP3   OH250170   6.174   5.870   1.919 -0.0135  0.2375 -0.6056
 9560TIP3    H150171   6.116   5.836   1.987 -0.3006  2.4038  0.2731
 9560TIP3    H250172   6.136   5.840   1.837 -0.5835 -1.0312  0.1250
 9561TIP3   OH250173   0.430   3.072   6.644  0.4125  0.4061 -0.2003
 9561TIP3    H150174   0.522   3.048   6.635  0.1529 -0.0866 -1.7004
 9561TIP3    H250175   0.430   3.167   6.653  1.0517  0.4091 -0.2116
 9562TIP3   OH250176   5.073   4.164  14.802 -0.5994 -0.8497 -0.5400
 9562TIP3    H150177   4.979   4.183  14.804 -0.3444  0.4955  2.0654
 9562TIP3    H250178   5.080   4.069  14.814 -1.6166 -0.6999  1.4474
 9563TIP3   OH250179   1.090   5.553   2.100 -0.0179 -0.0025 -0.2975
 9563TIP3    H150180   1.052   5.572   2.014 -2.1687  0.2007  0.6691
 9563TIP3    H250181   1.043   5.611   2.160  1.7779  0.1724  0.9565
 9564TIP3   OH250182   1.116   4.175   5.082 -0.1774 -0.6104 -0.3280
 9564TIP3    H150183   1.068   4.244   5.127  0.1907 -1.8398  2.0057
 9564TIP3    H250184   1.203   4.212   5.066 -0.7102  0.2755 -1.1455
 9565TIP3   OH250185   6.268   1.805  16.217  0.3373 -0.2846 -0.6998
 9565TIP3    H150186   6.201   1.858  16.174  1.1596 -0.5077 -2.2775
 9565TIP3    H250187   6.220   1.730  16.251 -0.2016 -0.5351 -1.9759
 9566TIP3   OH250188   0.503   2.699  12.799  0.3102 -0.2075  0.3843
 9566TIP3    H150189   0.520   2.771  12.860 -1.5015 -0.1332  0.8283
 9566TIP3    H250190   0.518   2.737  12.713 -0.6597  0.7353  0.6118
 9567TIP3   OH250191   4.552   2.446  15.274 -0.5549 -0.2077 -0.2631
 9567TIP3    H150192   4.590   2.419  15.190 -1.6741 -0.3193 -0.7498
 9567TIP3    H250193   4.488   2.378  15.294 -1.1987  0.4746  0.0378
 9568TIP3   OH250194   2.711   4.739  12.510 -0.1192 -0.6313  0.0463
 9568TIP3    H150195   2.705   4.789  12.429  0.0260 -1.1017 -0.2551
 9568TIP3    H250196   2.632   4.685  12.511 -0.8099  0.3873  0.8974
 9569TIP3   OH250197   4.682   5.637   0.667  0.0459  0.3631  0.9141
 9569TIP3    H150198   4.633   5.562   0.634  0.4616  0.3352  0.3457
 9569TIP3    H250199   4.628   5.713   0.645  1.5446  0.5951 -2.3258
 9570TIP3   OH250200   6.467   6.229  16.542 -0.1811 -0.6054  0.1080
 9570TIP3    H150201   6.383   6.250  16.503 -0.5075  0.2306  1.2330
 9570TIP3    H250202   6.527   6.296  16.510 -0.2780 -0.3539  0.4500
 9571TIP3   OH250203   5.191   2.508   3.515  0.0653  0.0243  0.2444
 9571TIP3    H150204   5.219   2.572   3.580  0.1299 -0.7487  0.9830
 9571TIP3    H250205   5.201   2.423   3.558  0.1031 -0.4966 -0.7692
 9572TIP3   OH250206   4.875   1.971   2.153 -0.0776  0.3165  0.1772
 9572TIP3    H150207   4.902   2.062   2.169  1.8811 -0.4912  1.5693
 9572TIP3    H250208   4.885   1.961   2.058 -0.0113  1.4703  0.0449
 9573TIP3   OH250209   0.253   0.018   2.197 -0.0186 -0.4427 -0.1875
 9573TIP3    H150210   0.332  -0.027   2.167 -0.5163  0.1359 -2.4408
 9573TIP3    H250211   0.267   0.031   2.291  3.4531  1.4412 -0.9068
 9574TIP3   OH250212   0.481   0.965  11.207 -0.4432  0.2653  0.0124
 9574TIP3    H150213   0.554   1.021  11.235  0.0042 -0.7918  0.9917
 9574TIP3    H250214   0.522   0.882  11.182 -1.0643  0.4793 -1.7830
 9575TIP3   OH250215   3.897   1.473   2.264 -0.7737 -0.2021  0.2997
 9575TIP3    H150216   3.942   1.393   2.290  1.5307  0.9060 -0.2347
 9575TIP3    H250217   3.844   1.447   2.189 -1.4109 -1.6063  1.2009
 9576TIP3   OH250218   4.933   6.123  10.579  0.2303 -0.5162  0.3998
 9576TIP3    H150219   4.868   6.057  10.556 -1.0773  1.0294 -0.4485
 9576TIP3    H250220   4.935   6.183  10.504  2.9707 -0.7659  0.1995
 9577TIP3   OH250221   0.221   3.026  14.306  0.5795 -0.5308 -0.2228
 9577TIP3    H150222   0.234   2.934  14.327 -0.7553 -0.8210 -0.6257
 9577TIP3    H250223   0.279   3.043  14.232  0.8201 -1.0442 -0.1491
 9578TIP3   OH250224   4.096   2.562   6.750  0.2602 -0.2708  0.0291
 9578TIP3    H150225   4.078   2.529   6.662  1.8385 -0.6224 -0.1658
 9578TIP3    H250226   4.010   2.588   6.783 -0.6621 -2.1332 -0.8083
 9579TIP3   OH250227   5.091   6.143   0.439  0.1989 -0.4162 -0.4961
 9579TIP3    H150228   5.083   6.226   0.392 -1.4590  0.0914  0.6325
 9579TIP3    H250229   5.019   6.144   0.502  1.7870 -1.4990  1.4101
 9580TIP3   OH250230   4.628   5.309   2.505 -0.6491 -0.0036  0.3741
 9580TIP3    H150231   4.637   5.226   2.550 -0.9305  0.0912  0.6019
 9580TIP3    H250232   4.569   5.291   2.432 -0.4474 -0.0819  0.2301
 9581TIP3   OH250233   4.291   1.950   5.230  0.2907  0.2898 -0.1781
 9581TIP3    H150234   4.354   1.887   5.195  0.7101  1.5851 -1.7862
 9581TIP3    H250235   4.205   1.910   5.215  0.5758 -0.1108 -0.7248
 9582TIP3   OH250236   2.365   0.805  14.790 -0.3397 -0.3351 -0.0884
 9582TIP3    H150237   2.365   0.851  14.706  2.8811  0.8557  0.4679
 9582TIP3    H250238   2.351   0.874  14.855  0.7652 -0.6692  0.5267
 9583TIP3   OH250239   4.722   5.963   0.739  0.0147 -0.5108  0.2215
 9583TIP3    H150240   4.654   5.924   0.683  0.0771 -0.5426  0.1673
 9583TIP3    H250241   4.691   5.948   0.828  0.0169 -0.6473  0.1999
 9584TIP3   OH250242   4.650   0.838   1.975 -0.1607  0.4697 -0.4384
 9584TIP3    H150243   4.659   0.783   2.053  1.4037  1.6833  0.2744
 9584TIP3    H250244   4.613   0.780   1.909  1.0544 -1.3393  0.4179
 9585TIP3   OH250245   6.747   4.956   1.324 -0.0851 -0.2197 -0.2018
 9585TIP3    H150246   6.724   4.880   1.378 -0.2075 -1.2744 -1.6891
 9585TIP3    H250247   6.758   5.028   1.386  0.1004 -1.4741  1.2405
 9586TIP3   OH250248   5.743   5.044   5.184  0.6999  0.0307 -0.7694
 9586TIP3    H150249   5.754   5.061   5.090  0.3291  1.1330 -0.6235
 9586TIP3    H250250   5.650   5.059   5.200  1.0929  1.5722  0.1056
 9587TIP3   OH250251   0.547   0.552   0.955  0.0705  0.5952 -0.0993
 9587TIP3    H150252   0.498   0.610   1.013 -1.1296 -0.6411  0.1484
 9587TIP3    H250253   0.536   0.465   0.992  1.7341  0.1626 -0.5466
 9588TIP3   OH250254   0.123   6.763   3.451  0.0573 -0.1795 -0.1689
 9588TIP3    H150255   0.185   6.710   3.501 -0.7756  0.3516  1.4391
 9588TIP3    H250256   0.048   6.705   3.438 -0.2868  0.1440  0.3842
 9589TIP3   OH250257   2.224   2.873   1.545  1.0054  0.4426 -0.5635
 9589TIP3    H150258   2.214   2.778   1.546 -1.5245  0.6810  0.4941
 9589TIP3    H250259   2.238   2.895   1.453  3.9956 -1.1324 -0.5372
 9590TIP3   OH250260   4.130   1.967   3.991 -0.2964 -0.7308  0.1530
 9590TIP3    H150261   4.164   1.913   3.919  1.2155  1.6748 -0.9792
 9590TIP3    H250262   4.072   2.030   3.949  0.3986  0.5272  1.0517
 9591TIP3   OH250263   4.515   6.433   2.613 -0.5560 -0.3029 -0.3967
 9591TIP3    H150264   4.425   6.442   2.644  0.1425 -1.3637  1.9965
 9591TIP3    H250265   4.529   6.338   2.605  1.2858 -0.2882  2.1453
 9592TIP3   OH250266   6.793   1.425  11.862  0.1679 -0.6332  0.0823
 9592TIP3    H150267   6.752   1.506  11.832  0.3857 -0.4611  0.2466
 9592TIP3    H250268   6.835   1.448  11.945  0.7204 -0.7705 -0.1552
 9593TIP3   OH250269   3.355   6.520  16.111  0.4534 -0.5219 -0.1933
 9593TIP3    H150270   3.346   6.613  16.132 -0.2995 -0.8685  1.0311
 9593TIP3    H250271   3.449   6.506  16.102  0.6153  0.1825  0.4000
 9594TIP3   OH250272   4.901   6.252   1.630  0.0377  0.2677 -0.0217
 9594TIP3    H150273   4.838   6.214   1.691 -0.4378  1.1791  0.0695
 9594TIP3    H250274   4.846   6.290   1.561  0.5383 -0.0422 -0.5983
 9595TIP3   OH250275   3.398   4.052  15.929  0.3298  0.7477 -0.0725
 9595TIP3    H150276   3.429   3.968  15.894  2.9022  1.6671 -0.0981
 9595TIP3    H250277   3.306   4.037  15.948  0.7805 -2.1723  0.1251
 9596TIP3   OH250278   5.896   1.929   2.809 -0.1512 -0.1804  0.6929
 9596TIP3    H150279   5.898   1.834   2.797 -2.5970 -0.0945 -0.7687
 9596TIP3    H250280   5.914   1.943   2.902  0.9424 -2.0118  0.7730
 9597TIP3   OH250281   4.876   2.031  16.121 -0.2894 -0.2086  0.2085
 9597TIP3    H150282   4.848   1.940  16.115 -0.0942 -0.1379 -2.7765
 9597TIP3    H250283   4.839   2.072  16.043  2.2687  1.4956 -0.1793
 9598TIP3   OH250284   0.743   4.179  13.788  1.0514 -0.6008 -0.2587
 9598TIP3    H150285   0.675   4.246  13.784  2.0700  0.5279  1.1053
 9598TIP3    H250286   0.695   4.098  13.808 -0.0727 -0.1359 -1.0123
 9599TIP3   OH250287   4.300   1.694  12.421 -0.3038  0.6692 -0.5648
 9599TIP3    H150288   4.220   1.692  12.368  0.7914  3.2166 -2.4798
 9599TIP3    H250289   4.275   1.741  12.500 -0.6660  1.7387 -1.2955
 9600TIP3   OH250290   4.635   1.237  11.428 -0.3836 -0.3377  0.2227
 9600TIP3    H150291   4.601   1.148  11.441  1.4000 -0.9275  0.9967
 9600TIP3    H250292   4.595   1.266  11.346  1.1821 -2.9447 -1.5353
 9601TIP3   OH250293   2.526   2.222   4.656  0.2765  0.6248  0.3203
 9601TIP3    H150294   2.441   2.197   4.692 -0.8208  1.6327 -1.4830
 9601TIP3    H250295   2.559   2.143   4.614 -0.3277  0.5447 -0.0011
 9602TIP3   OH250296   3.167   5.728  12.534  0.4243  0.2146  0.1213
 9602TIP3    H150297   3.137   5.703  12.447  1.6875 -0.9028 -0.0243
 9602TIP3    H250298   3.260   5.746  12.523  0.1479  2.2326  0.8242
 9603TIP3   OH250299   0.799   3.572   3.619 -0.3154  0.1248 -0.2051
 9603TIP3    H150300   0.845   3.647   3.583  0.0209  0.6752  1.3257
 9603TIP3    H250301   0.837   3.496   3.576 -0.5931  0.8272 -1.6917
 9604TIP3   OH250302   0.865   6.200   1.490 -0.1630  0.8962  0.5217
 9604TIP3    H150303   0.960   6.186   1.486 -0.4358 -1.1447  0.6412
 9604TIP3    H250304   0.835   6.189   1.400 -0.3099  1.4364  0.5018
 9605TIP3   OH250305   5.074   0.820  12.569  0.0491  0.1629  0.0037
 9605TIP3    H150306   5.053   0.867  12.489 -0.9257  0.4005  0.3939
 9605TIP3    H250307   4.998   0.764  12.585 -0.3017  1.0170  1.4125
 9606TIP3   OH250308   3.566   5.043  11.868 -0.5818  0.8582  0.5785
 9606TIP3    H150309   3.475   5.068  11.885 -0.4432  1.0907  0.9968
 9606TIP3    H250310   3.569   4.950  11.892 -0.1702  1.4065  2.7495
 9607TIP3   OH250311   0.342   3.023   1.711 -0.0674  0.7490  0.9861
 9607TIP3    H150312   0.297   3.073   1.642  0.5612  0.7959  0.6070
 9607TIP3    H250313   0.416   3.078   1.737  0.1057  0.4164  1.2047
 9608TIP3   OH250314   0.751   2.949  13.544 -0.1136  0.7335  0.2042
 9608TIP3    H150315   0.777   3.040  13.559 -0.9753  0.9791  0.2400
 9608TIP3    H250316   0.666   2.941  13.587 -0.1829 -0.0087 -0.0635
 9609TIP3   OH250317   1.793   0.816  17.140 -0.5414 -0.3798 -0.2983
 9609TIP3    H150318   1.783   0.721  17.146  0.3767 -0.3949  1.2127
 9609TIP3    H250319   1.821   0.843  17.227 -0.7269  1.2784 -0.7290
 9610TIP3   OH250320   5.902   4.735   6.116  0.0163 -0.5345  0.4328
 9610TIP3    H150321   5.840   4.740   6.189  0.7626 -0.6149  1.0833
 9610TIP3    H250322   5.985   4.709   6.157  1.4543  3.2327  0.1603
 9611TIP3   OH250323   0.112   5.087   1.046 -0.2375 -0.4748  0.1656
 9611TIP3    H150324   0.179   5.049   1.103  0.8668  1.7521  0.4058
 9611TIP3    H250325   0.054   5.134   1.106  0.4903  1.2344 -0.4371
 9612TIP3   OH250326   6.700   4.060  15.799 -0.2928  0.5534 -0.5945
 9612TIP3    H150327   6.674   4.092  15.713 -0.4516 -1.8804 -1.4838
 9612TIP3    H250328   6.787   4.023  15.786 -1.0329 -1.4296 -0.1547
 9613TIP3   OH250329   3.015   1.079  10.638 -0.1735 -0.2470  0.8072
 9613TIP3    H150330   2.956   1.016  10.681 -3.2100  1.8620 -0.0696
 9613TIP3    H250331   3.059   1.123  10.711 -0.9407 -0.7029  1.5600
 9614TIP3   OH250332   0.866   0.882  14.478  0.0663 -0.3670  0.4685
 9614TIP3    H150333   0.815   0.887  14.397  2.1290  0.0293 -0.8340
 9614TIP3    H250334   0.821   0.816  14.530 -1.8139  0.0188 -0.6187
 9615TIP3   OH250335   0.963   3.280   3.703 -0.4485 -0.3507  0.2116
 9615TIP3    H150336   0.875   3.301   3.672 -1.6723 -2.3050  2.1745
 9615TIP3    H250337   1.010   3.363   3.701 -2.6113  0.9017 -0.0058
 9616TIP3   OH250338   4.881   5.352  12.018  0.1931  0.3297 -0.6417
 9616TIP3    H150339   4.828   5.344  11.939 -0.6416 -0.2689 -0.0335
 9616TIP3    H250340   4.834   5.416  12.072  0.1164 -0.1526 -0.1320
 9617TIP3   OH250341   4.951   2.683  13.960 -0.4093  0.1526 -0.2858
 9617TIP3    H150342   5.004   2.742  13.906  0.0886  0.2962  0.3526
 9617TIP3    H250343   5.015   2.625  14.002 -0.6470  1.1154  1.4513
 9618TIP3   OH250344   0.593   5.469   2.823  0.2273 -0.0413 -0.2219
 9618TIP3    H150345   0.672   5.522   2.837 -0.5740  0.7596  1.4185
 9618TIP3    H250346   0.521   5.532   2.827 -0.4601 -0.6266 -2.6197
 9619TIP3   OH250347   6.319   1.869  14.949 -0.2430 -0.3327 -0.7584
 9619TIP3    H150348   6.316   1.930  14.876 -0.2030  0.5957  0.0089
 9619TIP3    H250349   6.320   1.783  14.908  0.3076  0.1877 -1.8669
 9620TIP3   OH250350   6.420   3.744  12.322  0.3904  0.7025  0.0124
 9620TIP3    H150351   6.435   3.742  12.416 -1.0695  0.2837  0.2602
 9620TIP3    H250352   6.421   3.837  12.299  0.3640  0.8293  0.5153
 9621TIP3   OH250353   3.753   1.417   1.527 -0.1980  0.2042 -0.1379
 9621TIP3    H150354   3.743   1.322   1.535  1.0620 -0.0743 -1.6117
 9621TIP3    H250355   3.823   1.439   1.588  1.6156 -0.2895 -1.9632
 9622TIP3   OH250356   6.539   1.697  16.259  0.4126 -0.1105  0.3198
 9622TIP3    H150357   6.444   1.706  16.250  0.3552  0.1344  1.0650
 9622TIP3    H250358   6.551   1.658  16.346  0.9676 -0.8138 -0.0656
 9623TIP3   OH250359   3.528   0.655   0.400 -0.1573  0.1450  0.4688
 9623TIP3    H150360   3.579   0.606   0.465 -1.5468 -0.8375  0.8420
 9623TIP3    H250361   3.505   0.590   0.334  0.6129  0.9805 -0.6479
 9624TIP3   OH250362   4.852   0.182   3.658 -0.0573 -0.2516  0.8861
 9624TIP3    H150363   4.911   0.257   3.669  0.2959 -0.5452  1.0126
 9624TIP3    H250364   4.765   0.219   3.667  0.0825  0.3133 -0.0673
 9625TIP3   OH250365   2.577   6.466   2.773 -0.0524 -0.2377  0.0792
 9625TIP3    H150366   2.525   6.405   2.825  0.1761 -0.7410 -0.2685
 9625TIP3    H250367   2.642   6.501   2.834 -0.1436 -0.3966  0.2681
 9626TIP3   OH250368   1.222   2.291   5.182 -0.4196 -0.5939  0.3484
 9626TIP3    H150369   1.215   2.387   5.174 -0.6468 -0.4759  1.8539
 9626TIP3    H250370   1.237   2.261   5.092 -1.2304  0.7840 -0.2691
 9627TIP3   OH250371   3.843   5.089   5.298  0.5590 -0.5323  0.1718
 9627TIP3    H150372   3.886   5.009   5.329 -0.6678 -1.6699 -0.9479
 9627TIP3    H250373   3.795   5.061   5.220 -0.8463  1.0548  0.4403
 9628TIP3   OH250374   1.672   0.614  12.616 -0.6047 -0.5631 -0.1732
 9628TIP3    H150375   1.596   0.583  12.666 -2.1618  1.1283 -1.4015
 9628TIP3    H250376   1.684   0.705  12.644  1.3992 -1.0215  0.4983
 9629TIP3   OH250377   3.113   6.637  13.944 -0.5203 -0.6624 -0.1568
 9629TIP3    H150378   3.128   6.562  14.001 -0.6945 -0.9835 -0.5350
 9629TIP3    H250379   3.198   6.682  13.940  0.1320 -1.9627 -1.5595
 9630TIP3   OH250380   6.767   6.345   5.241  0.4718  0.1968  0.1195
 9630TIP3    H150381   6.854   6.382   5.258 -0.2578  0.8324  2.6643
 9630TIP3    H250382   6.759   6.274   5.305 -0.6902 -0.1485 -0.4124
 9631TIP3   OH250383   1.418   3.942  15.629  0.8412  0.3947 -0.1384
 9631TIP3    H150384   1.484   4.007  15.607  1.3234  0.1853  0.6427
 9631TIP3    H250385   1.338   3.973  15.588  1.5802  0.2720 -1.7250
 9632TIP3   OH250386   1.199   1.523   0.409  0.2744  0.0300 -0.5549
 9632TIP3    H150387   1.152   1.495   0.330 -1.8251  0.4601  0.4902
 9632TIP3    H250388   1.186   1.451   0.470  0.8449  0.2345 -0.1924
 9633TIP3   OH250389   6.610   2.944   3.996 -0.6236  0.5987 -0.2664
 9633TIP3    H150390   6.681   2.940   3.931 -0.1172  1.2778  0.2339
 9633TIP3    H250391   6.652   2.916   4.077 -0.6247  2.1483  0.2809
 9634TIP3   OH250392   0.377   2.107   4.023 -0.1368  0.0699 -0.0411
 9634TIP3    H150393   0.311   2.149   4.078 -0.2084 -0.6045  0.3915
 9634TIP3    H250394   0.366   2.013   4.040  0.5905 -0.0740 -0.3555
 9635TIP3   OH250395   4.621   4.164  10.122 -0.1166 -0.0096 -0.3095
 9635TIP3    H150396   4.544   4.132  10.169  1.3110 -0.4266  1.8252
 9635TIP3    H250397   4.647   4.091  10.067  0.4541 -0.9498  1.1654
 9636TIP3   OH250398   4.677   5.037   2.999 -0.2025 -0.0216  0.3916
 9636TIP3    H150399   4.596   5.002   2.963  0.0967 -0.0642 -0.2452
 9636TIP3    H250400   4.747   4.987   2.956  0.1826  0.4844  0.4133
 9637TIP3   OH250401   5.397   5.243   0.573  0.2765 -0.5912  0.2950
 9637TIP3    H150402   5.490   5.219   0.580  0.4723 -0.2313 -0.8466
 9637TIP3    H250403   5.398   5.338   0.565 -0.0394 -0.7286 -1.7184
 9638TIP3   OH250404   2.249   0.116   5.135 -0.1482  0.3323  0.7268
 9638TIP3    H150405   2.227   0.024   5.146 -0.6966  0.0650 -2.0863
 9638TIP3    H250406   2.343   0.116   5.118  0.3443  0.5719  3.2602
 9639TIP3   OH250407   4.224   6.427  16.109 -1.0386 -0.4448  0.1043
 9639TIP3    H150408   4.251   6.496  16.170  0.0825 -0.4270 -0.4020
 9639TIP3    H250409   4.146   6.389  16.149 -0.1298 -0.6535  1.7193
 9640TIP3   OH250410   0.791   0.782  13.528  0.0611 -0.1275  0.4675
 9640TIP3    H150411   0.703   0.746  13.518 -0.1583  0.7666 -0.9451
 9640TIP3    H250412   0.847   0.724  13.477  0.2452 -0.4982  1.0857
 9641TIP3   OH250413   5.319   2.315  13.523  0.1167 -0.1223 -0.4912
 9641TIP3    H150414   5.324   2.301  13.618  1.0602  1.8519 -0.2248
 9641TIP3    H250415   5.258   2.388  13.512 -2.8523 -2.6641 -1.6913
 9642TIP3   OH250416   5.496   6.346   2.345 -0.4035  0.3965 -0.1381
 9642TIP3    H150417   5.424   6.351   2.408 -0.7439 -1.2230 -0.3690
 9642TIP3    H250418   5.557   6.283   2.383 -0.0086  0.3450 -0.8455
 9643TIP3   OH250419   4.901   0.086   2.210 -0.3236 -0.3704 -0.5629
 9643TIP3    H150420   4.990   0.065   2.182 -0.5026 -0.4801 -1.0645
 9643TIP3    H250421   4.907   0.096   2.305  0.0170 -1.4090 -0.4761
 9644TIP3   OH250422   0.650   4.678   1.287  0.1263 -0.6054 -0.1608
 9644TIP3    H150423   0.733   4.670   1.335  1.5851 -2.2500 -2.8273
 9644TIP3    H250424   0.582   4.663   1.353  1.9811 -0.5130  1.8099
 9645TIP3   OH250425   4.556   0.177  12.392  0.0420 -0.2187 -0.0140
 9645TIP3    H150426   4.598   0.094  12.369 -0.4403 -0.2301 -0.8561
 9645TIP3    H250427   4.471   0.174  12.349 -0.5620  0.0954  1.1286
 9646TIP3   OH250428   5.172   6.052  16.444  0.5017 -0.3770  0.0948
 9646TIP3    H150429   5.140   6.137  16.414  1.1599 -0.3849 -0.6325
 9646TIP3    H250430   5.260   6.044  16.407  0.4178 -1.4114  0.0904
 9647TIP3   OH250431   4.698   3.472   1.525 -0.2398  0.2829  0.3462
 9647TIP3    H150432   4.658   3.515   1.600 -1.1152  0.1192 -0.0107
 9647TIP3    H250433   4.646   3.502   1.450  1.0443  0.9830 -0.2751
 9648TIP3   OH250434   3.124   4.486  16.145  0.3733  0.3032 -0.1132
 9648TIP3    H150435   3.072   4.517  16.219 -0.6853  1.0676 -1.1631
 9648TIP3    H250436   3.169   4.564  16.114 -3.3935  1.2205 -3.6599
 9649TIP3   OH250437   3.247   5.966   2.883 -0.3806  0.4932  0.3222
 9649TIP3    H150438   3.246   6.007   2.970  2.5150 -0.8151  1.0026
 9649TIP3    H250439   3.244   5.872   2.900 -0.4764  0.2393 -1.0306
 9650TIP3   OH250440   6.315   1.765   3.464 -0.2096 -0.4754  0.1076
 9650TIP3    H150441   6.298   1.816   3.543 -0.1179  0.3269 -0.3908
 9650TIP3    H250442   6.265   1.809   3.395  0.1101 -0.8735 -0.3862
 9651TIP3   OH250443   0.910   2.225   6.494 -0.5602  0.7394  0.0158
 9651TIP3    H150444   0.948   2.257   6.575 -0.2613 -1.1448  0.6508
 9651TIP3    H250445   0.816   2.224   6.511 -0.6931  2.4892 -0.4811
 9652TIP3   OH250446   6.130   2.023   4.873 -0.3139 -0.3011 -0.6916
 9652TIP3    H150447   6.165   1.943   4.834  0.9705 -0.2533  0.3279
 9652TIP3    H250448   6.095   1.996   4.957  0.6775  0.2934 -0.0742
 9653TIP3   OH250449   0.873   1.342   2.784  0.6051  0.0567 -0.4369
 9653TIP3    H150450   0.877   1.340   2.879 -0.4042  0.5208 -0.3845
 9653TIP3    H250451   0.879   1.435   2.761 -0.3687  0.0460 -0.7687
 9654TIP3   OH250452   1.644   1.579   3.949  0.4308  0.2458 -0.2910
 9654TIP3    H150453   1.658   1.487   3.971  1.0620  0.4076 -0.0130
 9654TIP3    H250454   1.638   1.624   4.033  0.0082  0.4448 -0.4235
 9655TIP3   OH250455   1.914   4.901  11.538  0.0640  0.2254 -0.2294
 9655TIP3    H150456   1.844   4.849  11.499  0.6008  0.8350 -2.0427
 9655TIP3    H250457   1.872   4.983  11.564 -0.1383  0.1107 -0.1921
 9656TIP3   OH250458   2.219   5.573  13.861 -0.6465  0.3410 -0.4911
 9656TIP3    H150459   2.230   5.654  13.811  0.3693  0.3361 -0.2860
 9656TIP3    H250460   2.238   5.503  13.799  0.3072  0.3254 -0.1972
 9657TIP3   OH250461   0.184   4.280  14.474 -0.0365  0.1380 -0.1515
 9657TIP3    H150462   0.165   4.364  14.515 -0.8466 -0.2239  0.2065
 9657TIP3    H250463   0.279   4.270  14.484 -0.0951  0.4858  0.7970
 9658TIP3   OH250464   4.073   2.989  13.369  0.2299 -0.1474 -0.2035
 9658TIP3    H150465   4.115   2.903  13.371  0.1638 -0.1482  2.0760
 9658TIP3    H250466   3.988   2.973  13.328  0.1475 -1.2067  0.3650
 9659TIP3   OH250467   6.053   1.122   1.162 -0.0012  0.4618 -0.3399
 9659TIP3    H150468   5.960   1.118   1.187  0.1438  1.6945  0.4298
 9659TIP3    H250469   6.053   1.112   1.067 -0.7723 -1.5400 -0.1607
 9660TIP3   OH250470   0.067   5.690   5.861 -0.0641  0.2016  0.3082
 9660TIP3    H150471   0.052   5.637   5.939  0.5906 -0.9198 -0.3107
 9660TIP3    H250472   0.127   5.759   5.890  1.3274 -1.0496  0.4769
 9661TIP3   OH250473   2.862   3.889   0.876  0.3947  0.3427  0.5274
 9661TIP3    H150474   2.918   3.899   0.953  0.0646  0.3017  0.7739
 9661TIP3    H250475   2.841   3.796   0.874  0.3613  0.3529  0.4175
 9662TIP3   OH250476   6.480   0.903   2.496 -0.9020  0.6308  0.8370
 9662TIP3    H150477   6.466   0.995   2.473 -1.8773  0.0939 -0.7687
 9662TIP3    H250478   6.442   0.854   2.423 -1.3165 -1.0683  2.1662
 9663TIP3   OH250479   0.541   4.628  11.325 -0.3464  0.1936  0.1736
 9663TIP3    H150480   0.528   4.538  11.355  1.1022 -0.0718  0.0376
 9663TIP3    H250481   0.470   4.677  11.366 -0.7987 -0.9020  0.7302
 9664TIP3   OH250482   1.111   6.132  14.694  0.7571  0.2133 -0.4212
 9664TIP3    H150483   1.181   6.157  14.634  1.4512 -0.9623 -0.1176
 9664TIP3    H250484   1.080   6.048  14.662 -2.2902  1.8826 -2.0532
 9665TIP3   OH250485   4.133   5.487   0.352 -0.1135 -0.3768  0.0387
 9665TIP3    H150486   4.223   5.460   0.335 -0.4160 -0.7691 -0.9765
 9665TIP3    H250487   4.079   5.415   0.317 -0.8413  0.2413 -0.1284
 9666TIP3   OH250488   0.468   2.914   4.960 -0.1216 -0.9074  0.1197
 9666TIP3    H150489   0.495   2.825   4.937  0.5596 -1.0711  1.5420
 9666TIP3    H250490   0.373   2.913   4.949 -0.1410 -1.8588  0.2705
 9667TIP3   OH250491   4.077   5.941   2.105 -0.3165  0.3051 -0.3818
 9667TIP3    H150492   4.093   6.030   2.073  0.4184  0.0964 -0.6107
 9667TIP3    H250493   4.165   5.906   2.123 -0.5506 -0.6415 -1.0207
 9668TIP3   OH250494   4.786   4.580  13.175  0.0581 -0.1105  0.5065
 9668TIP3    H150495   4.835   4.498  13.171 -2.8190 -1.8754  0.1883
 9668TIP3    H250496   4.753   4.584  13.264 -1.0340 -0.0543  0.1076
 9669TIP3   OH250497   3.043   1.131  12.585  0.3552 -0.4624  0.2302
 9669TIP3    H150498   3.059   1.074  12.660 -0.2812 -0.4155  0.4028
 9669TIP3    H250499   3.130   1.154  12.553  0.6407 -0.2162  1.1623
 9670TIP3   OH250500   3.132   1.294  12.944 -0.1837 -0.6341  0.3226
 9670TIP3    H150501   3.187   1.325  12.872  2.0158 -2.2037  1.2808
 9670TIP3    H250502   3.075   1.368  12.963  0.3945  0.4243 -1.8602
 9671TIP3   OH250503   2.583   3.309  14.953  0.0382 -0.0787  0.1243
 9671TIP3    H150504   2.490   3.285  14.953 -0.0083  0.0879 -0.3920
 9671TIP3    H250505   2.622   3.254  14.885  0.5508 -1.0092  1.1569
 9672TIP3   OH250506   5.501   3.690  13.534 -0.6491 -0.2705  0.2238
 9672TIP3    H150507   5.517   3.776  13.573  0.5255 -0.2860 -0.2196
 9672TIP3    H250508   5.408   3.692  13.511 -0.4284  1.2499 -0.6260
 9673TIP3   OH250509   4.926   5.744  14.652  0.1707 -0.5457 -0.2776
 9673TIP3    H150510   4.838   5.724  14.683  0.3378  0.8796  1.2112
 9673TIP3    H250511   4.913   5.811  14.585  0.1302 -0.2132  0.0615
 9674TIP3   OH250512   4.328   6.126   3.660 -0.8038  0.4825  0.2850
 9674TIP3    H150513   4.249   6.131   3.713 -1.7130 -0.0780 -1.0109
 9674TIP3    H250514   4.391   6.078   3.715 -1.8627 -0.4597  0.6871
 9675TIP3   OH250515   0.035   6.753  16.741 -0.1049 -0.4339 -0.4181
 9675TIP3    H150516  -0.035   6.818  16.748  0.7703  0.5298 -0.5471
 9675TIP3    H250517   0.073   6.749  16.828 -0.4749 -1.1448 -0.2837
 9676TIP3   OH250518   0.778   1.100  14.654 -0.4940  0.1099  0.2391
 9676TIP3    H150519   0.797   1.030  14.592 -1.3700 -1.6572  1.9011
 9676TIP3    H250520   0.841   1.088  14.725 -2.1033 -0.4063  1.6098
 9677TIP3   OH250521   6.605   6.730  14.097 -0.1389 -0.2363  0.0543
 9677TIP3    H150522   6.689   6.695  14.069  0.1051  0.3297  0.0838
 9677TIP3    H250523   6.551   6.652  14.111 -0.1061 -0.5452 -1.4629
 9678TIP3   OH250524   6.395   1.540  15.139 -0.0361 -0.4249 -0.2146
 9678TIP3    H150525   6.436   1.575  15.217 -1.3128 -0.9311  0.7010
 9678TIP3    H250526   6.465   1.492  15.094  0.2204 -1.8560  1.6698
 9679TIP3   OH250527   2.541   1.118  14.766  0.1304 -0.2118 -0.4224
 9679TIP3    H150528   2.559   1.166  14.847 -1.0045 -0.2644 -0.1294
 9679TIP3    H250529   2.610   1.052  14.762  2.1303  1.8815 -1.2034
 9680TIP3   OH250530   0.553   0.917  12.102 -0.3212 -0.4789  0.0170
 9680TIP3    H150531   0.480   0.949  12.154 -0.6274  0.0785 -0.7455
 9680TIP3    H250532   0.564   0.983  12.034  2.1408  0.4574  1.2587
 9681TIP3   OH250533   2.656   3.874  13.859  0.1687 -0.0708  0.1387
 9681TIP3    H150534   2.623   3.784  13.852  0.4879 -0.1913  0.1825
 9681TIP3    H250535   2.751   3.864  13.866  0.2263  0.2865 -0.1497
 9682TIP3   OH250536   3.040   2.658  15.863  0.1786  0.4084  0.4557
 9682TIP3    H150537   3.032   2.693  15.774 -1.2101 -0.8257  0.0752
 9682TIP3    H250538   3.027   2.735  15.919 -1.1870  0.8294 -0.3879
 9683TIP3   OH250539   5.800   5.140  14.281  0.4111  0.4811 -0.0488
 9683TIP3    H150540   5.796   5.231  14.309 -0.3055 -0.0364  1.6076
 9683TIP3    H250541   5.802   5.144  14.186  0.7186  2.2349  0.0198
 9684TIP3   OH250542   1.130   6.528  12.522  0.3199  0.1415 -0.5412
 9684TIP3    H150543   1.189   6.478  12.579  2.6017  1.0626 -2.0259
 9684TIP3    H250544   1.184   6.599  12.489 -2.1678  2.0799 -0.5361
 9685TIP3   OH250545   4.658   3.393  12.606  0.3132  0.4118  0.2384
 9685TIP3    H150546   4.720   3.321  12.611 -2.0006 -1.6425  0.2561
 9685TIP3    H250547   4.625   3.402  12.696 -1.9274 -0.8430 -0.4250
 9686TIP3   OH250548   5.178   3.589   1.631  0.0331 -0.1134 -0.0961
 9686TIP3    H150549   5.254   3.629   1.589 -0.3118 -0.2535 -0.8641
 9686TIP3    H250550   5.205   3.500   1.653  0.3722  0.1148  0.4304
 9687TIP3   OH250551   5.501   2.340  14.955 -0.0565 -0.6876 -0.2093
 9687TIP3    H150552   5.521   2.428  14.988 -4.3772  0.0249  0.8331
 9687TIP3    H250553   5.464   2.355  14.868  0.0266 -1.5506 -0.3978
 9688TIP3   OH250554   2.637   4.486  11.501 -0.4440  0.0978  0.1198
 9688TIP3    H150555   2.704   4.454  11.440 -1.8776 -0.8917 -0.9643
 9688TIP3    H250556   2.559   4.498  11.447 -2.1060 -1.9775  1.9663
 9689TIP3   OH250557   4.945   3.889   6.051  0.3572 -0.5299  1.2843
 9689TIP3    H150558   4.920   3.872   5.960  2.4623 -1.2942  0.8069
 9689TIP3    H250559   4.899   3.969   6.075  1.2035  0.6955 -1.0598
 9690TIP3   OH250560   5.692   1.028   3.508 -0.4680  0.1360 -0.5075
 9690TIP3    H150561   5.697   1.107   3.563 -0.1466 -0.6702  0.6407
 9690TIP3    H250562   5.600   1.004   3.510 -0.1945 -0.8615  1.0959
 9691TIP3   OH250563   5.508   6.588  12.492 -0.9079 -0.2140 -0.0008
 9691TIP3    H150564   5.528   6.679  12.469 -0.1681  0.0790  1.7308
 9691TIP3    H250565   5.446   6.595  12.565 -0.2775 -1.0755  0.6356
 9692TIP3   OH250566   2.950   4.572   1.941  0.1946  0.8538 -0.3735
 9692TIP3    H150567   2.875   4.573   1.881 -0.1514 -0.3408  0.0221
 9692TIP3    H250568   2.931   4.642   2.003 -1.0184  0.0309  0.2049
 9693TIP3   OH250569   0.586   4.748   5.151 -0.5321  0.8603 -0.6070
 9693TIP3    H150570   0.561   4.725   5.061  0.9743  1.9377 -1.3238
 9693TIP3    H250571   0.642   4.825   5.141 -2.2055  2.3934  1.4395
 9694TIP3   OH250572   4.855   0.225  16.727 -0.5563  0.1673 -0.7251
 9694TIP3    H150573   4.821   0.314  16.739 -1.9205 -0.3146 -0.9336
 9694TIP3    H250574   4.800   0.171  16.782  0.3609 -0.5403 -0.4950
 9695TIP3   OH250575   0.339   4.916  15.609  0.1438 -0.6401  0.1119
 9695TIP3    H150576   0.251   4.953  15.621  0.3689  0.3029 -1.0505
 9695TIP3    H250577   0.396   4.993  15.604  0.6928 -1.1577 -1.8066
 9696TIP3   OH250578   2.658   4.701   3.821  0.0070 -0.3123 -0.2405
 9696TIP3    H150579   2.601   4.726   3.748 -1.0109  1.1062  1.0027
 9696TIP3    H250580   2.728   4.650   3.780 -0.2668  0.8837 -2.2782
 9697TIP3   OH250581   3.202   2.500  10.635  0.1207  0.3998  0.2079
 9697TIP3    H150582   3.135   2.569  10.639  0.3835  0.5815  2.5072
 9697TIP3    H250583   3.284   2.547  10.650  0.4517 -0.1961  0.2607
 9698TIP3   OH250584   2.108   4.833  11.816 -0.4561  0.5144 -0.2217
 9698TIP3    H150585   2.142   4.794  11.896  3.1197  2.8442 -0.4808
 9698TIP3    H250586   2.103   4.759  11.754  1.1139 -0.5115  0.8251
 9699TIP3   OH250587   2.268   0.564   4.119  0.4448 -0.5345  0.0517
 9699TIP3    H150588   2.315   0.608   4.049 -1.1867 -1.3159 -1.5527
 9699TIP3    H250589   2.194   0.620   4.139  1.5928  0.3421  2.1025
 9700TIP3   OH250590   4.616   5.450   4.587 -0.1335 -0.4273 -0.8326
 9700TIP3    H150591   4.524   5.467   4.607  0.3549 -0.8670  2.0901
 9700TIP3    H250592   4.624   5.354   4.590 -0.0247 -0.5330 -3.4041
 9701TIP3   OH250593   2.559   3.481   3.340  0.0736  0.1568 -0.2746
 9701TIP3    H150594   2.570   3.388   3.355  0.5896  0.2739  0.0599
 9701TIP3    H250595   2.624   3.503   3.274 -1.0568 -0.0167 -1.4849
 9702TIP3   OH250596   6.705   4.967  16.897 -0.4693  0.3801 -0.5933
 9702TIP3    H150597   6.673   4.903  16.960  2.7940 -1.9833 -1.1739
 9702TIP3    H250598   6.629   4.989  16.843 -1.6812 -3.0184 -0.3669
 9703TIP3   OH250599   6.212   4.888   2.400  0.7165  0.2254 -0.3527
 9703TIP3    H150600   6.128   4.915   2.362  1.1360  2.1050  0.0434
 9703TIP3    H250601   6.202   4.794   2.414 -1.5652  0.5282  0.2551
 9704TIP3   OH250602   0.626   0.332  11.483  0.1151  0.0894  0.4966
 9704TIP3    H150603   0.708   0.368  11.451  0.7810  0.5546  2.6328
 9704TIP3    H250604   0.580   0.407  11.522 -0.3195 -0.5812  1.3017
 9705TIP3   OH250605   0.157   3.864   3.580  0.2732  0.3356 -0.3356
 9705TIP3    H150606   0.243   3.903   3.567 -0.2064  1.6283  0.2915
 9705TIP3    H250607   0.176   3.776   3.613  1.3603  0.9361  0.7044
 9706TIP3   OH250608   3.141   5.252  14.905  0.5578 -0.3711  0.1606
 9706TIP3    H150609   3.136   5.163  14.870  1.5182  0.0330 -1.0103
 9706TIP3    H250610   3.212   5.293  14.857 -1.3375  1.7402 -0.9381
 9707TIP3   OH250611   2.033   2.558   4.081 -0.1379  0.4160 -0.1895
 9707TIP3    H150612   1.966   2.627   4.081  1.1685  1.6993 -0.7934
 9707TIP3    H250613   2.074   2.566   4.167  0.1130  0.4984 -0.3165
 9708TIP3   OH250614   5.550   0.224   2.109 -0.5122  0.1202  0.2762
 9708TIP3    H150615   5.606   0.270   2.046  0.2521 -2.1907 -0.7576
 9708TIP3    H250616   5.545   0.285   2.183  0.8453  1.6944 -0.8578
 9709TIP3   OH250617   0.560   0.198  12.372 -0.3541 -0.3180 -0.8074
 9709TIP3    H150618   0.641   0.248  12.381  0.3800 -1.6783  0.4206
 9709TIP3    H250619   0.497   0.243  12.428  0.3323 -0.7844  0.3661
 9710TIP3   OH250620   2.680   1.414   4.383  0.1962  0.3811 -0.1485
 9710TIP3    H150621   2.767   1.413   4.342  1.1270 -0.5463  1.7404
 9710TIP3    H250622   2.696   1.451   4.470 -0.6917 -2.7368  1.4250
 9711TIP3   OH250623   4.040   3.919   4.534 -0.2961  0.1394 -0.6533
 9711TIP3    H150624   4.080   3.865   4.466 -0.2467  0.4391 -0.8649
 9711TIP3    H250625   3.948   3.928   4.508  0.2491  2.2484 -1.9810
 9712TIP3   OH250626   4.844   6.354  13.376  0.5811 -0.1491  0.3718
 9712TIP3    H150627   4.875   6.367  13.286  1.9013  1.9788  1.1071
 9712TIP3    H250628   4.768   6.411  13.384  0.7205 -0.0118  0.7324
 9713TIP3   OH250629   3.727   3.203   2.399  0.1075  0.1997  0.3371
 9713TIP3    H150630   3.660   3.265   2.370 -0.3551 -0.2886  0.3385
 9713TIP3    H250631   3.731   3.215   2.494 -2.7827 -2.4348  0.9095
 9714TIP3   OH250632   5.535   1.703   0.117 -0.1075  0.6295  1.1542
 9714TIP3    H150633   5.445   1.713   0.084  0.5120 -0.3783 -0.9037
 9714TIP3    H250634   5.525   1.663   0.203 -1.6985  1.8224  1.5448
 9715TIP3   OH250635   6.527   5.187   4.351  0.0830  0.1566  0.6749
 9715TIP3    H150636   6.525   5.168   4.258  0.0203 -1.0175  0.9107
 9715TIP3    H250637   6.438   5.215   4.372  0.0709  0.3201  0.4077
 9716TIP3   OH250638   5.135   5.550  14.861  0.2929  0.1694 -0.2666
 9716TIP3    H150639   5.197   5.549  14.788 -0.2380  0.0190 -0.7224
 9716TIP3    H250640   5.184   5.513  14.935  0.6263 -0.2890 -0.7151
 9717TIP3   OH250641   2.292   5.694  12.785  0.0803 -0.0272  0.2712
 9717TIP3    H150642   2.250   5.624  12.734 -0.3889 -0.5624  1.3722
 9717TIP3    H250643   2.322   5.650  12.865  1.9018  0.5432 -0.0770
 9718TIP3   OH250644   3.381   1.580   0.235 -0.2652  0.2769 -0.1774
 9718TIP3    H150645   3.420   1.535   0.310 -2.1300  0.0135  0.6751
 9718TIP3    H250646   3.393   1.519   0.162  1.6076  0.5539 -0.1276
 9719TIP3   OH250647   1.466   2.975  15.091  0.3138  0.3653  0.0053
 9719TIP3    H150648   1.559   2.952  15.085  0.3664  0.6739 -0.4039
 9719TIP3    H250649   1.449   2.985  15.185  0.6221  0.0103  0.0969
 9720TIP3   OH250650   3.714   2.738  17.075 -0.6100 -0.5724  0.3684
 9720TIP3    H150651   3.651   2.728  17.147 -1.3700  0.8574 -0.0988
 9720TIP3    H250652   3.661   2.745  16.997  0.2008 -1.1121 -0.2496
 9721TIP3   OH250653   2.300   5.774   2.234 -0.3641  0.2117 -0.1033
 9721TIP3    H150654   2.211   5.787   2.266 -0.9793 -2.9610 -0.3581
 9721TIP3    H250655   2.351   5.751   2.312  0.0648  1.1368 -0.0991
 9722TIP3   OH250656   2.895   5.214   5.366  0.1172  0.2817  0.0848
 9722TIP3    H150657   2.870   5.128   5.400  2.2157 -0.2389  0.3755
 9722TIP3    H250658   2.864   5.215   5.276  0.9971 -1.2038 -0.2496
 9723TIP3   OH250659   3.507   3.124   2.116 -0.6182  0.0518  0.2096
 9723TIP3    H150660   3.545   3.173   2.043  1.2394  1.4122  2.0147
 9723TIP3    H250661   3.414   3.145   2.113 -0.2949  1.4199 -0.7712
 9724TIP3   OH250662   5.616   0.412   5.724  0.0433 -0.6849 -0.6023
 9724TIP3    H150663   5.545   0.386   5.666 -1.2462  1.2079  0.0914
 9724TIP3    H250664   5.670   0.333   5.732 -2.2667 -2.3271 -0.6917
 9725TIP3   OH250665   5.894   3.895   1.736 -0.0691 -0.1475 -0.1064
 9725TIP3    H150666   5.985   3.903   1.767  0.0669  0.1503 -0.5823
 9725TIP3    H250667   5.901   3.904   1.641 -0.3695 -1.9550 -0.3166
 9726TIP3   OH250668   2.805   4.983  11.017 -0.2197  0.1549 -0.1246
 9726TIP3    H150669   2.749   4.932  10.959 -0.1766  0.0770 -0.0971
 9726TIP3    H250670   2.765   4.973  11.104 -0.3762  0.4016 -0.1659
 9727TIP3   OH250671   5.667   4.809   6.538  0.1895  0.1762  0.1073
 9727TIP3    H150672   5.745   4.842   6.583  0.6432 -0.5508 -0.1470
 9727TIP3    H250673   5.595   4.829   6.598  0.6957 -0.0822  0.8053
 9728TIP3   OH250674   0.462   3.054  14.140  0.4930 -0.7898  0.3317
 9728TIP3    H150675   0.539   2.998  14.144  0.5717 -0.8731 -1.8966
 9728TIP3    H250676   0.490   3.137  14.179  1.5767 -0.9500 -0.0994
 9729TIP3   OH250677   4.018   0.226   0.237  0.0382 -0.6319 -0.1515
 9729TIP3    H150678   3.951   0.234   0.169  0.5798  0.4445 -0.5798
 9729TIP3    H250679   4.036   0.317   0.263  0.2591 -1.0001  1.0154
 9730TIP3   OH250680   3.625   3.406   4.800  0.4038 -0.3254 -0.4369
 9730TIP3    H150681   3.597   3.328   4.849 -1.1504  0.1072 -0.6222
 9730TIP3    H250682   3.688   3.373   4.736  2.8485 -0.8532  2.0969
 9731TIP3   OH250683   2.237   2.790   4.999  0.6619  0.1708  0.4823
 9731TIP3    H150684   2.182   2.848   4.947  1.5962  1.0330  0.4289
 9731TIP3    H250685   2.248   2.836   5.082  1.7159  0.2541  0.3031
 9732TIP3   OH250686   1.452   3.035   5.470 -0.2229  0.5146 -0.4337
 9732TIP3    H150687   1.378   2.981   5.497  0.6363 -0.6422 -0.3928
 9732TIP3    H250688   1.521   3.016   5.533  0.2306  1.3254 -0.6735
 9733TIP3   OH250689   5.293   1.930   0.128  0.0745 -0.0396 -0.0824
 9733TIP3    H150690   5.277   2.011   0.175  0.0901 -0.6976  1.0748
 9733TIP3    H250691   5.212   1.880   0.138  0.1080 -0.2208 -0.6887
 9734TIP3   OH250692   6.557   2.770  15.896 -0.2872 -0.0605 -0.3344
 9734TIP3    H150693   6.624   2.835  15.875 -1.1268  1.2267  0.8944
 9734TIP3    H250694   6.515   2.751  15.813 -0.5956  1.6174 -0.5799
 9735TIP3   OH250695   0.792   6.411   3.486 -0.0495 -0.6265 -0.2295
 9735TIP3    H150696   0.876   6.408   3.440 -0.5610 -1.1774 -1.1537
 9735TIP3    H250697   0.815   6.400   3.578  0.9745  0.2681 -0.3755
 9736TIP3   OH250698   6.147   2.987   1.191  0.2457 -0.2093 -0.7121
 9736TIP3    H150699   6.190   3.055   1.241  0.0349 -1.7118  1.6063
 9736TIP3    H250700   6.218   2.933   1.155  0.4229  1.3587 -2.8370
 9737TIP3   OH250701   6.100   3.459  12.730 -0.1634 -0.0459  0.4385
 9737TIP3    H150702   6.180   3.409  12.715  0.5867  1.0589  0.6826
 9737TIP3    H250703   6.128   3.532  12.786 -1.1765  0.8214 -0.1785
 9738TIP3   OH250704   3.353   5.054   4.531 -0.6865  0.0256 -0.1737
 9738TIP3    H150705   3.398   5.021   4.453  0.0955  2.6099 -0.8682
 9738TIP3    H250706   3.276   4.998   4.539 -0.1507 -1.0519 -2.1038
 9739TIP3   OH250707   1.012   0.736  11.461 -0.4841 -0.1506  0.4023
 9739TIP3    H150708   1.099   0.716  11.425  0.3327 -0.1505  2.2888
 9739TIP3    H250709   0.960   0.761  11.385  1.6642  1.6004 -0.5688
 9740TIP3   OH250710   3.989   1.321  10.804  0.0848  0.3531 -0.2918
 9740TIP3    H150711   4.002   1.273  10.723  0.0190  0.2745 -0.2559
 9740TIP3    H250712   3.908   1.285  10.840 -0.1190  0.6911 -0.4105
 9741TIP3   OH250713   5.458   5.680   4.382  0.4124  0.2851  0.1552
 9741TIP3    H150714   5.429   5.771   4.383 -0.2051  0.0858  0.7414
 9741TIP3    H250715   5.407   5.640   4.311 -0.0586  0.1595  0.5627
 9742TIP3   OH250716   2.103   0.891   3.876  0.4748  0.1065 -0.6553
 9742TIP3    H150717   2.129   0.981   3.897 -0.0318  0.5955 -2.0426
 9742TIP3    H250718   2.008   0.891   3.886  0.6288 -0.7123  0.8930
 9743TIP3   OH250719   3.846   5.286  15.205 -0.0519 -0.3521  0.0608
 9743TIP3    H150720   3.846   5.359  15.267  0.2373 -1.0590  0.9079
 9743TIP3    H250721   3.755   5.257  15.201 -0.3276  0.6029 -0.9515
 9744TIP3   OH250722   0.939   1.510  17.267 -0.2931 -0.5769  0.3957
 9744TIP3    H150723   0.940   1.478  17.177  1.5557  0.7220 -0.0813
 9744TIP3    H250724   0.849   1.496  17.297 -0.5938 -2.2130 -1.2049
 9745TIP3   OH250725   1.656   4.241   4.203 -0.1656  0.1476  0.0062
 9745TIP3    H150726   1.700   4.326   4.201 -0.9836  0.6625  1.9146
 9745TIP3    H250727   1.565   4.262   4.179 -0.3711 -0.1715  0.5007
 9746TIP3   OH250728   0.871   1.497  11.880  0.2460 -0.7587 -0.2321
 9746TIP3    H150729   0.822   1.487  11.799  1.1737 -0.7942 -0.7866
 9746TIP3    H250730   0.829   1.435  11.941  1.6152 -3.1006 -1.6218
 9747TIP3   OH250731   1.408   1.268  16.498  0.3073  0.2785  0.0403
 9747TIP3    H150732   1.320   1.303  16.511 -0.0413 -0.5579  0.0102
 9747TIP3    H250733   1.421   1.209  16.573  1.3178  1.3233  0.6915
 9748TIP3   OH250734   0.272   1.404   5.663 -0.1919 -0.1751  0.1278
 9748TIP3    H150735   0.199   1.463   5.681  0.8667  1.9546 -2.2734
 9748TIP3    H250736   0.235   1.338   5.604 -0.5389  0.0568  0.0839
 9749TIP3   OH250737   4.030   0.519   5.925  0.3049 -0.1240 -0.2878
 9749TIP3    H150738   4.013   0.515   5.831 -0.5870 -1.3519 -0.0818
 9749TIP3    H250739   4.120   0.548   5.931  0.2975  0.1998 -1.5268
 9750TIP3   OH250740   5.662   0.519  16.781  0.7531 -0.6514 -0.1947
 9750TIP3    H150741   5.599   0.537  16.712 -0.0632 -1.5389  0.3146
 9750TIP3    H250742   5.658   0.424  16.793  1.0830 -0.5317  0.8934
 9751TIP3   OH250743   2.290   0.326  15.567  0.1871  0.2680  0.1245
 9751TIP3    H150744   2.241   0.255  15.526  0.6280 -1.0717  1.9016
 9751TIP3    H250745   2.226   0.396  15.579 -0.8083 -0.7126  0.5664
 9752TIP3   OH250746   1.411   2.048   1.758 -0.2860 -0.3011  0.1072
 9752TIP3    H150747   1.443   1.980   1.698  0.6426  0.5266 -0.3542
 9752TIP3    H250748   1.467   2.040   1.835 -0.3829 -0.2583  0.1818
 9753TIP3   OH250749   2.456   1.185   1.369  0.0637  0.3557 -0.6315
 9753TIP3    H150750   2.472   1.256   1.307 -0.5164  0.8557 -0.2152
 9753TIP3    H250751   2.518   1.201   1.440  0.8860 -0.3470 -1.1777
 9754TIP3   OH250752   3.969   4.348  12.272 -0.0681  0.1218 -0.1606
 9754TIP3    H150753   4.032   4.285  12.236 -0.1894 -0.7059  1.0200
 9754TIP3    H250754   4.021   4.426  12.292  0.3747 -0.1429 -0.2739
 9755TIP3   OH250755   5.020   2.415  17.213  0.6356 -0.1281 -0.6517
 9755TIP3    H150756   4.929   2.421  17.239  0.4096 -2.2370 -0.8576
 9755TIP3    H250757   5.070   2.438  17.291 -0.0683  0.0015 -0.2433
 9756TIP3   OH250758   6.437   1.218  11.667 -0.1410  0.3880  0.4550
 9756TIP3    H150759   6.382   1.146  11.700 -0.2692  0.6171  0.7465
 9756TIP3    H250760   6.376   1.275  11.620 -0.0346  0.2882  0.1986
 9757TIP3   OH250761   3.020   0.574  13.903  0.2343 -0.1656  0.4966
 9757TIP3    H150762   3.005   0.643  13.838 -0.1663  0.8635  1.6572
 9757TIP3    H250763   2.937   0.526  13.906  0.2604 -0.2301  0.2446
 9758TIP3   OH250764   0.674   2.057  11.623 -0.2996 -0.3676 -0.8166
 9758TIP3    H150765   0.765   2.064  11.596  0.3611 -0.6852  1.2077
 9758TIP3    H250766   0.675   1.993  11.694 -1.4302  2.5880  1.9854
 9759TIP3   OH250767   3.229   6.404  14.501  0.2240  0.2152  0.2455
 9759TIP3    H150768   3.171   6.352  14.446 -0.6436  2.9344 -1.4862
 9759TIP3    H250769   3.177   6.422  14.580 -1.0354  1.9754 -0.9600
 9760TIP3   OH250770   1.441   4.356   1.340 -0.0531 -0.4076  0.0581
 9760TIP3    H150771   1.367   4.314   1.383 -0.7522  0.3295 -0.4114
 9760TIP3    H250772   1.476   4.415   1.407 -1.3931  1.0439 -0.4936
 9761TIP3   OH250773   2.022   6.691  12.835  0.1437 -0.8459 -0.0667
 9761TIP3    H150774   2.091   6.644  12.883  0.6367 -0.0838 -0.0178
 9761TIP3    H250775   1.943   6.639  12.849  0.6827 -1.6565 -0.0093
 9762TIP3   OH250776   3.189   6.424  11.206  0.2962  0.3243  0.2818
 9762TIP3    H150777   3.166   6.347  11.259  0.1766 -1.4541 -2.2818
 9762TIP3    H250778   3.128   6.492  11.236 -1.8584 -1.5449  0.3222
 9763TIP3   OH250779   5.344   5.787  16.247  0.3677  0.5422  0.4177
 9763TIP3    H150780   5.316   5.879  16.239 -1.8246 -0.0910  0.3456
 9763TIP3    H250781   5.421   5.781  16.191  0.2802  2.2463  0.0606
 9764TIP3   OH250782   4.267   2.686   1.148  0.2638  0.1038  0.2856
 9764TIP3    H150783   4.330   2.672   1.219  1.1687  0.5010 -0.4317
 9764TIP3    H250784   4.320   2.704   1.071 -0.7411  1.6239 -0.0791
 9765TIP3   OH250785   4.451   2.771  15.826 -0.6260  0.2614  0.6510
 9765TIP3    H150786   4.537   2.787  15.786 -1.2104 -0.5567 -1.0085
 9765TIP3    H250787   4.449   2.677  15.841 -1.5207  0.1558 -0.0548
 9766TIP3   OH250788   3.001   3.697   1.728 -0.2110  0.4486  0.4440
 9766TIP3    H150789   3.011   3.659   1.815 -0.0967  0.5090  0.4563
 9766TIP3    H250790   2.919   3.746   1.733 -0.8109 -0.5144  0.1756
 9767TIP3   OH250791   5.450   1.594   2.560  0.2761 -0.1291  0.2981
 9767TIP3    H150792   5.529   1.644   2.580 -0.3399  1.2457 -0.6396
 9767TIP3    H250793   5.386   1.625   2.624  0.6128 -1.6303  1.4101
 9768TIP3   OH250794   3.737   2.206   6.134 -0.0274 -0.2200 -0.1838
 9768TIP3    H150795   3.721   2.299   6.116 -1.1497 -0.6595 -1.4921
 9768TIP3    H250796   3.678   2.159   6.076 -0.6970 -1.7558  1.6613
 9769TIP3   OH250797   1.417   5.272   4.290  0.0220 -0.0750 -0.2332
 9769TIP3    H150798   1.481   5.216   4.334  0.0027 -1.3733 -1.8167
 9769TIP3    H250799   1.470   5.342   4.251  0.3224 -0.3585 -0.3338
 9770TIP3   OH250800   5.084   4.179  11.718 -0.3596  0.5292 -0.2823
 9770TIP3    H150801   5.141   4.140  11.653  0.6223 -0.2843  1.0476
 9770TIP3    H250802   5.014   4.221  11.667  0.0103 -0.6843 -1.8157
 9771TIP3   OH250803   4.935   0.104  12.757  0.4417  0.2852  0.3488
 9771TIP3    H150804   4.854   0.054  12.757  0.8854 -0.4776 -1.3877
 9771TIP3    H250805   4.908   0.195  12.753 -0.3508 -0.0152 -2.3619
 9772TIP3   OH250806   5.493   1.431   1.615 -0.4503  0.6659  0.0715
 9772TIP3    H150807   5.581   1.414   1.582 -1.6731 -1.1097 -2.4813
 9772TIP3    H250808   5.505   1.493   1.686  2.8288  0.6627 -0.4186
 9773TIP3   OH250809   3.959   6.060  13.073  0.5670  0.0960  0.2676
 9773TIP3    H150810   3.875   6.039  13.112 -0.0082  0.7309 -0.5872
 9773TIP3    H250811   3.995   5.976  13.045 -0.0854 -0.1123  0.0466
 9774TIP3   OH250812   0.946   0.150   5.688 -0.5190 -0.2758 -0.2128
 9774TIP3    H150813   0.960   0.177   5.597 -0.5296 -2.1534 -0.7866
 9774TIP3    H250814   1.001   0.209   5.740 -1.2835  1.4704 -1.3384
 9775TIP3   OH250815   4.407   6.125  12.217  0.0971  0.3580  0.1822
 9775TIP3    H150816   4.349   6.130  12.293  0.0168  1.9138  0.0524
 9775TIP3    H250817   4.490   6.163  12.247  0.1692  0.6673 -0.3944
 9776TIP3   OH250818   3.799   3.971  11.092  0.3234 -0.0490 -0.4241
 9776TIP3    H150819   3.704   3.976  11.105  0.6623  1.4949  1.6337
 9776TIP3    H250820   3.808   3.929  11.006 -2.2081 -0.3118 -0.6285
 9777TIP3   OH250821   6.491   6.238  14.916  0.9081 -0.6237 -0.3368
 9777TIP3    H150822   6.429   6.186  14.866 -0.1798  0.2206  0.1178
 9777TIP3    H250823   6.577   6.208  14.887  0.2881 -1.2922 -1.4939
 9778TIP3   OH250824   3.536   4.284  14.250 -0.3854 -0.1178 -0.3163
 9778TIP3    H150825   3.470   4.232  14.295  0.6598 -0.9202  0.3081
 9778TIP3    H250826   3.558   4.232  14.172 -1.0837  0.5444 -0.9692
 9779TIP3   OH250827   2.335   3.443   4.264  0.1571 -0.2662 -0.1834
 9779TIP3    H150828   2.294   3.489   4.191 -0.4518 -1.3901 -0.5475
 9779TIP3    H250829   2.314   3.497   4.341 -0.2960  0.2344 -0.6566
 9780TIP3   OH250830   3.089   1.619  12.005  0.3296 -0.5620 -0.1473
 9780TIP3    H150831   3.117   1.604  12.095 -3.3029 -3.5444  0.5896
 9780TIP3    H250832   3.033   1.696  12.010  0.2811 -0.6138  0.1037
 9781TIP3   OH250833   0.837   3.920  12.473  0.7373 -0.2796  0.1185
 9781TIP3    H150834   0.908   3.856  12.479 -0.7760 -2.1304 -0.8890
 9781TIP3    H250835   0.758   3.869  12.494 -0.6616  0.9370 -2.0228
 9782TIP3   OH250836   4.153   0.679  14.187  0.1122  0.5218  0.1249
 9782TIP3    H150837   4.200   0.618  14.243 -1.2511  0.0361  0.7784
 9782TIP3    H250838   4.177   0.655  14.098  1.4903  0.6308  0.4582
 9783TIP3   OH250839   1.707   0.298   1.616 -0.1096 -0.3141  0.3222
 9783TIP3    H150840   1.765   0.306   1.540  1.3373 -0.0519  1.4263
 9783TIP3    H250841   1.625   0.263   1.581  0.1514  0.9137 -1.5221
 9784TIP3   OH250842   2.292   3.894   1.543  0.5191 -0.2312 -0.0003
 9784TIP3    H150843   2.379   3.929   1.525  0.5525 -0.5288 -0.4295
 9784TIP3    H250844   2.299   3.854   1.629 -0.0529  2.6168  1.4568
 9785TIP3   OH250845   3.604   5.145  12.203  0.7855 -0.3282  0.2600
 9785TIP3    H150846   3.569   5.213  12.145  1.3105 -0.1449  0.1537
 9785TIP3    H250847   3.614   5.069  12.146  1.9998  0.0699 -0.0648
 9786TIP3   OH250848   6.004   6.681   0.999  0.0593  0.0479  0.2011
 9786TIP3    H150849   5.929   6.726   0.959  0.3449 -0.0739 -0.4779
 9786TIP3    H250850   5.967   6.635   1.073 -0.2779  1.2618  0.8081
 9787TIP3   OH250851   4.866   5.669  17.111 -0.3876  0.3615  0.0790
 9787TIP3    H150852   4.808   5.744  17.103 -1.0933 -0.1982 -0.1670
 9787TIP3    H250853   4.867   5.631  17.023 -0.3874 -0.1664  0.3017
 9788TIP3   OH250854   5.096   5.062  16.715  0.2420 -0.1850  0.0585
 9788TIP3    H150855   5.122   5.097  16.630 -1.2905 -2.9060 -1.5773
 9788TIP3    H250856   5.125   4.971  16.714  1.6768  0.1761  3.1435
 9789TIP3   OH250857   1.616   0.785   5.040  0.1682  0.6555 -0.0151
 9789TIP3    H150858   1.661   0.810   4.959  0.0981  1.5703  0.2244
 9789TIP3    H250859   1.686   0.761   5.100  0.2556  0.6199 -0.1304
 9790TIP3   OH250860   0.321   3.053  13.134  0.1361  0.4180 -0.5624
 9790TIP3    H150861   0.333   3.000  13.055 -1.5869 -0.8180 -0.0220
 9790TIP3    H250862   0.310   2.989  13.204 -0.3115  1.5114  0.3663
 9791TIP3   OH250863   4.571   4.747   3.062 -0.2559 -0.4515 -0.2696
 9791TIP3    H150864   4.482   4.767   3.033 -0.3296 -1.5400 -0.8214
 9791TIP3    H250865   4.569   4.654   3.084  0.6658 -0.4111 -0.0025
 9792TIP3   OH250866   3.365   0.636  13.402  0.0583  0.1579  0.2091
 9792TIP3    H150867   3.294   0.617  13.341  0.0890  0.2486  0.1445
 9792TIP3    H250868   3.436   0.669  13.347  0.2539 -0.2094  0.2411
 9793TIP3   OH250869   0.943   3.004  16.863  0.0572  0.1209 -0.3871
 9793TIP3    H150870   0.929   3.057  16.785  0.5306 -1.6891 -1.7178
 9793TIP3    H250871   0.857   2.965  16.882  0.2733 -0.5555 -0.8180
 9794TIP3   OH250872   2.200   5.158  10.375 -0.2227  0.1618  0.4215
 9794TIP3    H150873   2.275   5.174  10.433 -0.1408 -1.2287  0.7059
 9794TIP3    H250874   2.238   5.147  10.289 -0.2559  1.1446  0.2695
 9795TIP3   OH250875   0.697   3.808  13.407  0.1496  0.0332 -0.1968
 9795TIP3    H150876   0.667   3.896  13.425  1.5435  0.8675 -1.7777
 9795TIP3    H250877   0.618   3.755  13.405 -0.6312  1.1185  1.4235
 9796TIP3   OH250878   2.702   0.639  11.969  0.6962 -0.0175 -0.4523
 9796TIP3    H150879   2.716   0.553  12.008 -0.4183  0.3208  0.6973
 9796TIP3    H250880   2.709   0.700  12.042  1.0297  0.8388 -1.1927
 9797TIP3   OH250881   1.379   1.330   6.333 -0.0247  0.6561 -0.1425
 9797TIP3    H150882   1.412   1.245   6.302 -1.0548  0.0408  0.4224
 9797TIP3    H250883   1.458   1.383   6.343  0.6845 -0.3848 -0.0396
 9798TIP3   OH250884   5.433   0.536  12.865 -0.1954 -0.0663 -0.5413
 9798TIP3    H150885   5.451   0.566  12.954 -1.9464 -0.8451  0.0957
 9798TIP3    H250886   5.472   0.603  12.809  0.0487  0.9421  0.8133
 9799TIP3   OH250887   3.617   4.988   3.818  0.3432  0.3141  0.2318
 9799TIP3    H150888   3.701   5.033   3.827  0.7760 -0.5883  0.8754
 9799TIP3    H250889   3.566   5.015   3.894  1.3179 -1.7400  1.6495
 9800TIP3   OH250890   3.429   0.004  13.247  0.3222  0.5891 -0.7529
 9800TIP3    H150891   3.480   0.067  13.298  0.0150 -0.3099  0.6858
 9800TIP3    H250892   3.493  -0.036  13.188  0.8863  0.8855 -0.3510
 9801TIP3   OH250893   1.347   0.910   3.365 -0.3172 -0.7222 -0.1493
 9801TIP3    H150894   1.429   0.871   3.394  0.3277  0.3544 -0.5096
 9801TIP3    H250895   1.283   0.881   3.430  0.3372 -1.5954  0.1127
 9802TIP3   OH250896   5.510   4.217  14.884  0.6598  0.2725  0.0304
 9802TIP3    H150897   5.450   4.186  14.816 -1.1075  3.2090  0.1477
 9802TIP3    H250898   5.589   4.242  14.836  0.1215  0.5533 -0.7197
 9803TIP3   OH250899   6.116   3.793  15.970  0.2214  0.4875 -0.8380
 9803TIP3    H150900   6.168   3.864  15.933  0.5396  1.1080  0.7833
 9803TIP3    H250901   6.038   3.836  16.005  0.5826  0.1144  0.4724
 9804TIP3   OH250902   2.744   5.805  17.162 -0.4455  0.2705 -0.3745
 9804TIP3    H150903   2.661   5.765  17.136 -0.4568  0.0076  0.0726
 9804TIP3    H250904   2.809   5.765  17.104 -0.9090  1.9907 -2.1641
 9805TIP3   OH250905   0.569   0.481  12.119 -0.3680  0.1619 -0.4658
 9805TIP3    H150906   0.553   0.388  12.137  2.0867 -0.3304 -0.6468
 9805TIP3    H250907   0.506   0.503  12.051 -2.2818 -0.8507  0.9167
 9806TIP3   OH250908   6.056   0.241  17.242  0.3397  0.3468 -0.1106
 9806TIP3    H150909   6.149   0.217  17.242  0.8950  2.2669  3.0262
 9806TIP3    H250910   6.029   0.231  17.150  3.9109  0.7562 -1.2848
 9807TIP3   OH250911   0.954   3.957   1.145 -0.0425  0.0232  0.7171
 9807TIP3    H150912   0.978   4.049   1.140 -1.3124  0.3455  0.3762
 9807TIP3    H250913   0.858   3.957   1.144 -0.0631 -1.4288 -1.5775
 9808TIP3   OH250914   6.230   3.113   4.452  0.2399 -0.1218 -0.5151
 9808TIP3    H150915   6.323   3.105   4.431  0.3940 -0.1030  0.1548
 9808TIP3    H250916   6.195   3.025   4.439  0.3872 -0.1651 -0.6149
 9809TIP3   OH250917   4.893   2.624   2.920  0.3449 -0.2075 -0.3668
 9809TIP3    H150918   4.975   2.611   2.872 -0.3088 -1.6584 -1.0935
 9809TIP3    H250919   4.895   2.559   2.989 -0.5342 -0.7562 -0.8469
 9810TIP3   OH250920   2.828   4.352   3.543 -0.1269 -0.2789 -0.3646
 9810TIP3    H150921   2.831   4.272   3.596  2.1138  0.5709  0.8304
 9810TIP3    H250922   2.903   4.346   3.485 -0.1993  0.7638 -0.5735
 9811TIP3   OH250923   5.086   2.871   2.834  0.3660 -0.3226 -0.3900
 9811TIP3    H150924   5.147   2.848   2.904  1.5220  0.7590 -1.0111
 9811TIP3    H250925   5.001   2.842   2.865  0.6624  1.2496  2.0188
 9812TIP3   OH250926   1.854   5.559   5.709 -0.1539  0.2248  0.1395
 9812TIP3    H150927   1.849   5.472   5.669 -1.4263  0.5810 -0.4978
 9812TIP3    H250928   1.881   5.542   5.800 -2.6870 -1.0481  0.7155
 9813TIP3   OH250929   4.167   1.670   3.325 -0.4394  0.9023  0.1913
 9813TIP3    H150930   4.247   1.683   3.275 -0.7306 -2.2693 -1.2270
 9813TIP3    H250931   4.197   1.648   3.413  0.2205  0.9727 -0.0114
 9814TIP3   OH250932   5.587   6.418  15.388 -0.1766 -0.7623 -0.3349
 9814TIP3    H150933   5.614   6.509  15.401  0.5263 -1.1273  0.9221
 9814TIP3    H250934   5.578   6.383  15.477 -0.8537 -1.7998 -0.8021
 9815TIP3   OH250935   0.930   0.182  11.428 -0.1954 -0.8738 -0.9466
 9815TIP3    H150936   0.949   0.276  11.431  0.0873 -0.9470 -0.4267
 9815TIP3    H250937   1.014   0.141  11.407  0.3685 -1.2341  1.8482
 9816TIP3   OH250938   5.926   0.593   5.263 -0.1150 -0.4153 -0.2957
 9816TIP3    H150939   5.831   0.602   5.268 -0.4934 -3.3642 -1.6161
 9816TIP3    H250940   5.951   0.642   5.185 -0.5844  0.0485 -0.1572
 9817TIP3   OH250941   3.976   2.169   0.550  0.3657 -0.3414 -0.0918
 9817TIP3    H150942   3.939   2.112   0.618 -0.7026 -0.3825 -0.6870
 9817TIP3    H250943   3.985   2.254   0.593 -0.3658 -0.3509  0.0872
 9818TIP3   OH250944   5.948   1.111   0.583  0.2747  0.0368 -0.1036
 9818TIP3    H150945   5.938   1.138   0.674  0.1920 -1.0401  0.2166
 9818TIP3    H250946   5.862   1.079   0.557  0.6765 -1.1482 -0.0444
 9819TIP3   OH250947   4.657   2.163   4.015 -0.4525 -0.1477 -0.5289
 9819TIP3    H150948   4.661   2.155   4.111 -1.1124 -0.3977 -0.5220
 9819TIP3    H250949   4.748   2.178   3.989 -0.6522  3.0497  0.4108
 9820TIP3   OH250950   5.335   6.813   1.234  0.1786 -0.2933  0.5816
 9820TIP3    H150951   5.259   6.755   1.237  0.1585 -0.2465  0.9981
 9820TIP3    H250952   5.322   6.866   1.156  0.7623 -1.6242 -0.4287
 9821TIP3   OH250953   2.531   3.623  13.925 -0.0315  0.5133  0.2368
 9821TIP3    H150954   2.543   3.645  14.017 -0.1807 -0.3631  0.4763
 9821TIP3    H250955   2.566   3.534  13.918  1.9558  1.3698 -1.0061
 9822TIP3   OH250956   4.403   0.835   2.825  0.4197 -0.1819 -0.1311
 9822TIP3    H150957   4.361   0.770   2.769 -0.7403  0.3044  0.1451
 9822TIP3    H250958   4.491   0.801   2.841 -0.2783 -1.8510  0.2839
 9823TIP3   OH250959   1.369   4.747   2.038 -0.1351 -0.2026 -0.2679
 9823TIP3    H150960   1.338   4.674   2.091  0.0814  1.3558  2.0933
 9823TIP3    H250961   1.301   4.814   2.046  1.3187  1.2068  0.5594
 9824TIP3   OH250962   3.107   5.249  14.325  0.0227 -0.4729 -0.2889
 9824TIP3    H150963   3.151   5.218  14.246 -0.3239 -1.0992 -0.2405
 9824TIP3    H250964   3.142   5.337  14.339 -0.5774 -0.0006 -1.6484
 9825TIP3   OH250965   4.962   1.171   0.162  0.0494 -0.4541  0.0530
 9825TIP3    H150966   4.929   1.245   0.213 -0.1485  0.6698 -1.6471
 9825TIP3    H250967   4.888   1.110   0.157  0.2707 -0.8643  1.6233
 9826TIP3   OH250968   4.278   6.128   3.224 -0.8304 -0.1623 -0.3006
 9826TIP3    H150969   4.261   6.208   3.174 -0.1537 -0.4149 -0.9468
 9826TIP3    H250970   4.349   6.085   3.176 -0.2287 -0.4456  0.8472
 9827TIP3   OH250971   6.171   0.008  16.277 -0.9452 -0.5456 -0.4102
 9827TIP3    H150972   6.152   0.068  16.349 -1.0815  0.4464 -1.2584
 9827TIP3    H250973   6.087  -0.033  16.257 -1.3515  0.7325 -1.3825
 9828TIP3   OH250974   4.445   5.462  16.463 -0.1466  0.0798 -0.6469
 9828TIP3    H150975   4.432   5.383  16.411  1.3987 -2.4716  2.6266
 9828TIP3    H250976   4.522   5.504  16.426 -0.5123 -0.3571 -1.9149
 9829TIP3   OH250977   1.720   5.475   4.881  0.5422 -0.6731  0.4752
 9829TIP3    H150978   1.709   5.380   4.877 -1.2551 -0.5562  2.1034
 9829TIP3    H250979   1.737   5.493   4.973  0.7611  0.6139  0.1899
 9830TIP3   OH250980   0.410   3.385  11.068 -0.1753 -0.1746  0.5559
 9830TIP3    H150981   0.334   3.338  11.034  0.5562 -1.3336  0.5060
 9830TIP3    H250982   0.480   3.366  11.006 -0.4285  2.8874 -0.7686
 9831TIP3   OH250983   2.177   5.305  16.685 -0.4135  0.1792  0.2711
 9831TIP3    H150984   2.204   5.368  16.618 -2.5491 -0.0211 -0.8399
 9831TIP3    H250985   2.225   5.225  16.664 -1.8639 -0.2115 -1.7291
 9832TIP3   OH250986   5.961   2.242   2.339 -0.2232 -0.0211  0.4716
 9832TIP3    H150987   5.952   2.221   2.247  0.1605 -0.5399  0.5544
 9832TIP3    H250988   5.871   2.243   2.372 -0.3371 -0.1478  0.1624
 9833TIP3   OH250989   3.159   6.700  13.144 -0.5529  0.3568 -0.0359
 9833TIP3    H150990   3.219   6.775  13.141 -0.2799  0.0686 -2.3518
 9833TIP3    H250991   3.183   6.653  13.224  1.3976  0.9944 -0.2280
 9834TIP3   OH250992   0.285   2.056  11.121  0.0208  0.8120  0.1976
 9834TIP3    H150993   0.314   1.967  11.100  0.4133  0.8792  0.4450
 9834TIP3    H250994   0.202   2.066  11.075  0.0011  0.3324  0.1283
 9835TIP3   OH250995   4.461   1.517  16.760  0.9320  0.3638  0.2542
 9835TIP3    H150996   4.434   1.478  16.677  0.8254 -0.7949  0.8160
 9835TIP3    H250997   4.516   1.592  16.735  1.4174 -0.3465 -0.8527
 9836TIP3   OH250998   5.431   3.802   5.333 -0.8213  0.5939 -0.2414
 9836TIP3    H150999   5.510   3.826   5.286 -1.4215 -0.7350 -2.0065
 9836TIP3    H251000   5.378   3.882   5.334 -0.4457  0.8560 -1.0989
 9837TIP3   OH251001   3.712   1.521   1.097 -0.3385  0.1747  0.5025
 9837TIP3    H151002   3.777   1.478   1.042  0.0915  1.0103  0.3539
 9837TIP3    H251003   3.762   1.561   1.168 -0.8170 -0.2673  1.0990
 9838TIP3   OH251004   3.128   0.234   5.943  0.0101 -0.4669 -0.7493
 9838TIP3    H151005   3.100   0.216   6.033  2.2161 -0.7550 -0.0916
 9838TIP3    H251006   3.183   0.159   5.919  0.2190  0.0673 -1.9878
 9839TIP3   OH251007   6.674   6.801   3.608 -0.6516  0.1760 -0.7368
 9839TIP3    H151008   6.593   6.784   3.656 -1.4783  2.5796 -1.1812
 9839TIP3    H251009   6.672   6.738   3.536 -0.6536 -1.7447  0.9087
 9840TIP3   OH251010   5.617   2.917   3.161 -0.0248 -0.0789 -0.4483
 9840TIP3    H151011   5.690   2.855   3.158 -0.8491 -1.1577  1.4247
 9840TIP3    H251012   5.636   2.972   3.237 -0.2083  0.8840 -1.0793
 9841TIP3   OH251013   3.063   0.309  12.661  0.0141 -0.8095 -0.4041
 9841TIP3    H151014   3.054   0.278  12.751  0.1383 -0.6764 -0.3445
 9841TIP3    H251015   3.036   0.401  12.664 -2.2244 -1.4225 -0.9452
 9842TIP3   OH251016   6.601   1.383  12.508  0.3038  0.3528 -0.1451
 9842TIP3    H151017   6.565   1.352  12.425  0.7422  0.0231 -0.2088
 9842TIP3    H251018   6.524   1.409  12.559 -0.1929 -2.1665  0.4607
 9843TIP3   OH251019   0.964   0.966   5.140  0.3885  0.2432  0.6410
 9843TIP3    H151020   0.870   0.954   5.128  0.0319 -0.0211  3.2324
 9843TIP3    H251021   1.004   0.889   5.101 -0.5017  0.1557 -0.1028
 9844TIP3   OH251022   3.688   2.177   5.020  0.7085  0.2818 -0.3763
 9844TIP3    H151023   3.604   2.204   5.057  0.5244 -3.1750  1.9717
 9844TIP3    H251024   3.664   2.122   4.945  1.0213  2.9883 -2.5500
 9845TIP3   OH251025   0.651   1.625   1.629  0.0764 -0.2254  0.4892
 9845TIP3    H151026   0.598   1.562   1.677  0.3169  0.4593  1.6999
 9845TIP3    H251027   0.635   1.708   1.675 -0.2349  0.5869 -1.0704
 9846TIP3   OH251028   6.581   6.351  10.873  0.1203 -0.3311  0.2911
 9846TIP3    H151029   6.623   6.366  10.789 -0.6083 -0.7450 -0.1517
 9846TIP3    H251030   6.541   6.435  10.896  2.7562  0.6500  1.6377
 9847TIP3   OH251031   3.639   3.473  16.227  0.4174 -0.4963  0.4958
 9847TIP3    H151032   3.658   3.380  16.235  4.1812  0.2434  1.2870
 9847TIP3    H251033   3.656   3.508  16.315 -1.0613  0.9509  0.2340
 9848TIP3   OH251034   5.435   3.692   1.551 -0.1554  0.1105  0.7282
 9848TIP3    H151035   5.526   3.709   1.526 -0.4737 -1.0179 -1.2678
 9848TIP3    H251036   5.386   3.696   1.469 -2.2258  2.4472  1.9782
 9849TIP3   OH251037   3.369   0.875   1.599 -0.0842 -0.5937 -0.0334
 9849TIP3    H151038   3.423   0.838   1.530  0.6802  0.1004  0.1821
 9849TIP3    H251039   3.309   0.805   1.624  0.3747 -1.1976 -0.6339
 9850TIP3   OH251040   2.844   4.170  10.413 -0.3564 -1.1679 -0.5386
 9850TIP3    H151041   2.937   4.189  10.405 -0.0138 -2.5148  0.0571
 9850TIP3    H251042   2.814   4.227  10.483 -0.2718  0.2193 -1.6118
 9851TIP3   OH251043   0.977   1.659  14.953 -0.3953  0.0404 -0.2872
 9851TIP3    H151044   0.885   1.651  14.978 -0.2511 -1.2148 -0.1656
 9851TIP3    H251045   1.019   1.701  15.028 -0.1356 -2.8763  1.2421
 9852TIP3   OH251046   2.842   4.789   4.152  0.3275  0.1118  0.0220
 9852TIP3    H151047   2.772   4.738   4.194  0.4625  0.0743  0.2019
 9852TIP3    H251048   2.876   4.731   4.084  1.2731 -0.5007  0.9984
 9853TIP3   OH251049   5.549   4.836  15.178 -0.2849  0.0118 -0.3492
 9853TIP3    H151050   5.593   4.874  15.102 -0.7604  0.3310 -0.4693
 9853TIP3    H251051   5.459   4.822  15.149 -1.1461  2.4749  0.9181
 9854TIP3   OH251052   6.123   0.216  16.472  0.1694 -1.0169  0.3200
 9854TIP3    H151053   6.067   0.201  16.548  1.3970  0.6689  1.6084
 9854TIP3    H251054   6.066   0.257  16.408  0.2257  2.1128  2.1886
 9855TIP3   OH251055   3.353   3.291   4.730 -0.1857 -0.0298  0.0334
 9855TIP3    H151056   3.317   3.303   4.818  2.1440 -2.3993  1.3840
 9855TIP3    H251057   3.307   3.214   4.696  0.9194 -0.8299  0.3173
 9856TIP3   OH251058   0.070   2.804  14.741 -0.1400 -0.9370  0.3526
 9856TIP3    H151059   0.003   2.871  14.728 -1.2402 -1.7502  1.8555
 9856TIP3    H251060   0.145   2.853  14.776 -0.8495 -0.4350  1.2019
 9857TIP3   OH251061   4.819   3.545   4.654  0.0109  0.0449  0.5260
 9857TIP3    H151062   4.728   3.562   4.628  0.0210 -0.2285  0.3180
 9857TIP3    H251063   4.818   3.455   4.687  0.5387 -0.5343 -0.9851
 9858TIP3   OH251064   6.619   0.419  13.518 -0.0400 -0.1874  0.3342
 9858TIP3    H151065   6.615   0.515  13.525  0.9968 -0.0578 -0.6648
 9858TIP3    H251066   6.535   0.395  13.479  0.3624  0.4996 -1.0246
 9859TIP3   OH251067   3.124   2.363  16.231 -0.0965  0.5586  0.4216
 9859TIP3    H151068   3.156   2.377  16.320  1.2500  0.6445 -0.0589
 9859TIP3    H251069   3.057   2.431  16.219  0.5466  1.3103  0.9650
 9860TIP3   OH251070   3.990   0.392   1.859  0.0225 -0.4673 -0.5328
 9860TIP3    H151071   4.041   0.453   1.913 -2.0292  0.9125 -0.1245
 9860TIP3    H251072   4.056   0.345   1.808  1.7601  0.7988  0.4943
 9861TIP3   OH251073   1.034   4.772  12.505  0.3710  0.2919  0.3017
 9861TIP3    H151074   0.976   4.787  12.579  0.4525  0.2652  0.3705
 9861TIP3    H251075   1.046   4.859  12.467 -0.4285  0.1661 -0.2476
 9862TIP3   OH251076   2.366   3.395   2.358  0.2560 -0.2698 -0.7401
 9862TIP3    H151077   2.301   3.325   2.364 -0.7488  0.6198 -1.0784
 9862TIP3    H251078   2.442   3.362   2.407 -1.7812  0.1480  2.9342
 9863TIP3   OH251079   1.821   1.628  13.454 -0.2426 -0.4936  0.1773
 9863TIP3    H151080   1.904   1.666  13.425  1.7282 -3.5406  1.5863
 9863TIP3    H251081   1.767   1.703  13.479  2.6766  1.4629  0.7506
 9864TIP3   OH251082   4.094   0.811   5.912  0.1622 -0.5557  0.2008
 9864TIP3    H151083   4.075   0.818   6.006 -0.6254  0.3937 -0.0209
 9864TIP3    H251084   4.024   0.756   5.877 -0.9476  1.0636 -0.2211
 9865TIP3   OH251085   6.708   4.112   3.456 -0.5556 -0.2400  0.4405
 9865TIP3    H151086   6.777   4.141   3.396 -0.6392 -2.0163 -0.5501
 9865TIP3    H251087   6.753   4.100   3.540  0.6125 -2.3967 -0.4467
 9866TIP3   OH251088   0.382   0.717   1.107 -0.1868 -0.1263 -0.9689
 9866TIP3    H151089   0.336   0.635   1.125  0.1929 -0.1161  0.1274
 9866TIP3    H251090   0.334   0.783   1.156 -0.6830  0.3697 -2.1127
 9867TIP3   OH251091   3.264   2.786   3.408 -0.2778  0.2953 -0.5121
 9867TIP3    H151092   3.275   2.810   3.500 -1.5536  0.3195 -0.3602
 9867TIP3    H251093   3.262   2.690   3.408  0.8935  0.2646 -0.6591
 9868TIP3   OH251094   5.697   0.806   2.178 -0.2782  0.3527 -0.3040
 9868TIP3    H151095   5.623   0.763   2.219 -1.6689  1.1403 -1.9226
 9868TIP3    H251096   5.760   0.736   2.161 -0.9545 -0.4351  0.4372
 9869TIP3   OH251097   5.653   3.803   5.182  0.7219  0.4012 -0.8223
 9869TIP3    H151098   5.643   3.812   5.087 -1.7038  1.0450 -0.5276
 9869TIP3    H251099   5.654   3.708   5.196  1.6050  0.2963 -1.5307
 9870TIP3   OH251100   0.130   0.663   3.966  0.6099 -0.2460 -0.3530
 9870TIP3    H151101   0.074   0.616   3.904  1.7541 -1.3344 -0.5691
 9870TIP3    H251102   0.203   0.604   3.982  1.0313  0.6149  0.9676
 9871TIP3   OH251103   5.117   5.205  13.689 -0.2996  0.3098 -0.6049
 9871TIP3    H151104   5.155   5.279  13.737  1.9683 -0.3713 -1.2727
 9871TIP3    H251105   5.058   5.164  13.751  1.4135  0.3637  1.1260
 9872TIP3   OH251106   4.774   1.456  12.208 -0.1258 -0.3805 -0.5699
 9872TIP3    H151107   4.685   1.444  12.175 -0.4305  1.0886 -0.3108
 9872TIP3    H251108   4.826   1.474  12.129 -0.0766 -1.0748 -0.7028
 9873TIP3   OH251109   3.177   1.427   5.823 -0.1409  0.6855 -0.2359
 9873TIP3    H151110   3.193   1.507   5.773 -0.8871 -0.4620 -2.3781
 9873TIP3    H251111   3.233   1.361   5.781 -1.2316 -0.4440  0.0363
 9874TIP3   OH251112   5.157   4.575  13.946 -0.2025  0.5662  0.0862
 9874TIP3    H151113   5.136   4.658  13.903  0.3907  0.6676 -0.0023
 9874TIP3    H251114   5.073   4.545  13.982 -0.5957  0.7490 -0.6709
 9875TIP3   OH251115   5.879   1.620  15.977 -0.1267 -0.7042 -0.1023
 9875TIP3    H151116   5.905   1.652  15.890  0.2018 -1.1398 -0.1656
 9875TIP3    H251117   5.931   1.672  16.038 -0.3992 -0.3574 -0.1638
 9876TIP3   OH251118   0.586   2.341   2.699  0.4071 -0.7221  0.6102
 9876TIP3    H151119   0.540   2.325   2.616 -0.4805  0.2109  0.9191
 9876TIP3    H251120   0.676   2.316   2.680  0.8144  2.1041 -1.4983
 9877TIP3   OH251121   5.175   2.468  13.776 -0.0717  0.8440 -0.2979
 9877TIP3    H151122   5.083   2.461  13.803  0.0344 -0.8166 -0.3576
 9877TIP3    H251123   5.207   2.378  13.774  1.3855  1.3606 -0.9121
 9878TIP3   OH251124   5.142   3.089   5.904  0.0213 -0.0091  0.3710
 9878TIP3    H151125   5.148   3.170   5.954  0.2131  0.8049 -0.9496
 9878TIP3    H251126   5.060   3.049   5.932 -1.7219  2.2468 -1.3337
 9879TIP3   OH251127   0.776   1.176  12.953 -0.0912  0.1396  0.2334
 9879TIP3    H151128   0.796   1.087  12.982 -1.5724 -0.2405  0.1441
 9879TIP3    H251129   0.712   1.208  13.016 -0.2861  0.7880 -0.2813
 9880TIP3   OH251130   1.555   1.928   2.213  0.0032 -0.2731  0.2497
 9880TIP3    H151131   1.467   1.899   2.240 -0.5111  0.8209 -0.2303
 9880TIP3    H251132   1.539   2.003   2.157  1.2093 -0.8003 -0.8221
 9881TIP3   OH251133   1.319   6.751   4.479  0.4441  0.1929 -0.3903
 9881TIP3    H151134   1.351   6.670   4.518 -1.1856 -1.0360 -1.5653
 9881TIP3    H251135   1.300   6.808   4.554  0.1931 -1.0520  0.5064
 9882TIP3   OH251136   0.349   3.440  14.525 -0.6348 -0.6129  0.2339
 9882TIP3    H151137   0.257   3.413  14.532 -0.5592 -0.8719  0.2343
 9882TIP3    H251138   0.352   3.528  14.563 -0.2617 -1.8626  3.1887
 9883TIP3   OH251139   3.712   0.773  11.346 -0.0665 -0.0536 -0.2082
 9883TIP3    H151140   3.770   0.766  11.270  0.2192 -0.4712  0.0491
 9883TIP3    H251141   3.676   0.862  11.340 -0.1209 -0.1155 -0.8832
 9884TIP3   OH251142   1.392   5.199   5.739 -0.6913  0.3121 -0.1252
 9884TIP3    H151143   1.336   5.170   5.811  1.1471 -0.4279  1.0331
 9884TIP3    H251144   1.460   5.133   5.733 -1.0139  0.1590 -2.8362
 9885TIP3   OH251145   0.073   1.116   5.646  0.7743  0.5930 -0.1329
 9885TIP3    H151146   0.153   1.108   5.594 -0.0065  0.3692 -1.3284
 9885TIP3    H251147   0.083   1.052   5.716  0.9208 -0.5815 -1.2157
 9886TIP3   OH251148   6.195   3.012   2.075  0.0658 -0.5661  0.1291
 9886TIP3    H151149   6.117   3.068   2.073 -1.6995 -2.9211  0.4675
 9886TIP3    H251150   6.237   3.027   1.990  0.0561  1.7930  0.5062
 9887TIP3   OH251151   6.662   4.387   1.207 -0.4029 -0.1072 -0.5821
 9887TIP3    H151152   6.691   4.304   1.170  0.0373 -0.8605  1.4381
 9887TIP3    H251153   6.675   4.450   1.136 -0.8514 -1.7652 -2.1658
 9888TIP3   OH251154   1.114   4.116   6.066  0.1507  0.2189 -0.2915
 9888TIP3    H151155   1.050   4.122   5.995  0.8294 -0.2402 -0.9539
 9888TIP3    H251156   1.182   4.180   6.041 -0.6238  1.5859  1.0150
 9889TIP3   OH251157   5.202   6.431  14.505  0.1278  0.1242 -0.3777
 9889TIP3    H151158   5.205   6.382  14.423  0.3716  2.3272 -1.7072
 9889TIP3    H251159   5.231   6.519  14.482  0.2130  0.7770  2.0847
 9890TIP3   OH251160   2.544   3.030  12.143  0.5456 -0.0756  0.0243
 9890TIP3    H151161   2.544   3.097  12.212 -0.3516 -0.3493  0.2943
 9890TIP3    H251162   2.497   2.956  12.181  0.0316 -0.2252 -0.8811
 9891TIP3   OH251163   1.316   3.747  13.365 -0.5965 -1.0638 -0.6470
 9891TIP3    H151164   1.325   3.653  13.349 -0.3569 -1.4828  1.7091
 9891TIP3    H251165   1.223   3.764  13.352 -0.8869 -1.9117  0.2225
 9892TIP3   OH251166   2.590   0.604   6.132  0.1289 -0.3838  0.1357
 9892TIP3    H151167   2.610   0.566   6.046  0.0431  0.9514 -0.4919
 9892TIP3    H251168   2.626   0.693   6.127  2.1906 -1.0578  2.3227
 9893TIP3   OH251169   1.425   5.708  11.892 -0.4643  0.0860 -0.0671
 9893TIP3    H151170   1.462   5.688  11.806 -2.4093 -0.0072 -0.9099
 9893TIP3    H251171   1.437   5.803  11.902 -0.9626  0.2272 -0.7952
 9894TIP3   OH251172   4.918   4.533   2.159 -0.3667  0.0441  0.2047
 9894TIP3    H151173   4.986   4.576   2.211 -0.4606 -0.5759  0.8537
 9894TIP3    H251174   4.866   4.484   2.223 -1.7565  0.9400 -0.2227
 9895TIP3   OH251175   5.354   6.000  11.429  0.4049 -0.1067  0.9159
 9895TIP3    H151176   5.262   5.977  11.442 -0.2996  3.3201  2.4375
 9895TIP3    H251177   5.390   6.006  11.518  0.6473  3.9196  0.6370
 9896TIP3   OH251178   4.893   2.395  13.713  0.2359 -0.5931 -0.2522
 9896TIP3    H151179   4.949   2.316  13.713  0.1593 -0.6487  1.2937
 9896TIP3    H251180   4.817   2.370  13.765  0.3809  0.6232  0.5563
 9897TIP3   OH251181   4.884   1.676   2.163 -0.1995 -0.5919 -0.1430
 9897TIP3    H151182   4.843   1.762   2.154 -0.2745 -0.5671  0.4421
 9897TIP3    H251183   4.961   1.692   2.217  0.3110 -0.7267 -0.8253
 9898TIP3   OH251184   3.449   0.779   5.713 -0.1237  0.5269 -0.7084
 9898TIP3    H151185   3.471   0.712   5.649  2.4967 -1.2603  1.9437
 9898TIP3    H251186   3.434   0.731   5.794  0.0809  2.9921  0.8483
 9899TIP3   OH251187   4.194   4.444  16.479  0.0053 -0.0640 -0.3375
 9899TIP3    H151188   4.139   4.415  16.552 -0.9820  1.8835 -0.2754
 9899TIP3    H251189   4.134   4.451  16.405  0.9251 -1.6344 -1.2713
 9900TIP3   OH251190   4.385   1.381  17.158  0.0578 -0.4104  0.1555
 9900TIP3    H151191   4.340   1.335  17.229  2.3588 -0.3542  1.6987
 9900TIP3    H251192   4.449   1.437  17.203  2.9760 -1.9092 -1.9984
 9901TIP3   OH251193   1.530   2.263  13.269 -0.2098 -0.2465  0.3028
 9901TIP3    H151194   1.457   2.310  13.228 -1.4718 -1.6351  0.9140
 9901TIP3    H251195   1.531   2.295  13.360  0.9789  0.9464 -0.1058
 9902TIP3   OH251196   2.537   2.910   1.688  1.0454  0.0686  0.3170
 9902TIP3    H151197   2.449   2.896   1.723  0.9304 -0.4879 -0.2061
 9902TIP3    H251198   2.595   2.865   1.750  0.7237 -2.2849 -1.0543
 9903TIP3   OH251199   3.374   5.474   3.083  0.1411  0.2257  0.5762
 9903TIP3    H151200   3.325   5.551   3.112 -0.3943 -0.2566  0.9681
 9903TIP3    H251201   3.306   5.408   3.067  0.6816 -0.5338  1.3858
 9904TIP3   OH251202   0.385   3.823   4.963 -0.1735  0.2184  0.1371
 9904TIP3    H151203   0.356   3.871   5.041 -0.8670  0.8963 -0.5296
 9904TIP3    H251204   0.410   3.891   4.901  1.4591 -0.3346  0.1628
 9905TIP3   OH251205   2.133   4.546  13.617 -0.0763 -0.3904  0.8614
 9905TIP3    H151206   2.193   4.615  13.644  0.3121  0.1219 -1.2212
 9905TIP3    H251207   2.170   4.465  13.653 -0.2915  0.4013  2.9208
 9906TIP3   OH251208   4.130   2.627  15.310 -0.0902 -0.0966 -0.4061
 9906TIP3    H151209   4.149   2.716  15.341 -1.8899 -0.2149  1.1100
 9906TIP3    H251210   4.078   2.640  15.231 -0.5360  0.2027 -0.0651
 9907TIP3   OH251211   6.589   0.053   5.614  0.3655 -0.2170  0.4012
 9907TIP3    H151212   6.614  -0.038   5.627  0.1378 -0.4526 -0.7522
 9907TIP3    H251213   6.593   0.092   5.701  2.7427 -0.7683  0.5700
 9908TIP3   OH251214   5.544   6.706  15.439 -0.2638  0.1937 -0.9677
 9908TIP3    H151215   5.484   6.756  15.384 -1.4571  0.7993  0.8603
 9908TIP3    H251216   5.609   6.770  15.469 -0.6131  0.2275 -0.2785
 9909TIP3   OH251217   0.721   2.977  16.568  0.2453 -0.2392 -0.1300
 9909TIP3    H151218   0.644   3.009  16.615 -0.1980  0.6256 -1.4198
 9909TIP3    H251219   0.787   3.045  16.581  0.8473 -1.0310  1.0696
 9910TIP3   OH251220   2.190   1.282  15.029 -0.3983  0.3179  0.0166
 9910TIP3    H151221   2.138   1.274  15.109  0.1271  0.1511  0.3471
 9910TIP3    H251222   2.164   1.366  14.992 -0.0765  0.7619  0.7817
 9911TIP3   OH251223   6.447   4.626   5.346  0.0863 -0.5456  0.1728
 9911TIP3    H151224   6.530   4.633   5.393 -0.9291  1.5829  1.7546
 9911TIP3    H251225   6.471   4.616   5.254  2.0880  1.2679  0.4758
 9912TIP3   OH251226   4.037   2.075  10.933  0.6442 -0.0355 -0.6146
 9912TIP3    H151227   4.103   2.118  10.987  2.6414 -2.5380 -0.9619
 9912TIP3    H251228   4.077   2.071  10.846 -1.6056  1.9220 -1.8058
 9913TIP3   OH251229   2.639   0.127   1.892  0.3941 -0.3290  0.2228
 9913TIP3    H151230   2.659   0.125   1.799  2.5094 -2.8614  0.6558
 9913TIP3    H251231   2.545   0.109   1.898  0.5842 -1.9251 -1.3457
 9914TIP3   OH251232   1.447   5.211   2.943  0.5056  0.5664 -0.5221
 9914TIP3    H151233   1.373   5.238   2.888 -0.9416  0.3963  1.2833
 9914TIP3    H251234   1.519   5.267   2.915 -0.8165  2.0644 -1.0173
 9915TIP3   OH251235   2.514   6.233  14.610 -0.4621  0.0428  0.4397
 9915TIP3    H151236   2.431   6.242  14.563  0.3199 -0.2104 -1.0237
 9915TIP3    H251237   2.553   6.321  14.607  0.4008 -0.3578 -0.9821
 9916TIP3   OH251238   3.472   1.565   3.902  0.1240 -0.3253 -0.6850
 9916TIP3    H151239   3.515   1.647   3.925  0.5835 -0.6306 -0.4561
 9916TIP3    H251240   3.475   1.562   3.807  0.4904 -0.2831 -0.6739
 9917TIP3   OH251241   2.665   6.606  16.922 -0.0637  0.5321  0.2670
 9917TIP3    H151242   2.712   6.605  17.005 -0.6569 -0.4673  0.5975
 9917TIP3    H251243   2.732   6.584  16.857 -0.0051 -0.5854  0.6993
 9918TIP3   OH251244   6.197   4.321  10.902  0.0118 -0.0320 -0.5235
 9918TIP3    H151245   6.137   4.391  10.929  3.3429  1.6488  2.9223
 9918TIP3    H251246   6.194   4.257  10.974  0.5633 -1.1091 -1.4425
 9919TIP3   OH251247   1.546   2.968   4.838  0.0289  0.2743 -0.4018
 9919TIP3    H151248   1.455   2.968   4.809 -0.5810 -1.2027  1.4568
 9919TIP3    H251249   1.571   2.876   4.842  1.0726  0.5921  0.7352
 9920TIP3   OH251250   5.899   3.370   2.344  0.0317 -0.2053  0.1091
 9920TIP3    H151251   5.972   3.310   2.330 -0.1167 -0.1550 -0.9066
 9920TIP3    H251252   5.882   3.408   2.258 -2.2172 -1.3877 -0.0030
 9921TIP3   OH251253   1.246   4.378  14.798 -0.4536 -0.1950  0.5114
 9921TIP3    H151254   1.266   4.451  14.856  1.5964 -0.4758  0.1863
 9921TIP3    H251255   1.177   4.412  14.740 -1.2739  0.6457  1.9509
 9922TIP3   OH251256   4.555   3.040  15.960 -0.7989  0.1897  0.1319
 9922TIP3    H151257   4.591   3.116  16.006  0.8313  0.5089 -1.6205
 9922TIP3    H251258   4.478   3.073  15.914 -0.7964  0.5069  0.3573
 9923TIP3   OH251259   1.902   4.058   2.278  0.0166 -0.2848  0.0316
 9923TIP3    H151260   1.877   4.084   2.366  0.1905 -0.1984  0.0550
 9923TIP3    H251261   1.996   4.042   2.283  0.3191  1.2608 -0.5140
 9924TIP3   OH251262   0.784   6.422  14.855 -0.0560 -0.0601 -0.1650
 9924TIP3    H151263   0.856   6.413  14.919  1.2128 -1.1465 -1.6998
 9924TIP3    H251264   0.828   6.426  14.770 -1.8428 -1.4145 -1.1834
 9925TIP3   OH251265   0.018   2.320  16.030 -0.3982  0.4915  0.7777
 9925TIP3    H151266  -0.063   2.322  16.081 -1.1651  2.1756 -0.4579
 9925TIP3    H251267   0.027   2.409  15.995  0.9534 -0.1824 -0.6825
 9926TIP3   OH251268   0.349   6.059   1.578 -0.4724 -0.7892  0.0341
 9926TIP3    H151269   0.315   6.096   1.496 -1.2569 -1.3490  0.1021
 9926TIP3    H251270   0.298   6.102   1.646  0.1723 -0.3343  0.2358
 9927TIP3   OH251271   0.966   0.681  13.314  0.0678 -0.1869  0.2332
 9927TIP3    H151272   1.031   0.661  13.382  0.2081 -0.2493  0.0797
 9927TIP3    H251273   1.016   0.724  13.245  0.0226 -0.6041 -0.0636
 9928TIP3   OH251274   5.095   5.201   0.960  0.2809  0.0263 -0.3294
 9928TIP3    H151275   5.069   5.110   0.976  1.0470  0.1209  1.5556
 9928TIP3    H251276   5.014   5.251   0.971  0.1016 -0.3005 -0.1671
 9929TIP3   OH251277   3.850   5.482   0.685 -0.0603 -0.2208 -0.0675
 9929TIP3    H151278   3.804   5.457   0.765 -0.9325  3.1274  0.5422
 9929TIP3    H251279   3.790   5.461   0.614 -1.3226  1.2701  0.5271
 9930TIP3   OH251280   6.573   3.936  11.104  0.0579  0.1244  0.0196
 9930TIP3    H151281   6.640   3.924  11.171 -1.1207  0.2613  1.2390
 9930TIP3    H251282   6.542   3.847  11.086  1.2569 -0.0492 -1.2897
 9931TIP3   OH251283   2.714   4.433  13.375  0.6446 -0.2375 -0.2226
 9931TIP3    H151284   2.685   4.421  13.465 -0.4973 -0.1594 -0.5653
 9931TIP3    H251285   2.756   4.519  13.374  0.0629  0.0525  0.0958
 9932TIP3   OH251286   3.875   1.601   1.756  0.0730 -0.5422 -0.2074
 9932TIP3    H151287   3.927   1.534   1.800  2.0387 -1.4850 -3.7596
 9932TIP3    H251288   3.926   1.681   1.765 -0.3376 -0.3649  0.6088
 9933TIP3   OH251289   1.267   4.286  13.267  0.4135  0.1274  0.5190
 9933TIP3    H151290   1.314   4.263  13.187  1.3281  1.8629  0.5507
 9933TIP3    H251291   1.239   4.201  13.303 -2.4091 -0.5673 -3.0193
 9934TIP3   OH251292   6.298   0.525  16.182  0.5214 -0.2464 -0.1291
 9934TIP3    H151293   6.327   0.554  16.095 -3.9107  1.7618 -1.0343
 9934TIP3    H251294   6.268   0.435  16.168 -1.0223  0.3774 -0.9026
 9935TIP3   OH251295   0.587   3.403  12.741 -0.7413 -0.0423  0.0385
 9935TIP3    H151296   0.568   3.352  12.820  0.1658  0.0405  0.3148
 9935TIP3    H251297   0.682   3.408  12.739 -0.8012  0.8600 -0.4956
 9936TIP3   OH251298   3.505   0.304   1.284 -0.3670  0.2310  0.0031
 9936TIP3    H151299   3.446   0.251   1.229 -0.3231 -1.0049  1.1098
 9936TIP3    H251300   3.467   0.298   1.372  1.6828 -1.0222  0.8378
 9937TIP3   OH251301   1.621   4.398  11.649 -0.2698 -0.1066 -0.4267
 9937TIP3    H151302   1.527   4.398  11.663 -0.2762 -1.1803 -0.4832
 9937TIP3    H251303   1.652   4.477  11.694 -1.0789 -0.2352  0.3666
 9938TIP3   OH251304   3.515   2.044   3.369 -0.0451 -0.3583 -0.5369
 9938TIP3    H151305   3.446   2.022   3.305  0.9022 -0.1554 -1.6428
 9938TIP3    H251306   3.537   1.960   3.410 -1.7130 -0.2625  0.6212
 9939TIP3   OH251307   0.797   4.998  14.744  0.6206  0.4273 -0.4656
 9939TIP3    H151308   0.754   5.084  14.735  1.2142  0.8348  0.5175
 9939TIP3    H251309   0.783   4.956  14.660  0.2770  1.4766 -0.9480
 9940TIP3   OH251310   2.192   4.959   2.207  0.2698 -0.2389  0.1495
 9940TIP3    H151311   2.241   4.902   2.266  1.9797  1.3310  0.3035
 9940TIP3    H251312   2.259   5.015   2.167 -1.1561  0.4423 -1.3323
 9941TIP3   OH251313   5.788   5.393   1.018 -0.2807 -0.3737  0.4462
 9941TIP3    H151314   5.715   5.376   0.958  0.2129  0.2073 -0.3182
 9941TIP3    H251315   5.753   5.371   1.105 -1.4835  0.2498  0.1245
 9942TIP3   OH251316   2.986   6.583  11.333  0.1849 -0.3807 -0.3263
 9942TIP3    H151317   3.028   6.533  11.402  1.8990  0.7991 -0.4828
 9942TIP3    H251318   2.897   6.598  11.366  1.0335  0.3474  1.7355
 9943TIP3   OH251319   1.946   5.295   1.947  0.2174 -0.0724  0.4045
 9943TIP3    H151320   1.986   5.313   1.861  1.6058 -0.9896  0.8332
 9943TIP3    H251321   1.997   5.347   2.008 -0.4920  0.2320  0.7448
 9944TIP3   OH251322   1.784   3.141  14.380  0.2036 -0.6946 -0.8085
 9944TIP3    H151323   1.701   3.100  14.355  0.4833 -0.4815 -2.1194
 9944TIP3    H251324   1.769   3.234  14.366 -0.0245 -0.4394  0.9969
 9945TIP3   OH251325   5.467   2.036   2.598 -0.0666 -0.6236 -0.6004
 9945TIP3    H151326   5.501   1.947   2.586  0.3535 -0.3620 -1.3809
 9945TIP3    H251327   5.465   2.048   2.693 -0.5455 -1.6269 -0.4869
 9946TIP3   OH251328   0.740   4.087   3.131 -0.1228 -0.0931 -0.3676
 9946TIP3    H151329   0.795   4.014   3.160 -1.1579 -1.8261 -2.6114
 9946TIP3    H251330   0.802   4.154   3.102  0.8163 -0.4764  0.6845
 9947TIP3   OH251331   4.513   5.266  17.101  0.0119  0.5118  0.2159
 9947TIP3    H151332   4.522   5.178  17.138 -0.4704  0.6400  0.6601
 9947TIP3    H251333   4.445   5.257  17.034  1.5462  0.0848 -1.3059
 9948TIP3   OH251334   4.893   5.097   5.691 -0.0629  0.3012 -0.3165
 9948TIP3    H151335   4.878   5.177   5.640  1.2256 -0.4221 -1.8832
 9948TIP3    H251336   4.980   5.068   5.664  0.7514  0.0064  2.5077
 9949TIP3   OH251337   5.417   2.945   5.708  0.1358 -0.6901 -0.3213
 9949TIP3    H151338   5.419   2.984   5.795 -0.4814  0.3244 -0.7620
 9949TIP3    H251339   5.473   3.002   5.655  0.6017 -1.3681 -0.5679
 9950TIP3   OH251340   1.668   4.286   2.925 -0.0076 -0.4028  0.1048
 9950TIP3    H151341   1.649   4.371   2.963  1.3643  0.0890 -0.2505
 9950TIP3    H251342   1.609   4.225   2.969 -0.6847  0.6610  0.6779
 9951TIP3   OH251343   1.934   2.750  14.826  0.2097  0.0599 -0.3282
 9951TIP3    H151344   1.952   2.765  14.919  1.5952  0.1602 -0.6086
 9951TIP3    H251345   1.844   2.780  14.814 -0.1149 -0.3058  1.0626
 9952TIP3   OH251346   6.814   2.734  12.986 -0.1860 -0.1003 -0.3039
 9952TIP3    H151347   6.889   2.676  12.970  1.5217  1.5069  1.5908
 9952TIP3    H251348   6.791   2.717  13.078 -3.2598 -1.8100 -1.3400
 9953TIP3   OH251349   5.781   1.771   3.878  0.1636  0.4228 -0.3798
 9953TIP3    H151350   5.875   1.781   3.892 -0.1811  2.0863  0.7967
 9953TIP3    H251351   5.752   1.713   3.948 -0.1679  2.2407  1.0126
 9954TIP3   OH251352   4.245   1.302   3.377  0.3381  0.7152 -0.1836
 9954TIP3    H151353   4.208   1.381   3.416  0.5623  0.8545 -0.2474
 9954TIP3    H251354   4.340   1.315   3.382  0.3621  1.0561 -1.4183
 9955TIP3   OH251355   2.432   6.004  16.077 -0.0045 -0.1232  0.3739
 9955TIP3    H151356   2.433   6.004  16.173  1.5450 -0.4584  0.3741
 9955TIP3    H251357   2.495   5.936  16.053 -1.5781 -1.1686 -0.8937
 9956TIP3   OH251358   5.213   0.694  16.761 -0.1695  0.1424 -0.3826
 9956TIP3    H151359   5.132   0.741  16.780  0.5194  0.9289  0.6870
 9956TIP3    H251360   5.185   0.605  16.741 -1.2724  0.3341  0.2627
 9957TIP3   OH251361   0.544   6.063  12.902  0.1541 -0.2323 -0.2880
 9957TIP3    H151362   0.533   5.968  12.895  0.0485 -0.1470 -1.3402
 9957TIP3    H251363   0.552   6.079  12.996  0.5407 -1.3242 -0.1244
 9958TIP3   OH251364   0.518   2.150  13.170 -0.6808 -0.5389  0.8109
 9958TIP3    H151365   0.582   2.162  13.240 -0.3800 -2.5328  0.9036
 9958TIP3    H251366   0.433   2.161  13.212 -0.4556  1.4508  0.8214
 9959TIP3   OH251367   0.461   4.631   6.169  0.3605 -0.5046  0.1749
 9959TIP3    H151368   0.542   4.592   6.137  0.3042  0.5738 -1.3679
 9959TIP3    H251369   0.425   4.677   6.093  0.0703  1.9273  1.7031
 9960TIP3   OH251370   3.116   4.732  14.331 -0.2396 -0.2189  0.3346
 9960TIP3    H151371   3.052   4.774  14.388  0.0010 -0.2803  0.6535
 9960TIP3    H251372   3.068   4.711  14.251 -0.4052  0.5003  0.2440
 9961TIP3   OH251373   6.306   2.872  15.500  0.1601  0.0390 -0.8071
 9961TIP3    H151374   6.225   2.920  15.484  0.3440  0.5987 -0.0260
 9961TIP3    H251375   6.364   2.899  15.429  0.1696  0.7580 -0.5287
 9962TIP3   OH251376   0.575   0.979   5.699  0.9268 -0.1129 -0.1178
 9962TIP3    H151377   0.509   0.911   5.681  1.8632 -1.5316  1.6295
 9962TIP3    H251378   0.534   1.036   5.764  0.1739  0.9724 -1.5201
 9963TIP3   OH251379   6.145   4.800   4.731  0.3145  0.4149  0.2448
 9963TIP3    H151380   6.171   4.759   4.648  0.3056 -2.0129  1.4181
 9963TIP3    H251381   6.228   4.818   4.775  0.2201 -1.1945  1.0815
 9964TIP3   OH251382   6.442   5.893  14.241  0.4174  0.7881 -0.6056
 9964TIP3    H151383   6.522   5.842  14.223 -0.8258 -1.4453 -0.0005
 9964TIP3    H251384   6.449   5.969  14.183  1.8212 -0.6052 -2.3427
 9965TIP3   OH251385   6.077   4.997   2.687 -0.3912 -0.1355  0.3858
 9965TIP3    H151386   6.014   4.954   2.630  1.5503 -2.2390 -0.2597
 9965TIP3    H251387   6.152   4.937   2.689  0.3422  0.7758  3.6479
 9966TIP3   OH251388   5.988   6.658  15.002  0.1674 -0.0541  0.1983
 9966TIP3    H151389   5.980   6.712  14.924  2.1842  0.2233  0.1609
 9966TIP3    H251390   5.921   6.590  14.991  0.2614  0.1195 -1.6287
 9967TIP3   OH251391   1.498   0.070  11.278  0.1912  0.2304  0.2185
 9967TIP3    H151392   1.460  -0.009  11.317 -0.1197 -0.8474 -2.1593
 9967TIP3    H251393   1.505   0.132  11.351  3.3124 -2.9907  2.8479
 9968TIP3   OH251394   4.166   2.175  13.135  0.6110 -0.6269  0.3937
 9968TIP3    H151395   4.251   2.137  13.115  1.9888  1.5699  1.9050
 9968TIP3    H251396   4.165   2.258  13.088 -0.5303 -0.4435  0.7323
 9969TIP3   OH251397   6.382   6.691   0.536 -0.8195  0.6450 -0.2185
 9969TIP3    H151398   6.308   6.670   0.593 -0.4323 -0.1919 -0.0183
 9969TIP3    H251399   6.434   6.611   0.534  0.0315  1.2006 -0.4362
 9970TIP3   OH251400   1.671   2.683   5.463 -0.3446  0.3019  0.1373
 9970TIP3    H151401   1.663   2.751   5.396 -0.5849 -0.1930 -0.3394
 9970TIP3    H251402   1.764   2.682   5.486 -0.2060  0.2485 -0.4225
 9971TIP3   OH251403   1.599   2.476   0.272  0.0901  0.0693  0.1729
 9971TIP3    H151404   1.614   2.390   0.310  4.1190  0.1042 -1.0800
 9971TIP3    H251405   1.627   2.537   0.340 -2.1505  0.4098  0.8188
 9972TIP3   OH251406   5.818   2.673   4.701  0.7994 -0.0954 -0.3636
 9972TIP3    H151407   5.753   2.695   4.768  1.1607  0.4960 -0.2038
 9972TIP3    H251408   5.775   2.608   4.646  0.5481 -0.7193  0.5383
 9973TIP3   OH251409   2.182   0.305   4.067 -0.2817  0.2875  0.0072
 9973TIP3    H151410   2.244   0.374   4.043 -1.2971  0.7260 -1.4589
 9973TIP3    H251411   2.235   0.225   4.070  0.6238  0.8933  0.2174
 9974TIP3   OH251412   5.103   3.835  12.007  0.1933  0.2365 -0.0942
 9974TIP3    H151413   5.037   3.844  11.938  0.1524  2.1586  0.1810
 9974TIP3    H251414   5.179   3.797  11.962 -0.3669  0.0163 -0.8628
 9975TIP3   OH251415   6.044   4.993  14.292 -0.1527 -0.1166 -0.0520
 9975TIP3    H151416   6.066   5.034  14.375  1.4596  0.4950 -0.7516
 9975TIP3    H251417   5.960   5.032  14.267 -0.7520 -0.4694  1.3746
 9976TIP3   OH251418   1.470   0.006   0.429  0.3124  0.0197 -0.3484
 9976TIP3    H151419   1.415   0.066   0.379 -1.2121 -1.2447 -0.2009
 9976TIP3    H251420   1.529  -0.032   0.365 -0.2519 -0.0497 -0.8298
 9977TIP3   OH251421   2.168   4.934  11.440 -0.1594 -0.6627  0.3333
 9977TIP3    H151422   2.207   4.982  11.513  0.2097 -0.0976 -0.2318
 9977TIP3    H251423   2.075   4.929  11.462 -0.7914  3.1673 -1.1350
 9978TIP3   OH251424   4.168   0.528   2.060  0.3138 -0.0507 -0.4132
 9978TIP3    H151425   4.202   0.530   2.149 -0.5430 -1.6539 -0.0381
 9978TIP3    H251426   4.231   0.474   2.011 -0.5512 -1.2662 -0.1983
 9979TIP3   OH251427   4.032   5.135   2.497 -0.1347 -0.0677  0.0959
 9979TIP3    H151428   3.984   5.207   2.539  0.5678 -0.5704  1.7940
 9979TIP3    H251429   4.093   5.179   2.438 -1.0676  0.6578 -0.3415
 9980TIP3   OH251430   1.072   2.100   3.581  0.2029 -0.2439  0.5531
 9980TIP3    H151431   1.042   2.174   3.528 -0.3453 -0.9924 -0.1855
 9980TIP3    H251432   1.106   2.141   3.661 -0.4907  0.7790  0.3372
 9981TIP3   OH251433   4.361   4.319  16.909  0.1034 -0.6378 -0.2428
 9981TIP3    H151434   4.454   4.301  16.924  0.2287 -1.7868 -2.1968
 9981TIP3    H251435   4.355   4.415  16.907  1.1936 -0.5557  0.1140
 9982TIP3   OH251436   6.315   3.313  12.695 -0.0711 -0.4468 -0.2309
 9982TIP3    H151437   6.273   3.239  12.739  0.7390  0.0831  1.4468
 9982TIP3    H251438   6.408   3.302  12.710  0.3577 -0.9143 -2.8794
 9983TIP3   OH251439   3.233   2.117  13.224 -1.1467  0.4628  0.3288
 9983TIP3    H151440   3.208   2.051  13.160  0.3576 -0.3968  0.6107
 9983TIP3    H251441   3.234   2.199  13.174  0.6691 -0.2927 -0.9236
 9984TIP3   OH251442   0.027   3.110   5.671 -0.2083  0.3741 -0.0100
 9984TIP3    H151443   0.030   3.045   5.741 -0.3156 -1.4607 -1.6576
 9984TIP3    H251444  -0.065   3.139   5.668 -0.4355 -0.3560 -0.1083
 9985TIP3   OH251445   3.911   6.269  14.511 -0.0531  0.0457  0.4926
 9985TIP3    H151446   3.851   6.208  14.555 -1.2339  1.6335  1.1353
 9985TIP3    H251447   3.996   6.252  14.551 -0.8263  0.4317  2.3559
 9986TIP3   OH251448   1.261   3.432  15.041  0.2468  0.3225  0.1836
 9986TIP3    H151449   1.344   3.461  15.003  1.9768 -1.5265  2.3899
 9986TIP3    H251450   1.286   3.364  15.104 -2.9455 -0.1943  0.9765
 9987TIP3   OH251451   5.320   6.112   0.877 -0.3136 -0.1186 -0.1257
 9987TIP3    H151452   5.226   6.104   0.865 -0.2150  0.0898 -1.0446
 9987TIP3    H251453   5.356   6.113   0.789  0.6221 -1.0550  0.2251
 9988TIP3   OH251454   2.373   6.120  12.189 -0.2728 -0.2517  0.1786
 9988TIP3    H151455   2.385   6.210  12.220 -1.0341 -0.4284  1.0254
 9988TIP3    H251456   2.290   6.093  12.229  0.7679 -1.8953  1.2857
 9989TIP3   OH251457   3.855   1.016  13.213  0.0127  0.0131  0.0463
 9989TIP3    H151458   3.929   1.033  13.154  0.3185 -0.3720  0.3169
 9989TIP3    H251459   3.786   1.073  13.181 -0.4208 -1.5320 -1.8459
 9990TIP3   OH251460   0.829   5.855  13.637  0.2676 -0.2285  0.1765
 9990TIP3    H151461   0.859   5.767  13.660 -0.3443 -0.4514  0.1255
 9990TIP3    H251462   0.869   5.871  13.551  0.7186 -0.2866  0.3718
 9991TIP3   OH251463   4.056   2.646  11.439  0.4405 -0.5706 -1.0048
 9991TIP3    H151464   3.989   2.685  11.383 -1.1881 -1.5433  0.2167
 9991TIP3    H251465   4.020   2.561  11.463  0.0473  0.7535  3.4044
 9992TIP3   OH251466   4.581   0.284   3.863 -0.1408 -0.2653  0.0360
 9992TIP3    H151467   4.669   0.274   3.899  0.0675  1.8544  0.1733
 9992TIP3    H251468   4.528   0.313   3.937 -0.6487 -0.1410 -0.3763
 9993TIP3   OH251469   3.741   3.127   5.273  0.0119  0.3840 -0.5071
 9993TIP3    H151470   3.662   3.085   5.308  0.5532  0.4169  0.7909
 9993TIP3    H251471   3.708   3.204   5.226 -0.7259  0.4124  0.0441
 9994TIP3   OH251472   4.961   6.207   5.105  0.4387 -0.4659 -0.0021
 9994TIP3    H151473   5.050   6.206   5.071 -0.5518  1.3773 -2.8264
 9994TIP3    H251474   4.965   6.269   5.178  1.0987  1.1105 -1.3359
 9995TIP3   OH251475   4.856   5.849   3.053 -0.0445  0.3714 -0.6403
 9995TIP3    H151476   4.839   5.917   3.118  1.3685 -1.4537  1.7242
 9995TIP3    H251477   4.779   5.792   3.056 -0.4982  0.9368 -1.4283
 9996TIP3   OH251478   1.289   5.849  13.095  0.4874  0.0486  0.3827
 9996TIP3    H151479   1.302   5.824  13.003 -0.8699 -0.2688  0.2692
 9996TIP3    H251480   1.364   5.906  13.115  0.1204  1.1562 -1.2897
 9997TIP3   OH251481   4.120   2.746   4.900  0.1800  0.2625  0.0472
 9997TIP3    H151482   4.130   2.654   4.924  3.2125  0.2403 -1.0763
 9997TIP3    H251483   4.103   2.745   4.806 -3.2987  0.7403  0.6038
 9998TIP3   OH251484   3.468   4.140   1.830  0.4723 -0.2969 -0.9032
 9998TIP3    H151485   3.383   4.143   1.875  0.6684  1.8816 -0.6247
 9998TIP3    H251486   3.531   4.117   1.899  0.5101  1.0932 -0.4698
 9999TIP3   OH251487   3.896   1.316   4.970  0.1664 -0.0506  0.3819
 9999TIP3    H151488   3.809   1.304   5.008  0.7613  1.4434  2.2695
 9999TIP3    H251489   3.951   1.346   5.042  1.8081  0.9204 -1.2127
10000TIP3   OH251490   0.710   6.415   3.117 -0.3630  0.7211 -0.2123
10000TIP3    H151491   0.748   6.333   3.083 -0.8460  0.2854  0.2868
10000TIP3    H251492   0.667   6.389   3.198 -0.0090  1.5837  0.2614
10001TIP3   OH251493   2.686   5.092  13.784 -0.4479  0.4611  0.2542
10001TIP3    H151494   2.656   5.183  13.791  2.9235  1.6587  0.1479
10001TIP3    H251495   2.716   5.084  13.694 -1.3415 -0.9931  0.0736
10002TIP3   OH251496   5.615   2.952   1.045 -0.2954  0.0215  0.0419
10002TIP3    H151497   5.621   2.883   1.111  0.5634  0.8480  0.8329
10002TIP3    H251498   5.703   2.958   1.008 -1.2772 -2.0343 -2.8480
10003TIP3   OH251499   2.004   3.639   5.001  0.0420  0.3250  0.5025
10003TIP3    H151500   1.951   3.664   5.077 -1.7796 -1.4167 -0.1393
10003TIP3    H251501   1.980   3.701   4.933 -0.3289  0.2392  0.5554
10004TIP3   OH251502   6.389   3.626  15.688 -0.6668  0.3755 -0.2131
10004TIP3    H151503   6.429   3.632  15.602 -1.8006  1.1534 -0.6981
10004TIP3    H251504   6.361   3.715  15.709  0.9268  0.4917  1.6309
10005TIP3   OH251505   4.562   2.784  17.123 -0.6202  0.2916  0.4107
10005TIP3    H151506   4.556   2.728  17.200 -1.9773 -0.5550 -0.2955
10005TIP3    H251507   4.491   2.756  17.067  0.0980  1.1833 -0.9818
10006TIP3   OH251508   1.173   2.541  12.987 -0.2493  0.9161 -0.0280
10006TIP3    H151509   1.255   2.556  12.940  0.4767 -1.4789  0.4314
10006TIP3    H251510   1.105   2.551  12.921  0.6611 -0.7793 -1.2277
10007TIP3   OH251511   1.439   1.666  13.414  0.2110  0.1155  0.0423
10007TIP3    H151512   1.372   1.612  13.372  0.8976  1.2319 -2.5961
10007TIP3    H251513   1.470   1.613  13.487 -2.5865 -0.9639  0.5131
10008TIP3   OH251514   5.727   5.844   2.114  0.1130 -0.1162 -0.0282
10008TIP3    H151515   5.719   5.913   2.049 -0.8529 -1.4696 -1.3648
10008TIP3    H251516   5.821   5.833   2.125  0.2896 -0.0871 -1.4240
10009TIP3   OH251517   0.086   6.047   4.742  0.1780  0.3243  0.3004
10009TIP3    H151518   0.125   6.065   4.656 -0.8474 -1.2879 -0.5292
10009TIP3    H251519   0.161   6.032   4.799  0.8281 -1.0950 -0.8926
10010TIP3   OH251520   4.315   4.815  15.308  0.7618  0.0671 -0.5022
10010TIP3    H151521   4.234   4.844  15.265  0.4006 -1.7286 -1.0885
10010TIP3    H251522   4.370   4.893  15.311 -0.6308  1.0945 -0.9246
10011TIP3   OH251523   0.908   6.275   5.459 -0.2166  0.1014 -0.2289
10011TIP3    H151524   0.874   6.354   5.501 -0.2534  0.0339 -0.1339
10011TIP3    H251525   0.909   6.296   5.365  0.4321  0.4695 -0.1441
10012TIP3   OH251526   5.431   5.628   4.749  0.3440  0.0521  0.1208
10012TIP3    H151527   5.499   5.685   4.785  0.6158  0.6564 -1.2773
10012TIP3    H251528   5.449   5.627   4.655 -1.5298  0.1447 -0.2600
10013TIP3   OH251529   6.662   2.481  13.802  0.4217 -0.6426 -0.2546
10013TIP3    H151530   6.710   2.543  13.747  1.5682 -1.2102  0.0697
10013TIP3    H251531   6.615   2.425  13.740  0.6315 -0.4297 -0.6045
10014TIP3   OH251532   0.640   2.733   4.543  0.2559  0.4637  0.2878
10014TIP3    H151533   0.697   2.670   4.586  0.7471  1.0440  0.4852
10014TIP3    H251534   0.552   2.697   4.554  0.6252 -0.7147 -0.4993
10015TIP3   OH251535   2.814   1.658  11.429  0.0665 -0.2529 -0.7293
10015TIP3    H151536   2.869   1.692  11.359 -0.8406 -1.3528 -2.0247
10015TIP3    H251537   2.734   1.629  11.384 -0.7204 -0.5480  0.8290
10016TIP3   OH251538   4.219   0.962   0.861  0.1905 -0.3460 -0.3847
10016TIP3    H151539   4.269   0.925   0.934  0.3915 -0.2178 -0.4551
10016TIP3    H251540   4.280   1.024   0.820  0.3054 -0.9193 -1.0787
10017TIP3   OH251541   1.196   4.762   4.858 -0.0491  0.2092 -0.0608
10017TIP3    H151542   1.186   4.671   4.887 -0.3199  0.7935  1.7462
10017TIP3    H251543   1.111   4.784   4.820 -0.2129 -0.0687  0.1425
10018TIP3   OH251544   0.601   2.095   5.909  0.5045  0.2440  0.3734
10018TIP3    H151545   0.529   2.137   5.956 -0.2447 -0.9606  0.3216
10018TIP3    H251546   0.565   2.013   5.878  1.7136 -0.0714 -0.2387
10019TIP3   OH251547   4.396   5.964  14.923 -0.6028  0.2990  0.8404
10019TIP3    H151548   4.387   5.979  15.017 -0.3473  0.9939  0.7569
10019TIP3    H251549   4.312   5.928  14.896 -0.9258  0.7661  1.2106
10020TIP3   OH251550   4.393   4.020  13.534 -0.3471 -0.1576 -0.0720
10020TIP3    H151551   4.424   4.012  13.624 -0.7081 -1.4884 -0.0654
10020TIP3    H251552   4.470   4.048  13.484  1.1150 -4.1798 -0.1873
10021TIP3   OH251553   1.481   3.707   5.433  0.1401  0.2494 -0.0783
10021TIP3    H151554   1.396   3.750   5.425  0.4375  0.5478 -1.6249
10021TIP3    H251555   1.487   3.684   5.526 -1.1653  1.1707  0.2445
10022TIP3   OH251556   4.372   3.158   0.081 -0.4812  0.1759 -0.1491
10022TIP3    H151557   4.419   3.075   0.084 -0.2826  0.2132 -1.7599
10022TIP3    H251558   4.437   3.222   0.053 -1.0714  0.5276 -0.7429
10023TIP3   OH251559   2.275   6.664   5.216 -0.3143 -0.0652  0.0455
10023TIP3    H151560   2.239   6.615   5.142  0.7334 -0.1165 -0.4487
10023TIP3    H251561   2.362   6.692   5.185 -0.4886  1.2110  0.7004
10024TIP3   OH251562   0.862   2.987   1.911  0.4181 -0.6731 -0.1664
10024TIP3    H151563   0.841   2.989   1.817 -1.1209 -0.8810  0.1579
10024TIP3    H251564   0.780   2.960   1.953  1.8188 -3.2945  1.0297
10025TIP3   OH251565   0.212   3.501  17.263 -0.0590 -0.6828 -0.6896
10025TIP3    H151566   0.142   3.436  17.263  0.4962 -1.3058  0.8683
10025TIP3    H251567   0.222   3.525  17.355  0.4027  0.9025 -1.1335
10026TIP3   OH251568   4.156   1.910   5.580 -0.5385  0.5298  0.6369
10026TIP3    H151569   4.117   1.978   5.525  1.1118  1.0224  0.0520
10026TIP3    H251570   4.249   1.932   5.583  0.2675 -2.4494 -0.6754
10027TIP3   OH251571   4.827   6.275   4.248  0.3873 -0.0985  0.1283
10027TIP3    H151572   4.832   6.198   4.306 -1.6563 -0.5541 -0.2798
10027TIP3    H251573   4.834   6.350   4.308 -0.3278 -0.5817  0.8402
10028TIP3   OH251574   4.469   2.334  14.294  0.8619 -0.4504  0.2958
10028TIP3    H151575   4.469   2.344  14.389 -0.5417  0.1078  0.2463
10028TIP3    H251576   4.491   2.421  14.260 -1.8098  0.1670  0.0642
10029TIP3   OH251577   4.836   6.347  14.538 -0.7179 -0.1534  0.3022
10029TIP3    H151578   4.759   6.339  14.594 -2.4138  0.5591 -1.8255
10029TIP3    H251579   4.894   6.406  14.585 -2.9249  1.9642  0.4605
10030TIP3   OH251580   0.280   0.759  13.462  0.6398  0.1693 -0.0738
10030TIP3    H151581   0.252   0.833  13.517 -0.7687 -1.2985  1.2523
10030TIP3    H251582   0.204   0.742  13.406  0.0417 -1.7521  1.2683
10031TIP3   OH251583   2.504   0.301  15.763 -0.7508  0.4058 -0.0377
10031TIP3    H151584   2.422   0.307  15.715 -0.8434 -0.3590  0.0091
10031TIP3    H251585   2.520   0.207  15.770 -0.1688  0.5401  0.4532
10032TIP3   OH251586   4.179   4.353   3.607  0.3838 -0.2134 -0.1828
10032TIP3    H151587   4.191   4.399   3.690  0.0252  0.3434 -0.4396
10032TIP3    H251588   4.165   4.262   3.632  0.1935 -0.0296  0.3754
10033TIP3   OH251589   3.691   0.031  17.260  0.5886 -0.3865  0.4808
10033TIP3    H151590   3.723   0.082  17.186  2.3060 -0.4023  1.1861
10033TIP3    H251591   3.665  -0.053  17.222 -2.7982  1.1220 -0.7884
10034TIP3   OH251592   2.005   2.338   3.419  0.7513  0.1864  0.0611
10034TIP3    H151593   2.086   2.338   3.369  0.5151  2.0373 -0.3848
10034TIP3    H251594   2.031   2.368   3.507  0.2084  3.3711 -0.7960
10035TIP3   OH251595   1.346   1.246  11.750  0.1176  0.2851 -0.2854
10035TIP3    H151596   1.263   1.294  11.750  0.4721  1.0443  3.6321
10035TIP3    H251597   1.411   1.311  11.724 -0.0301  0.7072  0.3879
10036TIP3   OH251598   0.596   2.456   3.836  0.4635 -0.0804 -0.4091
10036TIP3    H151599   0.564   2.484   3.922 -0.1173  1.1336 -1.0111
10036TIP3    H251600   0.688   2.436   3.850  1.3688  3.9049 -0.3520
10037TIP3   OH251601   4.936   0.662   2.067 -0.0669  0.3143  0.2260
10037TIP3    H151602   4.997   0.590   2.054 -0.2426  0.4167 -1.2043
10037TIP3    H251603   4.925   0.701   1.981  0.2221  2.2303  1.0353
10038TIP3   OH251604   2.117   2.937  14.674 -0.1185  0.0608 -0.8613
10038TIP3    H151605   2.076   2.869  14.728 -0.9166  1.8973  0.8715
10038TIP3    H251606   2.058   2.945  14.598 -0.9415  0.0263 -0.2341
10039TIP3   OH251607   2.880   4.798   2.083  0.3749  0.0862  0.6039
10039TIP3    H151608   2.871   4.759   2.170  2.0230  1.1490  1.2870
10039TIP3    H251609   2.829   4.879   2.089 -1.9386 -1.2541 -0.3852
10040TIP3   OH251610   2.336   0.231  14.517  0.0898 -0.4853  0.1220
10040TIP3    H151611   2.408   0.184  14.558  0.9097 -0.3858 -1.2051
10040TIP3    H251612   2.303   0.171  14.450 -0.1059  0.0624 -0.2712
10041TIP3   OH251613   3.115   3.590   4.702 -0.8111 -0.9298 -0.2030
10041TIP3    H151614   3.208   3.615   4.706 -1.5381  1.8043  1.1004
10041TIP3    H251615   3.095   3.558   4.790 -1.2615 -0.8717 -0.2838
10042TIP3   OH251616   3.291   1.894  15.396  0.0448 -0.4911 -0.0037
10042TIP3    H151617   3.368   1.933  15.355 -0.2806  0.7558  0.5449
10042TIP3    H251618   3.218   1.921  15.340 -0.0383 -1.3863 -0.3319
10043TIP3   OH251619   4.591   4.404   3.728  0.0918 -0.7424  0.4270
10043TIP3    H151620   4.623   4.314   3.729 -0.1596 -0.8230  1.3950
10043TIP3    H251621   4.571   4.421   3.636  2.8394 -0.7133 -0.2189
10044TIP3   OH251622   3.950   3.329   2.295  0.1983  0.1270  0.1996
10044TIP3    H151623   3.929   3.368   2.210 -1.0510  0.3479  0.6017
10044TIP3    H251624   3.866   3.298   2.329  1.0877 -2.5986  0.0629
10045TIP3   OH251625   5.599   0.591  16.168  0.3484 -0.3487  0.5400
10045TIP3    H151626   5.622   0.502  16.144  0.4199 -0.2113  0.1047
10045TIP3    H251627   5.504   0.596  16.153  0.0766 -0.7903  1.9470
10046TIP3   OH251628   5.287   0.134  12.309  0.3919 -0.0014 -0.7733
10046TIP3    H151629   5.251   0.173  12.388  0.6938  1.3295 -1.2757
10046TIP3    H251630   5.211   0.094  12.265  0.1567 -0.3760 -0.0419
10047TIP3   OH251631   1.895   1.363  12.171 -0.7522  0.0249  0.2985
10047TIP3    H151632   1.950   1.347  12.247  0.8670 -2.8867 -1.4161
10047TIP3    H251633   1.957   1.373  12.098 -2.4063 -1.3587 -1.3358
10048TIP3   OH251634   5.533   5.780  17.101  0.5612  0.4935 -0.3257
10048TIP3    H151635   5.511   5.857  17.154  1.0380  2.3638 -2.7735
10048TIP3    H251636   5.628   5.787  17.087  0.4688 -0.0693 -1.2938
10049TIP3   OH251637   5.263   4.125  13.124  0.1685 -0.2008 -0.7995
10049TIP3    H151638   5.319   4.113  13.047 -0.0839  0.2616 -1.0588
10049TIP3    H251639   5.324   4.146  13.195  0.3207  0.3329 -1.0870
10050TIP3   OH251640   1.860   0.907   4.177  0.6401 -0.3380 -0.2414
10050TIP3    H151641   1.850   1.003   4.176  1.0095 -0.2964 -1.6755
10050TIP3    H251642   1.841   0.880   4.087 -0.7911 -1.7724  0.4729
10051TIP3   OH251643   5.271   4.018  16.444  0.3623 -0.1578  0.0782
10051TIP3    H151644   5.215   4.082  16.399 -0.1032  0.5841  1.6650
10051TIP3    H251645   5.354   4.064  16.457 -0.0554  0.2433  1.4495
10052TIP3   OH251646   4.237   5.728   4.769 -0.1025  0.3855  0.0678
10052TIP3    H151647   4.186   5.732   4.688 -1.4253  0.9609  0.9177
10052TIP3    H251648   4.173   5.706   4.837  1.3315 -2.0693  0.6778
10053TIP3   OH251649   0.386   3.758  13.724  0.1928 -0.1918 -0.3702
10053TIP3    H151650   0.340   3.806  13.656  0.9937  0.8118 -0.2179
10053TIP3    H251651   0.406   3.673  13.684 -0.8287 -0.2416 -0.7909
10054TIP3   OH251652   3.994   2.327  12.114 -0.2604  0.1229 -0.6618
10054TIP3    H151653   3.936   2.399  12.090 -0.8135 -0.6625 -1.6817
10054TIP3    H251654   4.042   2.307  12.034 -1.2880 -1.7446 -0.8165
10055TIP3   OH251655   1.693   5.925  12.782  0.1592  0.2862  0.4625
10055TIP3    H151656   1.677   5.858  12.849  0.7297  0.6289  0.9436
10055TIP3    H251657   1.626   5.908  12.715 -0.0504 -0.4177  0.8418
10056TIP3   OH251658   6.164   3.425  11.100  0.4837 -0.0210  0.3358
10056TIP3    H151659   6.160   3.497  11.037 -1.9589  1.4149  2.0618
10056TIP3    H251660   6.096   3.445  11.164  0.5623 -3.2649  1.5224
10057TIP3   OH251661   3.275   4.876  15.931  0.2395  0.3277 -0.4454
10057TIP3    H151662   3.220   4.849  15.857  2.2264  1.8131 -2.5255
10057TIP3    H251663   3.346   4.927  15.892  1.7983  0.5007  2.4167
10058TIP3   OH251664   0.670   3.981   5.474 -0.2640  0.1761  0.4878
10058TIP3    H151665   0.591   4.012   5.518 -1.1680  1.7996 -2.1481
10058TIP3    H251666   0.638   3.930   5.399  1.1713  0.9475 -0.6880
10059TIP3   OH251667   5.369   2.268  11.071  0.4287 -0.5253 -0.3356
10059TIP3    H151668   5.280   2.233  11.075  0.1471  0.1946 -0.3911
10059TIP3    H251669   5.422   2.193  11.043 -0.2124 -0.8548 -0.6883
10060TIP3   OH251670   6.626   2.384   1.152  0.9793  0.3785  0.3125
10060TIP3    H151671   6.627   2.420   1.063  1.9639  1.2932  0.6900
10060TIP3    H251672   6.541   2.340   1.158  1.4063 -0.7674 -1.5024
10061TIP3   OH251673   5.315   3.462   2.156  0.1920 -0.0310 -0.0845
10061TIP3    H151674   5.285   3.539   2.109  1.8866 -0.5844 -2.1262
10061TIP3    H251675   5.273   3.469   2.242 -3.7926  0.4582 -1.9534
10062TIP3   OH251676   5.247   0.308   2.487 -0.2176  0.2439  0.5667
10062TIP3    H151677   5.267   0.340   2.576 -1.3781 -0.2531  1.0117
10062TIP3    H251678   5.180   0.369   2.455  1.1010  1.1824 -0.4622
10063TIP3   OH251679   2.997   3.445   6.686 -0.3605  0.4017 -0.3441
10063TIP3    H151680   3.034   3.474   6.603  1.1763  0.8633  0.4837
10063TIP3    H251681   2.972   3.526   6.731  1.2171  0.3419  0.7171
10064TIP3   OH251682   5.804   4.172   4.656 -0.4055 -0.3629  0.3741
10064TIP3    H151683   5.741   4.101   4.643  0.2596 -0.7148 -1.0020
10064TIP3    H251684   5.856   4.145   4.732 -0.8623 -0.8385  0.5176
10065TIP3   OH251685   1.184   2.942  16.760 -0.8437 -0.9059 -0.3135
10065TIP3    H151686   1.211   2.851  16.770  1.7313 -0.1080  0.3580
10065TIP3    H251687   1.090   2.942  16.781 -0.8927 -3.3962 -0.4470
10066TIP3   OH251688   5.594   3.037  12.828 -0.1266 -0.2360  0.5031
10066TIP3    H151689   5.661   3.051  12.896  0.0311  1.5469 -0.0210
10066TIP3    H251690   5.644   3.016  12.749 -0.2473 -0.1398  0.4017
10067TIP3   OH251691   2.373   3.392   1.497 -0.5882 -0.0287 -0.3206
10067TIP3    H151692   2.427   3.365   1.423  0.2488 -1.2024  0.7046
10067TIP3    H251693   2.384   3.323   1.562 -0.8329  1.2799  1.1444
10068TIP3   OH251694   5.357   5.878   2.699  0.0380 -0.4805 -0.7975
10068TIP3    H151695   5.264   5.867   2.718  0.7665 -3.0351  1.4732
10068TIP3    H251696   5.374   5.971   2.716 -2.1557  0.1336 -1.7313
10069TIP3   OH251697   3.241   0.494  11.616 -0.2100 -0.1170 -0.1321
10069TIP3    H151698   3.187   0.555  11.565  0.0766 -0.0353 -0.3375
10069TIP3    H251699   3.212   0.506  11.706 -0.7855 -0.3282 -0.2871
10070TIP3   OH251700   5.026   1.314   1.486  0.0859 -0.0201  0.3849
10070TIP3    H151701   5.087   1.309   1.561 -0.7186  0.3538  1.0716
10070TIP3    H251702   5.060   1.387   1.433  0.7421 -0.3759  0.3061
10071TIP3   OH251703   2.031   1.327   5.917  0.1900 -0.0717  0.4649
10071TIP3    H151704   1.949   1.368   5.889 -0.1342  0.2620  1.8627
10071TIP3    H251705   2.062   1.382   5.989  0.2582 -1.6939  1.7225
10072TIP3   OH251706   3.823   6.367   1.190  0.4307  0.7621  0.4098
10072TIP3    H151707   3.807   6.438   1.252  1.1931  0.2552  1.1869
10072TIP3    H251708   3.911   6.337   1.210 -0.3797 -1.3080  0.9916
10073TIP3   OH251709   1.895   1.847  12.824 -0.3366 -0.6043 -0.0509
10073TIP3    H151710   1.882   1.941  12.829 -0.1890 -0.4616 -1.9480
10073TIP3    H251711   1.971   1.836  12.767 -0.4960 -1.8775 -0.0290
10074TIP3   OH251712   0.935   0.635  15.987 -0.1616 -0.4879  0.7537
10074TIP3    H151713   0.891   0.553  15.965  0.5714 -0.2671 -1.6621
10074TIP3    H251714   1.029   0.615  15.979  0.0965  0.0980  2.0348
10075TIP3   OH251715   3.371   6.665   0.059  0.3005 -0.1151 -0.0123
10075TIP3    H151716   3.347   6.757   0.051  0.3019 -0.1509 -0.4623
10075TIP3    H251717   3.295   6.624   0.100  0.9493  0.3758  1.7202
10076TIP3   OH251718   4.666   1.451   0.855  0.3880  0.1718  0.6011
10076TIP3    H151719   4.707   1.448   0.942  1.1959  0.4086  0.2325
10076TIP3    H251720   4.605   1.525   0.860  1.0108  0.6803  0.7167
10077TIP3   OH251721   5.259   0.514   0.851  0.3930  0.6697  0.3820
10077TIP3    H151722   5.208   0.513   0.932 -1.7956 -1.0382 -0.9574
10077TIP3    H251723   5.219   0.446   0.797  1.7452  1.8333 -2.1694
10078TIP3   OH251724   6.157   3.886   1.812 -0.3353 -0.3219 -0.7453
10078TIP3    H151725   6.169   3.792   1.794 -0.1698 -0.3372 -0.5507
10078TIP3    H251726   6.202   3.900   1.895 -2.4505 -0.5763  0.4779
10079TIP3   OH251727   3.083   2.962  15.457  0.3262  0.4513  0.1633
10079TIP3    H151728   3.072   3.017  15.380  1.2470 -0.7396 -0.8430
10079TIP3    H251729   3.170   2.923  15.447 -0.4359 -1.4596  0.6501
10080TIP3   OH251730   4.289   0.381   3.669 -0.3992 -0.6418 -0.0721
10080TIP3    H151731   4.306   0.287   3.670 -1.8273 -0.9155  1.1397
10080TIP3    H251732   4.219   0.392   3.605  0.7405 -0.2202 -1.2395
10081TIP3   OH251733   4.919   0.592  12.469  0.4948  0.4228  0.2884
10081TIP3    H151734   4.828   0.608  12.443  0.2296 -0.5274  0.6176
10081TIP3    H251735   4.970   0.610  12.390 -0.1980 -1.3778 -0.6023
10082TIP3   OH251736   3.423   0.534  10.514 -0.3429 -0.2353 -0.2547
10082TIP3    H151737   3.395   0.455  10.560 -2.7729  1.1696  0.8129
10082TIP3    H251738   3.352   0.553  10.453  1.6963 -0.6361 -2.8492
10083TIP3   OH251739   3.615   3.169  12.087  0.0545 -0.8544  0.5625
10083TIP3    H151740   3.569   3.128  12.161 -1.9293  0.4547  0.0769
10083TIP3    H251741   3.565   3.248  12.068  0.8675 -0.8819 -1.8472
10084TIP3   OH251742   6.434   6.550   1.158  0.2250  0.1057 -0.0685
10084TIP3    H151743   6.518   6.573   1.198 -0.1062  2.1965 -0.5579
10084TIP3    H251744   6.370   6.561   1.229 -0.0083  1.2099 -0.4553
10085TIP3   OH251745   3.473   0.988  16.318  0.2636 -0.2697  0.2882
10085TIP3    H151746   3.544   0.929  16.293  0.1240 -0.9377  1.4242
10085TIP3    H251747   3.517   1.063  16.359  0.3772 -0.0944 -0.1526
10086TIP3   OH251748   5.093   0.713   4.298 -0.0058  0.1829 -0.1975
10086TIP3    H151749   5.116   0.631   4.342 -1.6666 -0.6654 -0.8677
10086TIP3    H251750   5.002   0.729   4.324 -0.1616  1.0312 -1.2405
10087TIP3   OH251751   6.150   0.982  15.262  0.6516  0.2711 -0.1501
10087TIP3    H151752   6.168   0.994  15.169 -2.2722 -0.1504 -0.8041
10087TIP3    H251753   6.058   1.006  15.272  0.2239 -2.1496  2.1557
10088TIP3   OH251754   6.005   3.068  12.623 -0.0794  0.7306  0.4100
10088TIP3    H151755   6.081   3.093  12.675 -0.0339  1.0173  0.2074
10088TIP3    H251756   6.017   2.975  12.605  0.2293  0.7788  0.3680
10089TIP3   OH251757   5.210   5.693   2.939  0.3640  0.3424 -0.7582
10089TIP3    H151758   5.282   5.676   2.999 -1.2220  0.1508  1.1249
10089TIP3    H251759   5.215   5.622   2.875 -1.3070 -2.7575  2.4042
10090TIP3   OH251760   4.060   4.539  13.896  0.9053 -0.6151  0.3862
10090TIP3    H151761   4.111   4.619  13.887 -0.5509  0.2767 -0.2420
10090TIP3    H251762   4.072   4.494  13.813 -0.8365  0.5348 -0.5273
10091TIP3   OH251763   5.174   4.709   6.092 -0.5343  0.0894 -0.0652
10091TIP3    H151764   5.269   4.712   6.100 -0.5633 -0.7956  0.8569
10091TIP3    H251765   5.158   4.683   6.001  0.1342 -0.6313  0.0121
10092TIP3   OH251766   5.339   1.727  11.470 -0.1446 -0.3017  0.5040
10092TIP3    H151767   5.312   1.770  11.389 -1.8752 -0.7542  0.8033
10092TIP3    H251768   5.320   1.791  11.538  0.3477 -0.3081  0.6457
10093TIP3   OH251769   5.525   5.677  11.982 -0.4581 -0.0603 -0.4463
10093TIP3    H151770   5.498   5.669  11.891 -1.7702 -0.1679 -0.0514
10093TIP3    H251771   5.560   5.766  11.989  0.8463 -0.4903 -1.3555
10094TIP3   OH251772   5.711   2.033  16.584 -0.0010  0.2225  0.1292
10094TIP3    H151773   5.627   1.991  16.603  0.0831  0.8536  2.0577
10094TIP3    H251774   5.775   1.961  16.589 -0.5447 -0.5022 -2.6474
10095TIP3   OH251775   4.092   1.031   0.407 -0.4228  0.0419  0.2953
10095TIP3    H151776   4.022   1.094   0.424  0.2715  1.2246 -1.0160
10095TIP3    H251777   4.093   1.023   0.311  0.7015 -0.5642  0.3541
10096TIP3   OH251778   1.532   5.765  14.794 -0.3371  0.0445  0.0092
10096TIP3    H151779   1.549   5.778  14.700 -0.1207 -1.2127 -0.1306
10096TIP3    H251780   1.611   5.797  14.837  0.4852 -1.3882 -0.3750
10097TIP3   OH251781   0.233   3.445  15.199  0.5706 -0.0925 -0.5635
10097TIP3    H151782   0.257   3.359  15.165 -1.4794 -0.6023 -0.7581
10097TIP3    H251783   0.165   3.477  15.140  0.5256  1.1960  0.1514
10098TIP3   OH251784   1.714   3.864   5.392 -0.6072  0.2187 -0.5549
10098TIP3    H151785   1.757   3.829   5.470 -1.7471  0.9801  0.4334
10098TIP3    H251786   1.631   3.816   5.386 -1.3384  1.4198 -0.2507
10099TIP3   OH251787   4.735   0.526  10.964  0.0784  0.6897  0.5618
10099TIP3    H151788   4.789   0.528  10.885 -2.6641  0.1141 -1.3932
10099TIP3    H251789   4.731   0.433  10.988  0.2888  0.7763  0.9334
10100TIP3   OH251790   4.779   3.262  15.137  0.3714  0.1847  0.0305
10100TIP3    H151791   4.816   3.179  15.169  1.7418 -0.0248 -2.0125
10100TIP3    H251792   4.855   3.316  15.117 -0.4693  0.7785 -1.6391
10101TIP3   OH251793   1.993   5.082   0.792  0.1323  0.0766 -0.5021
10101TIP3    H151794   2.044   5.048   0.718  1.4621  1.1184 -0.0723
10101TIP3    H251795   1.974   5.173   0.767  2.0053  0.9445  1.1654
10102TIP3   OH251796   5.196   0.364  10.785 -0.5018 -0.3134 -0.0349
10102TIP3    H151797   5.219   0.272  10.769 -0.2305 -0.0759 -0.9999
10102TIP3    H251798   5.210   0.407  10.701 -0.7667  0.5878  0.3853
10103TIP3   OH251799   0.080   1.467   4.399  0.6661  0.2210  0.1011
10103TIP3    H151800   0.027   1.447   4.322  1.3232 -1.0433 -0.0369
10103TIP3    H251801   0.163   1.421   4.384  0.2287 -1.4084  2.2944
10104TIP3   OH251802   1.175   6.212  13.324  0.3908 -0.0298  0.1694
10104TIP3    H151803   1.185   6.140  13.261 -1.2309 -1.4380  1.4397
10104TIP3    H251804   1.240   6.194  13.391  0.0514 -0.2596  0.4386
10105TIP3   OH251805   5.026   3.461   0.239 -0.0563  0.9154  0.1253
10105TIP3    H151806   4.941   3.452   0.197  0.1617  1.0262 -0.3342
10105TIP3    H251807   5.081   3.505   0.175  0.3823  0.7449  0.3769
10106TIP3   OH251808   1.563   4.127  12.475 -0.4276  0.5168  0.0305
10106TIP3    H151809   1.505   4.145  12.549 -1.0542  0.2306 -0.3877
10106TIP3    H251810   1.646   4.168  12.499 -0.2828 -0.5363  1.3868
10107TIP3   OH251811   1.915   1.457  16.002 -0.2564 -0.4059  0.2366
10107TIP3    H151812   1.964   1.402  16.063 -0.7923 -2.4455 -1.1079
10107TIP3    H251813   1.970   1.458  15.923  0.5568  2.4127  0.7991
10108TIP3   OH251814   0.997   3.763   4.377  0.5056  0.0816  0.3923
10108TIP3    H151815   0.909   3.737   4.351  0.3912 -0.3308  1.1856
10108TIP3    H251816   1.025   3.824   4.309 -0.3210  0.0707  0.0398
10109TIP3   OH251817   1.484   5.095   3.194 -0.3772  0.2493  0.2770
10109TIP3    H151818   1.390   5.094   3.215 -0.5418 -1.3409 -0.4629
10109TIP3    H251819   1.490   5.144   3.113 -0.8409 -1.4175 -0.7939
10110TIP3   OH251820   3.940   0.858   4.967  0.1482 -0.3288 -0.3319
10110TIP3    H151821   3.971   0.890   4.882  0.5420  0.1054 -0.0248
10110TIP3    H251822   3.977   0.918   5.031 -0.5482 -0.3686  0.1176
10111TIP3   OH251823   4.465   4.053   4.564  0.1570 -0.3730 -0.1169
10111TIP3    H151824   4.516   4.110   4.621  0.3034 -0.6841  0.0586
10111TIP3    H251825   4.395   4.019   4.620 -1.6652  1.9054 -0.9157
10112TIP3   OH251826   3.975   1.435  12.221 -0.1026  0.0220 -0.1276
10112TIP3    H151827   3.889   1.396  12.204 -0.1874  0.1401  0.0392
10112TIP3    H251828   4.036   1.361  12.212  0.0908  0.4503 -3.0302
10113TIP3   OH251829   1.410   4.667  11.422  0.2922  0.1036 -0.3007
10113TIP3    H151830   1.418   4.744  11.365 -0.3881  0.0867 -0.4219
10113TIP3    H251831   1.395   4.594  11.361  0.5357 -0.0632 -0.1600
10114TIP3   OH251832   1.619   6.125  17.232 -0.0553  0.1846  0.5881
10114TIP3    H151833   1.684   6.070  17.189 -0.6313 -0.7394  0.8871
10114TIP3    H251834   1.611   6.201  17.175  0.6651 -0.0927  0.1100
10115TIP3   OH251835   5.325   5.091  15.666 -0.1985 -0.2713  0.2734
10115TIP3    H151836   5.258   5.030  15.695  0.6282 -0.0559  2.7198
10115TIP3    H251837   5.389   5.092  15.736  0.6256  2.1733 -0.4508
10116TIP3   OH251838   3.038   5.216   1.200 -0.6285  0.5764 -0.1008
10116TIP3    H151839   3.022   5.309   1.216 -1.2852  0.4969 -0.2932
10116TIP3    H251840   3.086   5.213   1.117 -1.1234  0.7045 -0.3910
10117TIP3   OH251841   5.685   1.248  11.740  0.4960  0.3876 -0.9940
10117TIP3    H151842   5.662   1.178  11.801  1.6374 -0.9717 -2.0743
10117TIP3    H251843   5.774   1.273  11.764 -0.2155  2.0696 -0.0756
10118TIP3   OH251844   6.770   4.848   1.935  0.0592 -0.0464  0.0932
10118TIP3    H151845   6.701   4.913   1.943  0.9191  0.9491 -0.4646
10118TIP3    H251846   6.728   4.765   1.958 -0.3478  1.0528  3.6208
10119TIP3   OH251847   0.528   1.976   0.915 -0.6619 -0.7537  0.3691
10119TIP3    H151848   0.569   1.899   0.954  0.6380 -0.2454  0.0247
10119TIP3    H251849   0.600   2.024   0.874 -1.1971  1.5132  2.0069
10120TIP3   OH251850   4.215   4.458   5.023  0.1180  0.1115 -0.1543
10120TIP3    H151851   4.160   4.462   5.101 -0.1528  0.0930 -0.3444
10120TIP3    H251852   4.302   4.484   5.054 -0.0847  0.5330  0.0627
10121TIP3   OH251853   6.631   6.482  14.477 -0.0518  0.4912  0.2592
10121TIP3    H151854   6.615   6.575  14.462 -0.0303  0.4643  0.0680
10121TIP3    H251855   6.552   6.451  14.523  0.2304  0.7486  0.9315
10122TIP3   OH251856   6.020   5.794   6.194  0.2697  0.2446  0.3282
10122TIP3    H151857   5.978   5.754   6.270 -1.8904 -1.2163 -1.5585
10122TIP3    H251858   6.044   5.721   6.137 -1.1221  1.3828 -1.8432
10123TIP3   OH251859   2.295   3.456   5.080  0.3327 -0.4969  0.3074
10123TIP3    H151860   2.200   3.445   5.092  0.1654 -0.3625 -0.8334
10123TIP3    H251861   2.315   3.535   5.130 -0.1466 -0.5598  0.6115
10124TIP3   OH251862   1.649   2.547  15.801  0.1562  0.5645  0.9177
10124TIP3    H151863   1.678   2.596  15.724 -1.7460  1.0232  0.4699
10124TIP3    H251864   1.683   2.459  15.787 -1.9902  0.0878 -1.5306
10125TIP3   OH251865   3.713   2.214  12.190 -0.0392 -0.2640 -0.3931
10125TIP3    H151866   3.672   2.215  12.104  0.1005 -1.2863 -0.4761
10125TIP3    H251867   3.645   2.248  12.249  0.4315  2.0243 -1.1309
10126TIP3   OH251868   5.638   2.985   4.965  0.3678  0.3248  0.2088
10126TIP3    H151869   5.643   2.900   4.921  0.6590  0.0762  0.7112
10126TIP3    H251870   5.707   3.038   4.925  1.7365 -0.4355  1.4832
10127TIP3   OH251871   1.331   6.257   2.391  0.1250  0.0186 -0.0896
10127TIP3    H151872   1.256   6.317   2.389 -0.0726 -0.1128  2.1181
10127TIP3    H251873   1.395   6.296   2.330 -0.4010  1.9203  0.5481
10128TIP3   OH251874   0.206   5.394   0.160  0.4638  0.2850 -0.0196
10128TIP3    H151875   0.148   5.388   0.236  1.5171  0.4318  0.8126
10128TIP3    H251876   0.162   5.454   0.100 -0.1584  0.5115  0.6645
10129TIP3   OH251877   5.895   0.336  13.056 -0.5533 -0.0240 -0.3764
10129TIP3    H151878   5.827   0.395  13.023 -2.3471 -1.2732  0.9648
10129TIP3    H251879   5.965   0.341  12.991 -2.4911  0.2817 -2.5285
10130TIP3   OH251880   3.326   5.078  13.722 -0.1365 -0.8441  0.3578
10130TIP3    H151881   3.315   5.033  13.806  1.3834 -0.3285  0.8482
10130TIP3    H251882   3.242   5.121  13.706 -0.7357 -1.7042  1.1634
10131TIP3   OH251883   1.380   2.792   3.776  0.2440 -0.4471 -0.2063
10131TIP3    H151884   1.289   2.763   3.785  0.3985 -1.3724 -1.5173
10131TIP3    H251885   1.392   2.857   3.846 -0.8505 -1.7308  1.2087
10132TIP3   OH251886   3.516   4.578   5.131 -0.2098 -0.0452  0.1387
10132TIP3    H151887   3.565   4.499   5.106  0.9005  0.5398  0.4518
10132TIP3    H251888   3.454   4.591   5.060  0.6902 -0.2846 -0.7045
10133TIP3   OH251889   1.665   0.288  13.452 -0.0468 -0.3264  0.2475
10133TIP3    H151890   1.731   0.338  13.500  1.3315 -0.4442 -1.4908
10133TIP3    H251891   1.651   0.209  13.506  0.1677  0.3674  1.3340
10134TIP3   OH251892   6.356   1.229  13.274  0.1584  0.1411  0.2278
10134TIP3    H151893   6.369   1.323  13.268  0.4331  0.0868 -0.0374
10134TIP3    H251894   6.381   1.206  13.363 -0.5332  0.4183  0.4968
10135TIP3   OH251895   2.453   2.841  11.785  0.7910 -0.6038  0.1104
10135TIP3    H151896   2.369   2.802  11.809  0.1106  1.3996  1.0458
10135TIP3    H251897   2.473   2.803  11.699 -1.2139 -0.8837 -0.2650
10136TIP3   OH251898   1.345   6.336   6.115  0.3831 -0.4313 -1.1111
10136TIP3    H151899   1.261   6.320   6.159  0.4787 -0.1270 -0.8200
10136TIP3    H251900   1.389   6.251   6.116 -0.5676 -0.9645 -2.6284
10137TIP3   OH251901   6.332   3.978  14.748  0.5165  0.1807  0.3550
10137TIP3    H151902   6.348   3.884  14.747  0.4240  0.1492  1.1598
10137TIP3    H251903   6.259   3.989  14.809  0.0987  0.7106 -0.2289
10138TIP3   OH251904   5.310   4.791   5.341  0.5389 -0.6690  0.2487
10138TIP3    H151905   5.310   4.866   5.281 -0.7431  0.0437  1.1274
10138TIP3    H251906   5.217   4.770   5.353  0.7884 -0.9340  1.8108
10139TIP3   OH251907   3.072   0.046  11.684  0.0041  0.0602  0.3106
10139TIP3    H151908   2.985   0.016  11.657  0.0532 -0.7802  1.0728
10139TIP3    H251909   3.096   0.111  11.617 -0.8817 -0.2496 -0.3278
10140TIP3   OH251910   1.612   4.071  14.542 -0.1899  0.0619  0.2234
10140TIP3    H151911   1.559   3.999  14.577 -0.0230 -0.1997 -0.0619
10140TIP3    H251912   1.683   4.082  14.605  0.9829 -1.4325 -0.8198
10141TIP3   OH251913   1.255   3.778   4.150 -0.0043 -0.2288  0.7289
10141TIP3    H151914   1.327   3.734   4.197 -0.4587 -0.7885  0.9149
10141TIP3    H251915   1.260   3.869   4.179  1.5380  0.0637 -0.3709
10142TIP3   OH251916   0.191   6.547   5.744  0.4289 -0.2158  0.0545
10142TIP3    H151917   0.158   6.635   5.762 -1.2265 -0.8626  0.2302
10142TIP3    H251918   0.285   6.559   5.732  0.3571  1.4505  0.9776
10143TIP3   OH251919   3.186   3.407  11.707  0.3981 -0.0560  0.7181
10143TIP3    H151920   3.107   3.362  11.681 -0.1326  0.0600  2.0812
10143TIP3    H251921   3.235   3.420  11.625 -1.9656  1.7746 -0.4525
10144TIP3   OH251922   4.463   5.317   5.079  0.1805  0.1381 -0.5630
10144TIP3    H151923   4.375   5.308   5.041  0.0898 -0.5407 -0.2035
10144TIP3    H251924   4.503   5.232   5.067 -0.4314 -0.6196  2.2880
10145TIP3   OH251925   4.406   0.613   5.453  0.1544 -0.1199  0.1393
10145TIP3    H151926   4.406   0.687   5.393 -2.3990 -1.1625 -1.2534
10145TIP3    H251927   4.347   0.549   5.412  2.2577 -2.9257  1.2875
10146TIP3   OH251928   2.526   2.833   5.313  0.2405  0.0797  0.6861
10146TIP3    H151929   2.506   2.768   5.381  0.4569 -2.2502 -1.4165
10146TIP3    H251930   2.615   2.811   5.285  0.6420  1.8475  0.5203
10147TIP3   OH251931   5.630   1.642  14.236 -0.0961  0.1552 -0.1773
10147TIP3    H151932   5.671   1.557  14.223 -1.7313 -0.7979  0.6754
10147TIP3    H251933   5.701   1.700  14.264  0.6922 -1.4052  1.1014
10148TIP3   OH251934   0.172   4.185  11.160 -0.1652 -0.0447  0.1724
10148TIP3    H151935   0.107   4.186  11.090 -0.1069 -1.7490  0.0804
10148TIP3    H251936   0.253   4.217  11.119 -0.7338  1.3580  0.1070
10149TIP3   OH251937   3.671   1.415   0.169  0.1955 -0.3193  0.1506
10149TIP3    H151938   3.675   1.511   0.169  0.5487 -0.3345  0.1760
10149TIP3    H251939   3.584   1.395   0.134  1.4306 -0.0518 -3.2331
10150TIP3   OH251940   3.414   4.646  13.546 -0.4665 -0.0645  0.0765
10150TIP3    H151941   3.466   4.566  13.539 -0.9905 -0.5003  1.1144
10150TIP3    H251942   3.334   4.627  13.498 -0.2638  0.1238 -0.3435
10151TIP3   OH251943   3.921   5.216  17.068 -0.3197 -0.5013 -0.2182
10151TIP3    H151944   3.900   5.285  17.006 -0.9992 -0.0649  0.4788
10151TIP3    H251945   3.942   5.262  17.149 -1.2207 -1.1162  0.3792
10152TIP3   OH251946   3.750   1.154   1.635  0.4239  0.2658  0.6818
10152TIP3    H151947   3.764   1.060   1.620 -0.5500  0.2966 -0.5446
10152TIP3    H251948   3.685   1.158   1.705  1.0702  0.0334  1.2940
10153TIP3   OH251949   5.991   4.690   1.674 -0.4283 -0.1865 -0.4761
10153TIP3    H151950   6.083   4.709   1.691 -0.7453  0.5881  0.3996
10153TIP3    H251951   5.991   4.640   1.592  0.6262  1.3226 -1.4118
10154TIP3   OH251952   6.651   6.757   4.685  0.4166  0.0506  0.3990
10154TIP3    H151953   6.613   6.781   4.600 -0.5148 -2.7264 -0.0130
10154TIP3    H251954   6.604   6.812   4.748  0.8128  1.8214 -0.7954
10155TIP3   OH251955   0.787   5.432   4.664 -0.0975 -0.3058  0.1154
10155TIP3    H151956   0.696   5.423   4.690 -0.0688  1.7180  0.9889
10155TIP3    H251957   0.821   5.504   4.716  2.1163 -1.2360  0.0478
10156TIP3   OH251958   0.507   3.351  14.016  0.2372 -0.1208  0.0463
10156TIP3    H151959   0.453   3.314  14.086 -0.0333 -0.4897 -0.3559
10156TIP3    H251960   0.470   3.438  14.001  0.3345 -0.0151  0.4012
10157TIP3   OH251961   0.859   5.074  15.546  0.4531  0.0930 -0.6079
10157TIP3    H151962   0.910   5.060  15.626  0.4559  2.7185 -0.1106
10157TIP3    H251963   0.922   5.064  15.475  0.3558 -2.7561 -0.3783
10158TIP3   OH251964   6.588   5.105  15.837 -0.4489  0.2443  0.2453
10158TIP3    H151965   6.683   5.109  15.828 -0.6526  0.6697 -1.9739
10158TIP3    H251966   6.565   5.188  15.878 -0.0317  1.0724 -1.1422
10159TIP3   OH251967   2.251   2.905  13.490 -0.1110  0.0589  0.0312
10159TIP3    H151968   2.320   2.957  13.532 -0.3258 -1.2379  2.0334
10159TIP3    H251969   2.171   2.927  13.537  0.1287 -3.5606  2.3546
10160TIP3   OH251970   2.549   4.179   2.239  0.0277 -0.1731 -0.3659
10160TIP3    H151971   2.578   4.089   2.244 -0.4136 -0.3802 -1.2754
10160TIP3    H251972   2.591   4.214   2.160  1.9454  1.0799  1.1750
10161TIP3   OH251973   1.834   3.463   2.931 -0.0173 -0.2649 -0.5118
10161TIP3    H151974   1.802   3.461   2.841  0.2686  1.0546 -0.6533
10161TIP3    H251975   1.810   3.378   2.967 -1.8274 -0.0798 -1.2414
10162TIP3   OH251976   2.444   2.561   4.304  0.0405  0.3566  0.6256
10162TIP3    H151977   2.358   2.591   4.274  0.4209  0.2995 -0.5560
10162TIP3    H251978   2.461   2.481   4.254  1.1846  0.8774  0.1464
10163TIP3   OH251979   0.142   0.323   5.867 -0.2978 -0.1273  0.8114
10163TIP3    H151980   0.132   0.235   5.902  0.3004  0.3539  2.2552
10163TIP3    H251981   0.232   0.348   5.889 -0.9479  1.4057  1.7980
10164TIP3   OH251982   1.827   5.609  12.531  0.3023 -0.3508  0.2776
10164TIP3    H151983   1.783   5.524  12.523  0.4301 -0.2673 -1.4225
10164TIP3    H251984   1.868   5.623  12.446  0.0243  1.5737  0.4433
10165TIP3   OH251985   2.166   6.199   2.841  0.3589 -0.4107 -0.2081
10165TIP3    H151986   2.131   6.119   2.880 -1.3510  0.5444  0.2630
10165TIP3    H251987   2.092   6.259   2.839  1.1278  0.5243 -2.3448
10166TIP3   OH251988   3.469   2.336   1.699 -0.1082  0.5065  0.1106
10166TIP3    H151989   3.548   2.313   1.650  0.9570  3.5564  0.2515
10166TIP3    H251990   3.406   2.268   1.677  1.4908 -0.1484 -2.7241
10167TIP3   OH251991   3.016   0.643  14.804  0.4759  0.2333  0.0126
10167TIP3    H151992   2.970   0.573  14.758 -2.9444  1.1521  1.8632
10167TIP3    H251993   3.013   0.718  14.745  0.2808  0.0513 -0.2081
10168TIP3   OH251994   0.379   4.082   4.839  0.1358  0.2037 -0.4590
10168TIP3    H151995   0.462   4.075   4.885  0.0847 -1.2327 -0.5473
10168TIP3    H251996   0.333   4.154   4.882  1.2500  0.7355 -0.1480
10169TIP3   OH251997   6.269   1.185   0.092  0.2036 -0.2250  0.4595
10169TIP3    H151998   6.208   1.174   0.165 -2.0882 -0.3887 -1.4081
10169TIP3    H251999   6.330   1.252   0.121 -1.1075  0.2218  2.2471
10170TIP3   OH252000   1.422   4.039  17.064  0.1563  0.3837 -0.0124
10170TIP3    H152001   1.452   4.121  17.023  0.6578 -1.0593 -2.6404
10170TIP3    H252002   1.502   3.988  17.074 -0.3741 -0.4242  0.0835
10171TIP3   OH252003   0.796   3.364  14.713  0.0102 -0.0767  0.6707
10171TIP3    H152004   0.743   3.285  14.699  1.1627 -0.8063  0.3924
10171TIP3    H252005   0.765   3.425  14.645 -1.0908 -0.1731  1.0803
10172TIP3   OH252006   0.510   0.323  13.875  0.1848 -0.1303 -0.3304
10172TIP3    H152007   0.437   0.361  13.923  0.9302  0.3647  0.4362
10172TIP3    H252008   0.499   0.229  13.884 -0.4794 -0.0636 -0.4158
10173TIP3   OH252009   5.977   3.245  17.017  0.4863  0.4632 -0.3125
10173TIP3    H152010   5.970   3.150  17.019  0.6111  0.4409 -1.1123
10173TIP3    H252011   6.063   3.263  16.980  0.6546  0.8873  0.2610
10174TIP3   OH252012   3.350   2.343   5.365  0.1868  0.2598 -0.1806
10174TIP3    H152013   3.282   2.276   5.360  0.6829 -0.3772  1.1383
10174TIP3    H252014   3.423   2.300   5.409  0.8191  1.4302 -0.0487
10175TIP3   OH252015   3.153   2.561  15.418 -0.6547  0.2128  0.4755
10175TIP3    H152016   3.065   2.598  15.413 -0.1046  1.5851  0.4694
10175TIP3    H252017   3.163   2.511  15.337 -0.5229  2.1924 -0.7846
10176TIP3   OH252018   5.975   3.552   4.602  0.4890 -0.5820  0.5623
10176TIP3    H152019   6.038   3.622   4.589 -0.1369 -0.2093 -0.5532
10176TIP3    H252020   5.995   3.488   4.533 -2.2547  0.9692 -1.8136
10177TIP3   OH252021   4.441   4.987  10.228 -0.1927 -0.5275  0.5307
10177TIP3    H152022   4.459   5.076  10.258  0.6935 -1.1587  1.9245
10177TIP3    H252023   4.365   4.996  10.169 -0.6354  1.0242  1.3197
10178TIP3   OH252024   4.149   3.177   1.484  0.5661  0.5279  0.3364
10178TIP3    H152025   4.062   3.205   1.515  1.0193  2.1659  0.1635
10178TIP3    H252026   4.169   3.099   1.536 -1.6634 -0.7867 -0.6933
10179TIP3   OH252027   3.629   0.883  12.211 -0.4633 -0.4427 -0.5537
10179TIP3    H152028   3.546   0.894  12.164 -0.0246  0.2610 -1.1568
10179TIP3    H252029   3.697   0.895  12.145  0.1600  0.7937  0.2979
10180TIP3   OH252030   4.703   1.391   3.975  0.5295  0.6282 -0.9086
10180TIP3    H152031   4.790   1.363   3.948  1.1478  0.5338  1.1475
10180TIP3    H252032   4.718   1.456   4.043 -0.9950  1.4657 -1.3448
10181TIP3   OH252033   3.219   3.106  13.012  0.2241 -0.1783  0.0710
10181TIP3    H152034   3.147   3.139  13.065  0.8754 -0.0851  0.9019
10181TIP3    H252035   3.271   3.053  13.072 -0.4593 -2.2173 -1.0857
10182TIP3   OH252036   1.715   0.426  11.350  0.0870  0.2928  0.3319
10182TIP3    H152037   1.669   0.436  11.266  1.0959  1.0953 -0.1397
10182TIP3    H252038   1.685   0.500  11.402  0.3057  0.4188  0.2780
10183TIP3   OH252039   1.748   4.991   3.648  0.6664  0.1072 -0.2733
10183TIP3    H152040   1.721   5.056   3.583  0.3398  0.1385 -0.1069
10183TIP3    H252041   1.735   5.035   3.732  1.1013  0.0702 -0.1858
10184TIP3   OH252042   3.114   5.513  15.883  0.3807  0.1496 -0.5258
10184TIP3    H152043   3.158   5.515  15.798 -1.6937 -1.0215 -1.6875
10184TIP3    H252044   3.050   5.584  15.879  1.9612  1.7048  1.0567
10185TIP3   OH252045   4.280   4.010   1.852 -0.2836  0.6640  0.1904
10185TIP3    H152046   4.238   3.961   1.782  0.3164 -0.4714  0.6142
10185TIP3    H252047   4.295   3.946   1.921  2.4296  0.9467 -0.0776
10186TIP3   OH252048   1.422   4.797  14.897 -0.1204 -0.1987 -0.0861
10186TIP3    H152049   1.400   4.710  14.864 -0.2204 -0.2213  0.0404
10186TIP3    H252050   1.518   4.800  14.896 -0.1211 -0.2369 -0.2810
10187TIP3   OH252051   2.745   0.242   0.698 -0.1301 -0.1507  0.2937
10187TIP3    H152052   2.779   0.302   0.632  0.5913 -0.6257  0.2161
10187TIP3    H252053   2.741   0.157   0.653  1.3577 -0.6994  1.1338
10188TIP3   OH252054   2.273   3.293   3.763  0.4099  0.1750 -0.6068
10188TIP3    H152055   2.296   3.275   3.671 -0.2177  0.6623 -0.8580
10188TIP3    H252056   2.292   3.386   3.774 -1.0223  0.4766 -0.6850
10189TIP3   OH252057   6.086   0.530  17.217 -0.2970  0.7415  0.0357
10189TIP3    H152058   6.140   0.517  17.139  0.9863  1.2862  0.7951
10189TIP3    H252059   6.073   0.442  17.253  0.4745  0.6320  0.0703
10190TIP3   OH252060   1.666   3.813   2.004  0.5205 -0.8068  0.3608
10190TIP3    H152061   1.584   3.842   2.044 -0.0135 -2.4906  0.5262
10190TIP3    H252062   1.640   3.746   1.941  1.6690 -0.5315 -0.4266
10191TIP3   OH252063   4.430   0.079  16.964  0.0082 -0.3324 -0.5394
10191TIP3    H152064   4.397   0.025  17.035  0.6496  0.4473  0.3737
10191TIP3    H252065   4.429   0.168  17.000  1.0995 -0.0380 -1.2212
10192TIP3   OH252066   1.771   3.032   4.998  0.3743  0.1758  0.0317
10192TIP3    H152067   1.799   3.122   4.981  0.9590 -0.1322 -0.7159
10192TIP3    H252068   1.705   3.015   4.931  0.9155 -0.2438 -0.3989
10193TIP3   OH252069   5.065   4.274  11.105  0.3382  0.3632 -0.1498
10193TIP3    H152070   5.059   4.222  11.025  1.2183  0.0756 -0.0274
10193TIP3    H252071   4.980   4.262  11.148  0.1973 -0.2004 -0.5876
10194TIP3   OH252072   6.304   2.309  12.977  0.3435  0.0507 -0.2690
10194TIP3    H152073   6.292   2.250  13.051  1.1732  1.5273  1.0798
10194TIP3    H252074   6.244   2.382  12.993  0.0563  0.0745 -1.3854
10195TIP3   OH252075   3.421   6.289   5.922  0.5393 -0.1782  0.5435
10195TIP3    H152076   3.346   6.236   5.898 -0.1765 -0.3325  2.9576
10195TIP3    H252077   3.403   6.375   5.885 -0.9335 -0.1646  1.2619
10196TIP3   OH252078   5.778   4.860  12.654  0.1967  0.6049  0.1795
10196TIP3    H152079   5.757   4.869  12.561  0.9317  0.9099  0.0394
10196TIP3    H252080   5.867   4.894  12.662  0.0271  0.8550  1.0508
10197TIP3   OH252081   1.823   4.635   0.861  0.1488  0.2017  0.1059
10197TIP3    H152082   1.808   4.602   0.950 -0.4943 -0.5087 -0.2586
10197TIP3    H252083   1.918   4.626   0.849  0.4433  1.5887  1.2055
10198TIP3   OH252084   1.081   3.445   5.524 -0.0412  0.2090 -0.2896
10198TIP3    H152085   1.160   3.447   5.470  0.0542 -2.3162 -0.3257
10198TIP3    H252086   1.041   3.531   5.512  0.1495 -0.1238 -4.1663
10199TIP3   OH252087   6.445   1.323  14.703 -0.2261  0.1966  0.0535
10199TIP3    H152088   6.389   1.273  14.763 -0.3043 -0.5163 -0.6013
10199TIP3    H252089   6.390   1.396  14.675 -0.2020  0.5086  0.8237
10200TIP3   OH252090   3.817   0.831   4.183  0.4131  0.3950 -0.4972
10200TIP3    H152091   3.747   0.892   4.159  0.2331  0.2928 -0.2279
10200TIP3    H252092   3.897   0.878   4.161  0.2729  0.6994 -0.3713
10201TIP3   OH252093   0.642   2.338  15.814 -0.1286 -0.2886  0.0940
10201TIP3    H152094   0.654   2.411  15.875  0.6166  0.3603 -0.8208
10201TIP3    H252095   0.555   2.304  15.836 -0.0820  0.2519  1.1807
10202TIP3   OH252096   2.187   3.111   2.050  0.0319 -0.1799 -0.3483
10202TIP3    H152097   2.276   3.137   2.028 -0.0720  1.9830  1.5820
10202TIP3    H252098   2.133   3.143   1.978  0.8023 -1.7174 -1.6476
10203TIP3   OH252099   1.035   6.774   6.349 -0.5213 -0.2241  0.3063
10203TIP3    H152100   1.058   6.681   6.346 -0.7441 -0.2947  0.7593
10203TIP3    H252101   1.005   6.788   6.439 -1.0684  0.1488  0.0682
10204TIP3   OH252102   1.717   3.440  16.866  0.4055  0.4428 -0.5347
10204TIP3    H152103   1.767   3.447  16.785 -0.5749  0.6531 -1.1270
10204TIP3    H252104   1.647   3.504  16.856  0.4518  0.6747  0.6036
10205TIP3   OH252105   1.625   6.019  13.745 -0.0198  0.4395  0.2887
10205TIP3    H152106   1.648   5.927  13.745 -2.1725 -0.1332  0.1233
10205TIP3    H252107   1.563   6.029  13.672 -0.6092  1.7901  0.9429
10206TIP3   OH252108   2.477   2.944   4.603 -0.0874 -0.1672  0.1206
10206TIP3    H152109   2.457   2.875   4.666 -2.4124 -1.1084 -1.5892
10206TIP3    H252110   2.420   3.017   4.627 -1.9153 -0.9831 -1.6000
10207TIP3   OH252111   5.747   6.066  17.138 -0.6756 -0.1741  0.1741
10207TIP3    H152112   5.763   5.988  17.085  0.8672  0.4753 -0.3413
10207TIP3    H252113   5.699   6.033  17.214 -2.7262 -1.1451 -1.4937
10208TIP3   OH252114   3.544   1.636  14.941  0.2179  0.1296 -0.3903
10208TIP3    H152115   3.591   1.609  15.019 -1.3835  1.6121  1.1323
10208TIP3    H252116   3.507   1.555  14.905  0.1352 -0.4295  0.9472
10209TIP3   OH252117   6.516   0.489   1.481  0.5389 -0.0810  0.1779
10209TIP3    H152118   6.556   0.570   1.514 -0.7495  1.0814 -1.0363
10209TIP3    H252119   6.454   0.463   1.549 -1.9579  2.1920 -1.1195
10210TIP3   OH252120   1.996   2.415   1.991  0.6603 -0.7267  0.4087
10210TIP3    H152121   2.051   2.490   1.970  0.7837 -0.6082  1.1476
10210TIP3    H252122   2.055   2.339   1.983  0.3359 -0.8219 -1.1158
10211TIP3   OH252123   1.726   2.907  15.047 -0.0180  0.3975 -0.6094
10211TIP3    H152124   1.701   2.866  14.964 -1.6871  1.7774 -0.8265
10211TIP3    H252125   1.812   2.871  15.067 -0.8759 -2.1901 -1.4315
10212TIP3   OH252126   2.348   4.757   0.220  0.6112  0.2448 -0.3870
10212TIP3    H152127   2.369   4.670   0.254 -1.4540 -0.0595  0.1868
10212TIP3    H252128   2.282   4.792   0.280  0.8462  1.8958 -1.0495
10213TIP3   OH252129   1.025   1.727  12.558  0.6215 -0.1216  0.7350
10213TIP3    H152130   1.004   1.641  12.595 -0.1202 -0.0066  0.5979
10213TIP3    H252131   1.077   1.707  12.481 -0.3631 -0.5024  0.1528
10214TIP3   OH252132   1.844   4.095  13.351 -0.4394 -0.2291  0.1455
10214TIP3    H152133   1.775   4.041  13.390  0.6461 -2.6310 -1.1838
10214TIP3    H252134   1.916   4.089  13.414 -1.4437  2.4700  1.6490
10215TIP3   OH252135   2.992   1.085   5.319  0.4320  0.1543 -0.2308
10215TIP3    H152136   2.940   1.005   5.327  0.7087 -0.0822 -0.8036
10215TIP3    H252137   3.076   1.056   5.286  0.2224  0.7933 -1.3467
10216TIP3   OH252138   5.447   3.461   4.663  0.6049  0.2129 -0.3215
10216TIP3    H152139   5.481   3.446   4.575  0.7358  2.4939 -0.6775
10216TIP3    H252140   5.385   3.533   4.654 -1.0014 -0.9553  1.0967
10217TIP3   OH252141   1.441   5.404   0.238 -0.4726  0.0624 -0.3763
10217TIP3    H152142   1.512   5.416   0.175 -1.6220  0.1422 -1.6869
10217TIP3    H252143   1.362   5.433   0.192 -1.0420  2.2315  1.8803
10218TIP3   OH252144   1.830   6.705   5.169 -0.7059  0.1448  0.0036
10218TIP3    H152145   1.740   6.715   5.140 -0.7397  0.8038  0.3199
10218TIP3    H252146   1.881   6.699   5.088 -0.9172  0.8922 -0.1932
10219TIP3   OH252147   2.419   5.945   0.022  0.2263 -0.5048 -0.2022
10219TIP3    H152148   2.411   5.889  -0.055  0.0760 -0.1466 -0.4505
10219TIP3    H252149   2.363   6.020   0.002 -0.3357 -0.7150  0.5309
10220TIP3   OH252150   5.865   3.684  10.934  0.1160 -0.3726  0.2367
10220TIP3    H152151   5.822   3.725  11.009 -1.6891  0.4055 -1.1892
10220TIP3    H252152   5.795   3.670  10.871  2.0454  1.5061 -2.4262
10221TIP3   OH252153   2.632   2.495  12.700 -0.1085  0.3571 -0.0751
10221TIP3    H152154   2.562   2.524  12.641  0.2780  0.9742 -0.2397
10221TIP3    H252155   2.708   2.548  12.674 -0.1947  1.3548  1.6184
10222TIP3   OH252156   2.356   0.108  15.237 -0.5772  0.1039 -0.0722
10222TIP3    H152157   2.414   0.072  15.303 -0.6069  0.3875  0.1071
10222TIP3    H252158   2.277   0.053  15.242 -1.1376  0.9937  1.0965
10223TIP3   OH252159   0.836   5.427  10.500  0.3795  0.1799 -0.1408
10223TIP3    H152160   0.930   5.416  10.481  1.0649  1.8407  2.0497
10223TIP3    H252161   0.834   5.479  10.580 -2.4611  0.8437 -0.5985
10224TIP3   OH252162   0.211   0.783   3.055 -0.0841 -0.0058 -0.0622
10224TIP3    H152163   0.191   0.753   2.966  0.9535  1.4771 -0.8155
10224TIP3    H252164   0.293   0.831   3.047  1.4788 -2.1951  2.2160
10225TIP3   OH252165   2.570   1.980   3.803 -0.4472 -0.3715 -0.2142
10225TIP3    H152166   2.647   1.924   3.806 -0.3507 -0.4535 -2.8090
10225TIP3    H252167   2.497   1.919   3.790 -0.5979 -0.0700 -0.7932
10226TIP3   OH252168   0.063   4.916  17.241  0.4067 -0.2178  0.4117
10226TIP3    H152169   0.085   4.824  17.223 -2.2600 -0.7064 -0.4954
10226TIP3    H252170   0.122   4.966  17.183 -1.6900 -1.5537 -3.0650
10227TIP3   OH252171   4.490   5.471  16.741  0.3909  0.3008  0.1951
10227TIP3    H152172   4.459   5.454  16.652  1.1370 -2.2632  0.3690
10227TIP3    H252173   4.527   5.387  16.769 -1.1616  0.6363  3.4768
10228TIP3   OH252174   0.729   6.066   5.364  0.4643 -1.0004 -0.4384
10228TIP3    H152175   0.799   6.064   5.430 -0.3774 -0.1851  0.5174
10228TIP3    H252176   0.744   6.148   5.316 -0.7675  0.0335  0.8661
10229TIP3   OH252177   5.793   6.265  13.768 -0.0201 -0.7346 -0.1350
10229TIP3    H152178   5.735   6.309  13.831 -1.5688 -2.7652 -0.1003
10229TIP3    H252179   5.857   6.219  13.822  1.3447  1.0663 -0.1659
10230TIP3   OH252180   6.290   3.915   6.522  0.1202 -0.1264  0.0676
10230TIP3    H152181   6.269   3.864   6.600  0.3051  0.9495  0.8384
10230TIP3    H252182   6.311   3.850   6.455 -1.6922 -1.1072  0.4291
10231TIP3   OH252183   2.051   4.537   4.363  0.0178 -0.0743  0.5552
10231TIP3    H152184   1.968   4.497   4.389  0.0524 -0.6341 -0.1731
10231TIP3    H252185   2.117   4.498   4.420 -0.1572  0.0312  0.8268
10232TIP3   OH252186   1.896   2.612  11.856  0.0147  0.7084  0.3168
10232TIP3    H152187   1.930   2.701  11.847 -1.0694  1.0324 -0.8358
10232TIP3    H252188   1.874   2.587  11.766  0.3157 -0.7296  0.6385
10233TIP3   OH252189   0.448   4.281  15.804  0.2227  0.3989 -0.1349
10233TIP3    H152190   0.531   4.234  15.795  1.2627  1.9349  1.2851
10233TIP3    H252191   0.447   4.343  15.731  0.5960  0.7791  0.1823
10234TIP3   OH252192   6.656   3.544   0.969  0.0511 -0.3169 -0.2813
10234TIP3    H152193   6.608   3.462   0.955  0.3026 -0.4562 -0.3401
10234TIP3    H252194   6.639   3.566   1.061 -1.2254  0.3556 -0.6680
10235TIP3   OH252195   5.876   4.702  13.016 -0.6890  0.3041  0.6951
10235TIP3    H152196   5.798   4.686  13.068  0.3012  0.1410  2.1576
10235TIP3    H252197   5.860   4.656  12.934 -2.8457  1.6940  0.2968
10236TIP3   OH252198   5.771   0.844  12.485 -0.8493 -0.6971 -0.3301
10236TIP3    H152199   5.821   0.795  12.550  0.1686  0.2065 -0.4115
10236TIP3    H252200   5.823   0.836  12.405 -0.5241  0.7392 -0.2749
10237TIP3   OH252201   4.234   3.558  14.323  0.2636  0.0065 -0.3232
10237TIP3    H152202   4.243   3.628  14.258  1.3221  0.6369  0.4933
10237TIP3    H252203   4.293   3.489  14.292  0.9916  0.4263  0.1233
10238TIP3   OH252204   2.805   2.687  10.976  0.4395  0.4690  0.3619
10238TIP3    H152205   2.809   2.731  10.891  2.1859 -0.7387 -0.2176
10238TIP3    H252206   2.712   2.682  10.996  0.0065  0.9155 -1.4196
10239TIP3   OH252207   6.746   2.204  13.330 -0.1010  0.1417 -0.0357
10239TIP3    H152208   6.667   2.237  13.286 -0.8467 -1.1148  0.3250
10239TIP3    H252209   6.813   2.270  13.311 -1.6939  2.2005  1.2038
10240TIP3   OH252210   2.606   0.203  14.627 -0.4891  0.4079  0.1259
10240TIP3    H152211   2.638   0.266  14.692  1.7931 -1.8431  1.2850
10240TIP3    H252212   2.616   0.118  14.669 -2.6547 -0.8326 -1.7473
10241TIP3   OH252213   0.315   2.645  14.666 -0.1052  0.1212 -0.1280
10241TIP3    H152214   0.225   2.663  14.638 -0.3214 -0.0578  0.4487
10241TIP3    H252215   0.333   2.557  14.634 -0.1834  0.1019 -0.1192
10242TIP3   OH252216   2.831   5.830  15.097 -0.1325  0.2048  0.4022
10242TIP3    H152217   2.847   5.911  15.144  1.3182 -0.6076  1.3446
10242TIP3    H252218   2.745   5.800  15.128  0.3700  0.1912  1.7972
10243TIP3   OH252219   0.892   5.680  16.063 -0.0147  0.2600 -0.6326
10243TIP3    H152220   0.944   5.603  16.041  0.7504  0.9920 -1.4059
10243TIP3    H252221   0.807   5.665  16.021 -1.0404 -1.7168  2.0077
10244TIP3   OH252222   5.535   4.053  10.951 -0.2122  0.7049 -0.3851
10244TIP3    H152223   5.503   4.103  10.876 -0.9238  0.4613 -0.2448
10244TIP3    H252224   5.630   4.053  10.940 -0.4533 -3.3143 -3.8836
10245TIP3   OH252225   4.839   0.972  13.746 -0.3746 -0.0309  0.8272
10245TIP3    H152226   4.756   1.004  13.709 -1.5924 -2.2170  1.6019
10245TIP3    H252227   4.849   1.021  13.827  0.4559  2.1220 -0.5061
10246TIP3   OH252228   4.838   1.873  11.266 -0.4356  0.0101 -0.5848
10246TIP3    H152229   4.883   1.898  11.185 -0.2663  0.4343 -0.3577
10246TIP3    H252230   4.778   1.945  11.284 -0.9107 -0.3587 -0.6554
10247TIP3   OH252231   3.237   4.811  13.209 -1.1067 -0.7435  0.0168
10247TIP3    H152232   3.237   4.744  13.278  0.1354  0.6684  1.4488
10247TIP3    H252233   3.244   4.894  13.257  0.1624  0.2488 -1.8226
10248TIP3   OH252234   0.040   6.055   1.287 -0.1035  0.1302  0.3048
10248TIP3    H152235   0.119   6.107   1.296 -1.2003  1.7975  0.6447
10248TIP3    H252236   0.029   6.012   1.372 -0.6846  1.5852  0.9928
10249TIP3   OH252237   6.192   0.081  14.553  0.0562  0.6047  0.3801
10249TIP3    H152238   6.150   0.140  14.615 -1.5909  1.6821 -1.7019
10249TIP3    H252239   6.143   0.092  14.472  0.6878 -2.4873 -0.4931
10250TIP3   OH252240   2.661   5.400   4.487 -0.8567 -0.2767  0.0647
10250TIP3    H152241   2.618   5.326   4.530 -0.1357 -0.5820  0.2594
10250TIP3    H252242   2.590   5.462   4.470 -1.3805 -0.7923  0.3592
10251TIP3   OH252243   5.734   2.154  14.853  0.0074 -0.1600 -0.0930
10251TIP3    H152244   5.755   2.121  14.940 -0.7643 -2.5087 -0.7890
10251TIP3    H252245   5.700   2.079  14.806  1.0602  0.9251 -2.6571
10252TIP3   OH252246   1.457   6.317  13.438  0.2083 -0.1564 -0.0163
10252TIP3    H152247   1.436   6.326  13.345 -1.1808 -0.2167  0.2723
10252TIP3    H252248   1.475   6.224  13.450  0.0597 -0.2025 -0.1589
10253TIP3   OH252249   3.062   2.380   2.331  0.1248 -0.5509  0.2532
10253TIP3    H152250   3.130   2.448   2.333 -0.2910 -0.1213  0.0175
10253TIP3    H252251   3.099   2.307   2.380  0.8185 -0.3763 -0.0033
10254TIP3   OH252252   0.599   1.848  13.154  0.0218 -0.0828 -0.2656
10254TIP3    H152253   0.688   1.836  13.187 -0.7605  1.5756  2.5929
10254TIP3    H252254   0.595   1.940  13.128 -0.1139 -0.7771 -2.8836
10255TIP3   OH252255   5.041   6.672  12.712 -0.4885  0.2965  0.0921
10255TIP3    H152256   5.007   6.760  12.726 -0.0801  0.4064  0.3976
10255TIP3    H252257   4.964   6.620  12.688 -0.9580  0.4329  1.2676
10256TIP3   OH252258   0.220   3.297  12.060  0.3491 -0.0984  0.2332
10256TIP3    H152259   0.160   3.370  12.047 -0.2074 -0.6647 -0.4092
10256TIP3    H252260   0.241   3.268  11.971 -0.6484 -1.7090  0.5043
10257TIP3   OH252261   6.321   2.267   6.598 -0.5651 -0.4649  0.5816
10257TIP3    H152262   6.378   2.335   6.635 -0.1026 -0.5869  0.0898
10257TIP3    H252263   6.275   2.232   6.674 -1.0051  0.5854  0.8042
10258TIP3   OH252264   4.515   3.852   1.688 -0.3119  0.2805 -0.3781
10258TIP3    H152265   4.441   3.906   1.715 -0.4977  0.0748 -0.4827
10258TIP3    H252266   4.476   3.773   1.652 -0.1095  0.8375 -1.8869
10259TIP3   OH252267   5.673   0.502   3.115 -0.5382 -0.3095 -0.3476
10259TIP3    H152268   5.610   0.524   3.183 -1.4592 -1.1367 -0.9105
10259TIP3    H252269   5.736   0.574   3.115 -0.3912 -0.4235  1.5372
10260TIP3   OH252270   6.512   4.132  16.003  0.1384  0.4289  1.0424
10260TIP3    H152271   6.567   4.104  15.930 -0.9927  1.7512 -0.3633
10260TIP3    H252272   6.542   4.080  16.078  2.2221  0.0270 -0.0439
10261TIP3   OH252273   6.781   6.780   5.919 -0.1881  0.3259 -0.0144
10261TIP3    H152274   6.825   6.770   6.004 -0.1284 -2.3469 -0.3297
10261TIP3    H252275   6.848   6.819   5.862  0.8219 -0.9219  0.3033
10262TIP3   OH252276   2.485   2.144   0.861 -0.5377  0.1678 -0.6335
10262TIP3    H152277   2.485   2.154   0.766  2.2301  1.0972 -0.5858
10262TIP3    H252278   2.559   2.086   0.880 -0.4337  0.7936  1.0147
10263TIP3   OH252279   2.604   4.920   4.462 -0.1091 -0.5153  0.1055
10263TIP3    H152280   2.572   4.915   4.372 -0.9897 -1.8723  0.4932
10263TIP3    H252281   2.685   4.869   4.462  1.6448  2.1270 -0.6458
10264TIP3   OH252282   6.535   2.610  17.123  0.1105 -0.6481 -0.4760
10264TIP3    H152283   6.599   2.681  17.115  0.7185 -1.2598 -1.1451
10264TIP3    H252284   6.457   2.642  17.079 -0.0706  0.1346  0.4080
10265TIP3   OH252285   6.732   0.008  16.108 -0.5709 -0.8195  0.5732
10265TIP3    H152286   6.736   0.016  16.012 -0.6693 -2.1970  0.4328
10265TIP3    H252287   6.700   0.093  16.138 -0.1702 -0.2377 -0.5906
10266TIP3   OH252288   3.670   1.776  11.539  0.8651 -0.4694  0.2638
10266TIP3    H152289   3.609   1.840  11.501 -0.3528  0.0426  2.9718
10266TIP3    H252290   3.753   1.823  11.546  0.3393  0.3778  0.9231
10267TIP3   OH252291   1.675   6.198  16.818  0.1611 -0.6179  0.5735
10267TIP3    H152292   1.673   6.117  16.870  0.3059 -1.6695 -1.0099
10267TIP3    H252293   1.720   6.172  16.737 -0.8651  0.7547 -0.4453
10268TIP3   OH252294   5.704   3.530  13.057  0.0374 -0.2586  0.7373
10268TIP3    H152295   5.761   3.474  13.110 -2.1345  0.1920  3.6386
10268TIP3    H252296   5.637   3.470  13.023  1.0636 -0.4323 -1.0043
10269TIP3   OH252297   5.605   5.731   2.821  0.6448 -0.3905 -0.1602
10269TIP3    H152298   5.525   5.763   2.780  0.7515  0.4530  0.2778
10269TIP3    H252299   5.623   5.793   2.892 -0.7648 -3.0293  2.6225
10270TIP3   OH252300   1.025   6.362  12.956 -0.0275 -0.2125 -0.9165
10270TIP3    H152301   1.073   6.302  13.013 -0.6231 -0.1286 -0.3247
10270TIP3    H252302   0.943   6.317  12.938  0.1855 -0.2640 -1.7594
10271TIP3   OH252303   6.542   4.389   2.185  0.6578 -0.1034  0.1866
10271TIP3    H152304   6.512   4.312   2.233  0.9114 -0.7119 -0.6187
10271TIP3    H252305   6.462   4.427   2.149  0.3068  1.0957  2.1273
10272TIP3   OH252306   4.291   4.074  12.801  0.5041 -0.6699 -0.6390
10272TIP3    H152307   4.279   4.076  12.896  0.1150 -1.9196 -0.6523
10272TIP3    H252308   4.272   3.984  12.776 -0.7506 -0.0393 -2.0854
10273TIP3   OH252309   5.409   5.257   2.422  0.5940 -0.7399  0.3574
10273TIP3    H152310   5.458   5.325   2.468  0.6375 -0.7808  0.3708
10273TIP3    H252311   5.318   5.288   2.424  0.6092 -0.6969  0.3905
10274TIP3   OH252312   1.768   6.131  15.393  0.2132  0.0957  0.0190
10274TIP3    H152313   1.712   6.202  15.423 -0.3165 -0.8268  1.2695
10274TIP3    H252314   1.712   6.078  15.336  0.3215  0.1129 -0.1063
10275TIP3   OH252315   5.550   2.418   5.605  0.4524  0.3208  0.5176
10275TIP3    H152316   5.555   2.354   5.677  0.3466 -0.5295 -0.2251
10275TIP3    H252317   5.505   2.371   5.535 -1.3495  1.8479  0.6320
10276TIP3   OH252318   1.675   2.368  13.867  0.3427  0.0745  0.3082
10276TIP3    H152319   1.617   2.291  13.871 -1.9892  1.6245 -2.0355
10276TIP3    H252320   1.670   2.405  13.955 -1.9014 -0.0842  0.2733
10277TIP3   OH252321   3.781   6.643  15.294 -0.1255 -0.1090 -0.2249
10277TIP3    H152322   3.737   6.585  15.356  1.1870  0.6159  1.4138
10277TIP3    H252323   3.759   6.731  15.323  1.6385  0.2537  0.0584
10278TIP3   OH252324   1.814   1.881   3.391 -0.0905  0.3621  0.1582
10278TIP3    H152325   1.837   1.797   3.429 -1.9311 -0.7889 -1.2012
10278TIP3    H252326   1.890   1.937   3.410  1.4911 -1.7875  0.4125
10279TIP3   OH252327   4.184   4.590  17.011 -0.0070  0.0482  0.1607
10279TIP3    H152328   4.141   4.625  16.933  0.6609  0.4984 -0.0166
10279TIP3    H252329   4.124   4.524  17.045 -0.3939 -0.0032 -0.6187
10280TIP3   OH252330   2.567   0.767  13.607 -0.4983  0.4747 -0.0954
10280TIP3    H152331   2.618   0.829  13.555  0.1338  0.8258  0.9325
10280TIP3    H252332   2.508   0.725  13.544 -1.2728  2.4691 -0.7151
10281TIP3   OH252333   6.714   5.026  10.694  0.0458 -0.6789  0.7852
10281TIP3    H152334   6.764   5.104  10.719 -1.1502  0.3691 -0.0734
10281TIP3    H252335   6.762   4.991  10.619 -0.0445 -0.1256  0.4638
10282TIP3   OH252336   6.795   3.149   0.361  0.1621 -0.0816 -0.2089
10282TIP3    H152337   6.737   3.218   0.393 -1.1527 -0.5539 -1.4785
10282TIP3    H252338   6.875   3.158   0.413 -0.8501  0.9241  1.2277
10283TIP3   OH252339   5.150   2.172  13.740  0.1237  0.0513 -0.3569
10283TIP3    H152340   5.115   2.112  13.675 -0.5193 -0.8703  0.8144
10283TIP3    H252341   5.201   2.115  13.799 -0.6369  0.6276  0.8627
10284TIP3   OH252342   3.964   5.825  16.315  0.2231  0.6322  0.4863
10284TIP3    H152343   3.953   5.917  16.340 -0.1803  0.1427  2.1615
10284TIP3    H252344   3.928   5.776  16.389  3.2835 -0.9197  0.9905
10285TIP3   OH252345   3.343   4.333  12.230  0.0280 -0.1826 -0.5287
10285TIP3    H152346   3.305   4.286  12.155 -0.4461 -1.4482  0.4914
10285TIP3    H252347   3.299   4.418  12.230 -0.5455 -0.4739 -1.2060
10286TIP3   OH252348   0.336   6.539   2.205 -0.4070 -0.0101 -0.0701
10286TIP3    H152349   0.389   6.601   2.256  0.1684 -1.0698  0.6633
10286TIP3    H252350   0.318   6.584   2.123  0.4685  0.9086  0.2268
10287TIP3   OH252351   1.729   1.546  11.300  0.5051  0.0229  0.0602
10287TIP3    H152352   1.691   1.478  11.243 -1.0741  0.9525 -0.0108
10287TIP3    H252353   1.655   1.582  11.347  1.6374  0.1838  1.7678
10288TIP3   OH252354   5.979   4.710  15.562 -0.5223  0.1903 -0.5688
10288TIP3    H152355   5.892   4.737  15.593 -0.6837 -0.7706 -0.1737
10288TIP3    H252356   6.040   4.746  15.626 -0.7446 -0.4709  0.0188
10289TIP3   OH252357   5.374   6.277  10.814  0.0810  0.0000 -0.3298
10289TIP3    H152358   5.314   6.202  10.817 -1.0180  0.8956  0.9706
10289TIP3    H252359   5.322   6.348  10.777  0.4565  0.6741  0.4146
10290TIP3   OH252360   4.106   5.281  15.108 -0.3793 -0.4414  0.0217
10290TIP3    H152361   4.145   5.299  15.193 -1.3714  0.0300  0.3856
10290TIP3    H252362   4.014   5.265  15.127 -0.2209 -2.3220 -0.7363
10291TIP3   OH252363   2.432   0.209  11.710  0.0528  0.7595  0.3874
10291TIP3    H152364   2.391   0.263  11.777 -1.1017  0.8399 -0.3602
10291TIP3    H252365   2.404   0.248  11.627  1.2032  0.4786 -0.1398
10292TIP3   OH252366   3.212   6.461  10.648  0.2176  0.6287  0.2027
10292TIP3    H152367   3.144   6.526  10.629 -0.2631  0.1264  0.1938
10292TIP3    H252368   3.231   6.472  10.741  1.2811  1.8639 -0.1443
10293TIP3   OH252369   0.270   4.467   6.563 -0.0803 -0.2747 -0.2677
10293TIP3    H152370   0.366   4.473   6.570 -0.1829 -0.1679  1.1729
10293TIP3    H252371   0.253   4.375   6.544  0.3034 -0.3041 -0.4693
10294TIP3   OH252372   0.093   3.118  13.512  0.5880 -0.2890 -0.6640
10294TIP3    H152373   0.019   3.107  13.571  1.6858  0.7473  0.9530
10294TIP3    H252374   0.054   3.137  13.427 -0.9914  0.7300  0.2767
10295TIP3   OH252375   2.332   1.144   0.520 -0.0215  0.1400 -0.2549
10295TIP3    H152376   2.382   1.134   0.438  0.1283 -0.1039 -0.1319
10295TIP3    H252377   2.254   1.091   0.507 -1.3373  2.2638 -1.3311
10296TIP3   OH252378   3.547   3.628  12.161 -0.0762 -0.0539  0.0336
10296TIP3    H152379   3.506   3.547  12.129 -1.2713  0.2798  0.7082
10296TIP3    H252380   3.591   3.602  12.242 -1.3064  0.1639  0.7910
10297TIP3   OH252381   6.368   0.575   0.801 -0.0964 -0.5202  0.5379
10297TIP3    H152382   6.408   0.637   0.862  1.0837 -1.5413  0.8335
10297TIP3    H252383   6.362   0.493   0.850  1.3421 -1.5019 -0.8416
10298TIP3   OH252384   2.010   5.020  16.781  0.4204 -0.1922  0.2004
10298TIP3    H152385   2.089   5.023  16.727  0.2229 -0.5447 -0.1069
10298TIP3    H252386   1.981   5.111  16.785  0.8506 -0.0609  0.3264
10299TIP3   OH252387   5.141   5.056  11.744  0.3320  0.3045 -0.3732
10299TIP3    H152388   5.130   4.997  11.669  1.3776  0.9045 -1.0279
10299TIP3    H252389   5.077   5.125  11.730 -0.9419 -0.7080  0.4341
10300TIP3   OH252390   0.280   2.091   3.379 -0.2044  0.4461 -0.8610
10300TIP3    H152391   0.289   2.042   3.298  2.7746  2.1336 -1.6336
10300TIP3    H252392   0.288   2.024   3.448 -0.0369 -0.6572 -1.9315
10301TIP3   OH252393   5.455   0.635  15.010 -0.6142  0.1885  0.4229
10301TIP3    H152394   5.464   0.728  14.992 -0.1394  0.1502  0.4357
10301TIP3    H252395   5.406   0.630  15.092  0.1579  0.4563  0.9146
10302TIP3   OH252396   4.612   0.768  13.864 -0.0287  0.7507  0.1612
10302TIP3    H152397   4.607   0.849  13.813  1.0774  0.2105 -0.8367
10302TIP3    H252398   4.685   0.720  13.825  0.3110 -0.0419  1.7346
10303TIP3   OH252399   1.589   6.820  14.396 -0.1187  0.4747 -0.2038
10303TIP3    H152400   1.655   6.882  14.426  0.0286  0.5271 -0.6250
10303TIP3    H252401   1.627   6.734  14.413  0.2597  0.5044 -0.8704
10304TIP3   OH252402   1.224   6.777  15.271 -0.6199  0.1366 -0.1333
10304TIP3    H152403   1.267   6.857  15.241 -1.1743  0.2347 -0.6691
10304TIP3    H252404   1.296   6.721  15.301 -0.2503  0.9188  0.4554
10305TIP3   OH252405   0.216   0.982  12.716  0.4940  0.1551 -0.3274
10305TIP3    H152406   0.198   1.029  12.798  0.5100 -2.2882  1.1139
10305TIP3    H252407   0.289   0.924  12.738  1.2122  0.2543 -2.4004
10306TIP3   OH252408   6.687   6.463  13.718  0.2394 -0.3776 -0.0023
10306TIP3    H152409   6.595   6.442  13.734 -0.0485  1.0193  0.2673
10306TIP3    H252410   6.735   6.399  13.769 -0.5557 -2.0986 -1.3795
10307TIP3   OH252411   1.777   5.218   0.060 -0.1849 -0.1845 -0.1749
10307TIP3    H152412   1.871   5.204   0.074 -0.0891  0.1295 -0.4842
10307TIP3    H252413   1.739   5.217   0.147  0.2745  0.8652  0.0475
10308TIP3   OH252414   4.790   4.106   6.115  0.4837 -0.0230 -0.2388
10308TIP3    H152415   4.852   4.177   6.129  0.1492  0.8695 -3.0491
10308TIP3    H252416   4.704   4.148   6.115  0.0220 -0.9124  1.2351
10309TIP3   OH252417   6.548   6.707  12.290 -0.1455 -0.5048  0.0489
10309TIP3    H152418   6.464   6.749  12.309  0.6372  1.6283 -1.0779
10309TIP3    H252419   6.548   6.693  12.195  1.1782  0.4572 -0.1126
10310TIP3   OH252420   6.302   0.322  14.255  0.5334  0.0349 -0.0371
10310TIP3    H152421   6.310   0.345  14.348 -0.2852 -0.4349  0.1495
10310TIP3    H252422   6.285   0.406  14.211  0.9300  0.2606  0.2304
10311TIP3   OH252423   5.541   3.517   2.414  0.4191  0.1910  0.2308
10311TIP3    H152424   5.582   3.604   2.412  0.8889 -0.0549 -2.5523
10311TIP3    H252425   5.526   3.495   2.322 -0.2668 -2.4175  0.9233
10312TIP3   OH252426   6.667   0.116   2.097  0.5758 -0.2031  0.3784
10312TIP3    H152427   6.628   0.028   2.101  0.4095 -0.1152  0.7451
10312TIP3    H252428   6.684   0.130   2.004  1.3718 -0.9603  0.4021
10313TIP3   OH252429   4.323   5.510  15.797 -0.4889  0.3218  0.3568
10313TIP3    H152430   4.229   5.491  15.806 -0.0705 -2.0647  0.0937
10313TIP3    H252431   4.358   5.497  15.885  0.3303 -3.4136 -0.4597
10314TIP3   OH252432   0.869   0.911   5.938 -0.2763  0.2119 -0.4594
10314TIP3    H152433   0.920   0.970   5.883 -0.3218  0.7509  0.0669
10314TIP3    H252434   0.924   0.898   6.016 -1.2094  1.3457  0.4256
10315TIP3   OH252435   3.025   5.457   0.553  0.1325  0.3315 -0.3097
10315TIP3    H152436   3.059   5.519   0.616 -0.2094  1.2931 -1.0562
10315TIP3    H252437   2.954   5.503   0.509 -0.7814 -0.9260 -0.1938
10316TIP3   OH252438   5.462   3.700  16.027  0.5530 -0.3669 -0.1563
10316TIP3    H152439   5.429   3.738  16.109  0.7977  1.5609 -0.9194
10316TIP3    H252440   5.430   3.758  15.959 -1.2458 -3.0240 -1.6643
10317TIP3   OH252441   1.268   5.475  14.372  0.3513 -0.3366  0.2850
10317TIP3    H152442   1.336   5.410  14.388 -0.9081 -1.6702  0.3098
10317TIP3    H252443   1.268   5.530  14.451  1.2760 -0.4222  0.3497
10318TIP3   OH252444   6.387   3.633   5.829  0.3563 -0.2953  0.2347
10318TIP3    H152445   6.466   3.610   5.779 -0.0957  1.3656 -1.2956
10318TIP3    H252446   6.324   3.662   5.763 -1.5111 -1.4317  1.4465
10319TIP3   OH252447   0.151   3.560   4.452 -0.4103  0.1316 -0.4582
10319TIP3    H152448   0.098   3.594   4.524 -1.3469  2.2949 -2.1200
10319TIP3    H252449   0.217   3.627   4.436  1.4324 -1.5021  0.0503
10320TIP3   OH252450   4.324   0.195   4.495 -0.0939 -0.1085 -0.8733
10320TIP3    H152451   4.267   0.121   4.519  1.5871 -1.2450 -0.2669
10320TIP3    H252452   4.347   0.178   4.404 -1.1049  0.6269 -1.2787
10321TIP3   OH252453   2.884   4.627   3.586 -0.0833  0.1636  0.1047
10321TIP3    H152454   2.876   4.531   3.590 -1.8373  0.3582  1.1848
10321TIP3    H252455   2.977   4.643   3.606  0.0490 -1.2556  0.7250
10322TIP3   OH252456   6.444   6.471   6.107 -0.2465 -0.1469  0.0670
10322TIP3    H152457   6.516   6.512   6.155  0.4412 -0.0626 -1.0160
10322TIP3    H252458   6.365   6.500   6.154  0.4583 -1.1626  1.9412
10323TIP3   OH252459   2.229   1.076  16.296 -0.6667 -0.1766 -0.5612
10323TIP3    H152460   2.153   1.130  16.315  0.1029  0.5631  0.4597
10323TIP3    H252461   2.290   1.092  16.368 -0.5695 -2.6923 -0.0251
10324TIP3   OH252462   1.561   1.616  17.003  0.3434  0.5977  0.3857
10324TIP3    H152463   1.530   1.694  17.050 -1.7800 -0.0876  0.2020
10324TIP3    H252464   1.537   1.633  16.911 -1.6511 -0.9256  0.5687
10325TIP3   OH252465   4.929   1.225   4.290  0.0222  0.0284  0.1927
10325TIP3    H152466   4.894   1.185   4.210  0.2363  0.7473 -0.2644
10325TIP3    H252467   4.999   1.283   4.260  1.2062 -0.9365  1.0526
10326TIP3   OH252468   4.856   1.522   4.437 -0.2083 -0.0800 -0.2854
10326TIP3    H152469   4.892   1.436   4.416  1.4124  0.4959  0.1087
10326TIP3    H252470   4.925   1.583   4.416 -1.4649  1.1708 -0.8454
10327TIP3   OH252471   0.191   5.517  16.479  0.2191  0.1882 -0.3284
10327TIP3    H152472   0.232   5.524  16.392  1.6446  1.3250  0.4073
10327TIP3    H252473   0.143   5.599  16.489 -0.4503 -0.2050 -0.2743
10328TIP3   OH252474   0.783   6.438   1.985 -0.0727 -0.5708  0.2651
10328TIP3    H152475   0.694   6.402   1.980 -0.4700  0.0551  2.1602
10328TIP3    H252476   0.835   6.383   1.927 -1.6686 -1.0631 -0.7239
10329TIP3   OH252477   1.663   2.815  13.630  0.7944 -0.0457 -0.0267
10329TIP3    H152478   1.722   2.837  13.702  1.0775 -1.1594  0.0915
10329TIP3    H252479   1.679   2.722  13.614  1.3358  0.3683 -2.0570
10330TIP3   OH252480   1.860   3.471   6.371 -0.0962  0.4057 -0.2541
10330TIP3    H152481   1.881   3.501   6.282  1.7913 -0.3503 -0.0875
10330TIP3    H252482   1.944   3.467   6.415 -1.0878  1.3721  1.7890
10331TIP3   OH252483   1.556   3.551  15.592  0.3142 -0.2502  0.2635
10331TIP3    H152484   1.529   3.576  15.504  0.2767 -1.1320  0.0175
10331TIP3    H252485   1.587   3.633  15.632  0.4242  0.1361 -0.5954
10332TIP3   OH252486   3.608   1.030   4.066  0.5231 -0.4602  0.2831
10332TIP3    H152487   3.522   1.013   4.104 -0.0431  0.1338 -0.7129
10332TIP3    H252488   3.623   1.123   4.081 -0.5282  0.2216 -2.5096
10333TIP3   OH252489   2.003   4.210  12.097 -0.1676  0.1399 -0.4581
10333TIP3    H152490   2.056   4.217  12.176 -1.6916  3.2231  0.3905
10333TIP3    H252491   2.064   4.233  12.026 -0.1933  3.3178  0.4708
10334TIP3   OH252492   2.129   6.112  13.521 -0.7130 -0.2031  0.3252
10334TIP3    H152493   2.167   6.177  13.462  0.1955 -0.1652  0.9423
10334TIP3    H252494   2.202   6.085  13.577 -1.1366 -1.5603  0.2463
10335TIP3   OH252495   5.022   6.110  14.746  0.4013  0.2798 -0.4315
10335TIP3    H152496   4.961   6.139  14.678 -0.2099  0.6454  0.2733
10335TIP3    H252497   5.021   6.181  14.811 -0.5920 -1.0056  0.9730
10336TIP3   OH252498   0.413   2.513   0.040  0.2323 -0.5816  0.0316
10336TIP3    H152499   0.423   2.590  -0.016  1.3330 -0.9864 -0.3459
10336TIP3    H252500   0.482   2.453   0.011  0.2566 -1.1533  1.2297
10337TIP3   OH252501   0.111   0.907  14.450  0.0037 -0.0920  0.2449
10337TIP3    H152502   0.186   0.932  14.504 -0.5953 -2.1234  2.0658
10337TIP3    H252503   0.051   0.981  14.456  1.1654  0.8861  0.0343
10338TIP3   OH252504   5.151   5.286  13.999 -0.0486 -0.2198 -0.4802
10338TIP3    H152505   5.229   5.317  13.953  0.4252 -0.5921  0.0687
10338TIP3    H252506   5.078   5.317  13.945  0.4277  1.3188 -0.2731
10339TIP3   OH252507   2.378   1.354   2.688  0.3453  0.3336  0.2772
10339TIP3    H152508   2.293   1.375   2.726  1.4666  0.3739  2.8394
10339TIP3    H252509   2.427   1.436   2.690  1.1850 -0.1682  0.8688
10340TIP3   OH252510   4.659   0.205   0.779  0.0113 -0.1932 -0.3672
10340TIP3    H152511   4.570   0.207   0.814  1.0582 -0.1524  2.3763
10340TIP3    H252512   4.675   0.295   0.749  0.2274  0.6102  2.0529
10341TIP3   OH252513   0.760   5.625   1.676  0.5112 -0.4475  0.2558
10341TIP3    H152514   0.722   5.538   1.675  0.1543 -0.3070  1.3213
10341TIP3    H252515   0.820   5.625   1.750  0.6291  0.1607  0.1673
10342TIP3   OH252516   0.369   1.732   1.140 -0.3077  0.5660  0.0411
10342TIP3    H152517   0.414   1.750   1.058 -1.2306 -1.5012 -0.9550
10342TIP3    H252518   0.423   1.666   1.184  0.5247  2.1317  1.4197
10343TIP3   OH252519   3.014   4.264  14.264 -0.0514 -0.4160  0.4039
10343TIP3    H152520   2.946   4.263  14.331  1.0765 -0.0310  1.5717
10343TIP3    H252521   3.083   4.320  14.300 -0.0711  1.0472 -1.7143
10344TIP3   OH252522   3.029   2.606   2.632  0.4716  0.3531 -0.7181
10344TIP3    H152523   2.952   2.647   2.673  0.5786  1.2073 -1.3496
10344TIP3    H252524   3.064   2.674   2.575  1.5040 -0.1494 -0.6934
10345TIP3   OH252525   2.297   4.549  12.147 -0.5215  0.3690  0.2354
10345TIP3    H152526   2.248   4.562  12.066  0.2962  0.9616 -0.1647
10345TIP3    H252527   2.297   4.634  12.189  0.4416  0.4497  0.0791
10346TIP3   OH252528   1.382   4.760  12.749  0.1773 -0.3304 -0.4008
10346TIP3    H152529   1.310   4.708  12.711 -0.3894 -0.8954  1.4118
10346TIP3    H252530   1.416   4.705  12.820  0.5598  1.1397  0.5676
10347TIP3   OH252531   1.078   5.572  13.533 -0.8209 -0.0290 -0.0037
10347TIP3    H152532   1.062   5.601  13.623 -0.9886  1.6722 -0.5668
10347TIP3    H252533   1.141   5.635  13.499  0.1724 -1.3902 -0.6958
10348TIP3   OH252534   0.835   2.266  14.062  0.1353 -0.2339 -0.5274
10348TIP3    H152535   0.910   2.321  14.040 -0.0598  0.2787  0.0606
10348TIP3    H252536   0.759   2.324  14.049 -0.1184 -0.5737 -0.5635
10349TIP3   OH252537   4.589   3.243   2.908 -0.3937 -0.5053  0.5389
10349TIP3    H152538   4.606   3.172   2.845  0.6665 -0.6029  0.9089
10349TIP3    H252539   4.635   3.319   2.871  1.0125 -0.7958  1.6159
10350TIP3   OH252540   4.440   3.754  10.868  0.0542 -0.0559 -0.0420
10350TIP3    H152541   4.461   3.829  10.812  2.1155 -0.7830 -0.2923
10350TIP3    H252542   4.392   3.694  10.811 -2.3594  1.4127  0.3884
10351TIP3   OH252543   2.106   1.509  17.180 -0.1077 -0.3098  0.3615
10351TIP3    H152544   2.147   1.442  17.125  0.2055  0.4206 -0.3090
10351TIP3    H252545   2.101   1.469  17.266  1.8449 -0.4945  0.4182
10352TIP3   OH252546   3.965   3.566  10.273  0.3844 -0.3279  0.0291
10352TIP3    H152547   4.026   3.526  10.211 -0.6587 -1.2475 -0.4404
10352TIP3    H252548   3.913   3.626  10.219  0.4542 -0.0277  0.2986
10353TIP3   OH252549   3.883   1.184   5.553 -0.4364 -0.1238  0.6734
10353TIP3    H152550   3.788   1.191   5.546 -0.2846  0.6701 -0.7141
10353TIP3    H252551   3.897   1.109   5.611 -1.9029 -0.6990  0.3039
10354TIP3   OH252552   1.372   4.615   5.283  0.1641  0.1699 -0.7282
10354TIP3    H152553   1.454   4.663   5.296 -1.5196  2.4094  2.3078
10354TIP3    H252554   1.333   4.654   5.205 -0.8915  3.5258  1.3542
10355TIP3   OH252555   5.013   3.824   2.610  0.2242 -0.6135 -0.0284
10355TIP3    H152556   4.990   3.892   2.672  1.0351 -1.6952  1.4947
10355TIP3    H252557   4.932   3.807   2.561 -0.1964  0.8233  0.1624
10356TIP3   OH252558   1.740   4.126  17.260 -0.6242 -0.5800  0.4194
10356TIP3    H152559   1.721   4.084  17.344  1.1755 -0.1191  1.0810
10356TIP3    H252560   1.697   4.070  17.195 -0.4418 -2.0083  1.4923
10357TIP3   OH252561   1.166   4.484   1.851  0.1292 -0.2804 -0.0587
10357TIP3    H152562   1.169   4.427   1.928 -0.0205 -1.9874 -1.2923
10357TIP3    H252563   1.140   4.569   1.886 -0.0150 -1.0479  1.7713
10358TIP3   OH252564   5.155   0.789  16.032 -0.3753  0.5476  0.4156
10358TIP3    H152565   5.226   0.853  16.038 -0.2558  0.3363  1.3199
10358TIP3    H252566   5.079   0.841  16.005 -0.9592  1.6001  3.9056
10359TIP3   OH252567   1.820   6.506   4.304  0.2287  0.2554 -0.2918
10359TIP3    H152568   1.732   6.473   4.285 -0.0155 -0.1226  1.4104
10359TIP3    H252569   1.875   6.468   4.235 -0.9158  0.4284 -1.3252
10360TIP3   OH252570   2.597   2.452  17.008 -0.3795 -0.1843 -0.1623
10360TIP3    H152571   2.576   2.543  17.029  0.3583  0.3105 -1.5009
10360TIP3    H252572   2.672   2.431  17.063 -0.3189  0.1368 -0.1191
10361TIP3   OH252573   1.628   3.405  12.800  0.1145  0.4563  0.4227
10361TIP3    H152574   1.689   3.458  12.750  0.5510  0.5548  1.0592
10361TIP3    H252575   1.668   3.318  12.803 -0.5213  0.1208 -0.4830
10362TIP3   OH252576   4.425   0.593   0.918  0.3118 -0.1513  0.4024
10362TIP3    H152577   4.364   0.520   0.928 -0.7837  0.6223 -0.5418
10362TIP3    H252578   4.422   0.615   0.825  0.2494  1.4301  0.7694
10363TIP3   OH252579   6.798   4.521  16.359  0.3953 -0.2016  0.2355
10363TIP3    H152580   6.874   4.579  16.356  0.1906  0.0506 -0.1447
10363TIP3    H252581   6.813   4.458  16.289 -0.5972  0.9228 -1.0048
10364TIP3   OH252582   6.158   3.224  14.342  0.1186  0.1297 -0.0485
10364TIP3    H152583   6.139   3.286  14.413  0.4955 -0.4562  0.5668
10364TIP3    H252584   6.099   3.151  14.358  0.2516 -0.0332 -0.3051
10365TIP3   OH252585   3.869   6.646   4.450  0.7553 -0.1411  0.3305
10365TIP3    H152586   3.870   6.585   4.376  1.1854  1.2037 -0.8107
10365TIP3    H252587   3.934   6.612   4.511  1.4729 -0.4545 -0.6058
10366TIP3   OH252588   5.828   4.996  13.792  0.3279  0.6273  0.2409
10366TIP3    H152589   5.902   4.948  13.756 -0.2890 -0.3001  0.1884
10366TIP3    H252590   5.786   4.934  13.853  0.4544  1.6311  1.3825
10367TIP3   OH252591   4.921   2.314   3.666  0.6130  0.5234  0.5434
10367TIP3    H152592   4.867   2.245   3.627 -0.1059  0.5421  1.4953
10367TIP3    H252593   5.006   2.272   3.682  0.6673  0.2989 -0.3109
10368TIP3   OH252594   0.236   2.363   4.864  0.1690  0.0389 -0.3507
10368TIP3    H152595   0.220   2.415   4.942  1.3170 -0.5641  0.2973
10368TIP3    H252596   0.194   2.412   4.793 -1.1096  0.4485  0.6792
10369TIP3   OH252597   5.955   2.427  15.041 -0.0215  0.3190 -0.1969
10369TIP3    H152598   5.969   2.465  15.127  0.1237  0.1918 -0.1639
10369TIP3    H252599   6.038   2.384  15.019 -0.1306  0.1574 -0.2993
10370TIP3   OH252600   0.772   4.399   1.611  0.2442  0.3872  0.5591
10370TIP3    H152601   0.702   4.360   1.559  2.3234 -2.3653 -0.2552
10370TIP3    H252602   0.775   4.490   1.581 -1.2023 -0.1454 -1.3133
10371TIP3   OH252603   3.625   1.869  15.782 -0.7578 -0.2706  0.1952
10371TIP3    H152604   3.660   1.944  15.829 -1.1298  1.4601 -2.2184
10371TIP3    H252605   3.649   1.794  15.837  3.4932  1.1528  0.5077
10372TIP3   OH252606   2.928   1.667  16.099  0.1962  0.4598  0.1702
10372TIP3    H152607   2.901   1.746  16.145 -0.9695  1.2116 -1.7618
10372TIP3    H252608   3.014   1.688  16.062  0.6024  0.2604  0.9933
10373TIP3   OH252609   4.575   0.051   1.560 -0.5440 -0.1819 -0.6101
10373TIP3    H152610   4.598  -0.036   1.593 -0.8062  0.4407  1.2753
10373TIP3    H252611   4.657   0.088   1.528 -0.4929 -1.2390 -1.7291
10374TIP3   OH252612   1.492   5.024  16.200 -0.3210 -0.3091 -0.5652
10374TIP3    H152613   1.567   5.040  16.142  0.2781 -0.5479  0.1299
10374TIP3    H252614   1.439   4.960  16.154  1.0625 -1.8300 -0.0708
10375TIP3   OH252615   6.435   0.092   6.150  0.4072 -0.3732  0.0695
10375TIP3    H152616   6.488   0.168   6.172 -0.2288 -0.0343  0.4486
10375TIP3    H252617   6.444   0.084   6.055  0.8831 -0.1264  0.0938
10376TIP3   OH252618   3.021   1.894   3.805 -0.0622 -0.1744  0.5699
10376TIP3    H152619   3.108   1.856   3.818  1.2614  2.6705  0.4400
10376TIP3    H252620   3.013   1.904   3.710 -1.3328 -2.1011  0.4348
10377TIP3   OH252621   0.445   5.466   0.386  0.1826  0.1929 -0.1235
10377TIP3    H152622   0.482   5.454   0.473 -1.5554 -0.3001  0.5672
10377TIP3    H252623   0.521   5.469   0.328  1.2903 -1.0136  1.2266
10378TIP3   OH252624   5.946   6.449   1.451 -0.6442  0.6758 -0.2399
10378TIP3    H152625   6.006   6.506   1.498 -0.4305  0.6306 -0.4598
10378TIP3    H252626   5.988   6.363   1.452 -0.7024  0.6448 -0.3990
10379TIP3   OH252627   4.679   2.669  14.021 -0.2430 -0.8009  0.1711
10379TIP3    H152628   4.638   2.601  13.967 -0.1799 -0.1460 -0.7104
10379TIP3    H252629   4.766   2.679  13.984 -1.3439  2.0773 -1.8325
10380TIP3   OH252630   2.599   5.790   5.700 -0.3040 -0.0088  0.0202
10380TIP3    H152631   2.617   5.795   5.794  0.4662 -2.1048  0.0125
10380TIP3    H252632   2.516   5.743   5.694  0.1566 -0.7855 -0.3706
10381TIP3   OH252633   2.462   4.530  14.794  0.1599  0.0399 -0.4535
10381TIP3    H152634   2.401   4.457  14.785 -0.0550 -0.1967  2.4827
10381TIP3    H252635   2.523   4.518  14.721 -0.7679 -2.1732 -0.9363
10382TIP3   OH252636   5.978   1.970  10.721 -0.2253  0.0224 -0.4286
10382TIP3    H152637   6.044   2.025  10.681  1.0654 -0.9152  0.3578
10382TIP3    H252638   5.916   2.031  10.762  1.5401  0.8909  0.9922
10383TIP3   OH252639   3.941   1.960  14.243  0.0530  0.1728 -0.4613
10383TIP3    H152640   3.997   1.962  14.166  1.1083 -1.1382  0.2443
10383TIP3    H252641   3.877   2.030  14.229 -0.9713 -1.2772 -3.4091
10384TIP3   OH252642   5.474   0.517   0.037 -0.4198 -0.5925 -0.0930
10384TIP3    H152643   5.457   0.601  -0.005  1.0913  0.4590  1.3591
10384TIP3    H252644   5.461   0.534   0.131  0.6095 -1.7812  0.2765
10385TIP3   OH252645   1.933   5.833   2.659 -0.3755  0.1146 -0.0929
10385TIP3    H152646   1.857   5.859   2.608  0.7814  0.9869 -1.4128
10385TIP3    H252647   1.898   5.777   2.728 -2.0418 -0.5386 -1.4492
10386TIP3   OH252648   1.155   1.020  14.561 -0.4190 -0.3733 -0.4983
10386TIP3    H152649   1.072   1.061  14.536 -1.3148 -0.5042  2.1206
10386TIP3    H252650   1.201   1.088  14.610 -0.2486 -1.2276  0.5426
10387TIP3   OH252651   4.530   2.594  14.251 -0.2224  0.0626  0.5522
10387TIP3    H152652   4.574   2.654  14.190  2.9008 -1.5474  1.0875
10387TIP3    H252653   4.535   2.638  14.336 -0.4271  0.2773  0.4517
10388TIP3   OH252654   3.630   4.796  15.706  0.1119  0.1303  0.3337
10388TIP3    H152655   3.660   4.710  15.675 -0.6923  0.8293 -2.5434
10388TIP3    H252656   3.710   4.839  15.737  0.7060 -1.2296  0.7416
10389TIP3   OH252657   5.722   5.603   0.772  0.4394  0.3831  0.3534
10389TIP3    H152658   5.801   5.590   0.825  1.0824  0.6821 -0.5172
10389TIP3    H252659   5.671   5.523   0.785  0.0064  0.9562  2.3788
10390TIP3   OH252660   3.280   4.211   5.606 -0.2509  0.7342  0.0990
10390TIP3    H152661   3.202   4.159   5.585  0.0482  0.8810 -1.4240
10390TIP3    H252662   3.245   4.298   5.627 -0.3399  1.6823 -3.6187
10391TIP3   OH252663   1.014   3.763  13.031 -0.0328 -0.3244  0.0155
10391TIP3    H152664   1.034   3.757  13.124 -1.0763  1.7339  0.3958
10391TIP3    H252665   1.024   3.856  13.009  1.9635 -1.0275 -2.3581
10392TIP3   OH252666   4.004   4.992   0.101  0.7892 -0.2131 -0.1822
10392TIP3    H152667   3.949   4.977   0.023  0.8736  0.2674 -0.3383
10392TIP3    H252668   4.076   4.930   0.092  1.6299  0.8754 -1.2887
10393TIP3   OH252669   4.742   6.013   3.264  0.5175 -0.1091  0.1745
10393TIP3    H152670   4.816   6.073   3.275 -0.8393  1.5261  0.7016
10393TIP3    H252671   4.763   5.939   3.320  1.2500  0.8406  1.1881
10394TIP3   OH252672   5.325   3.055  16.360  0.2120  0.1794  0.6666
10394TIP3    H152673   5.280   3.138  16.378  1.0415  0.5212  1.2452
10394TIP3    H252674   5.416   3.081  16.345  0.5465 -0.6625  1.2017
10395TIP3   OH252675   1.179   1.876   1.730  0.3542 -0.4328 -0.5869
10395TIP3    H152676   1.259   1.846   1.686 -0.4714 -0.5721 -2.0064
10395TIP3    H252677   1.210   1.941   1.794  1.6296 -0.6606 -0.9639
10396TIP3   OH252678   5.414   1.966  13.273  0.3705  0.6036 -0.1556
10396TIP3    H152679   5.340   2.026  13.286  1.1876  2.0039 -1.8155
10396TIP3    H252680   5.457   1.962  13.358 -0.9423  0.6576  0.5315
10397TIP3   OH252681   2.530   6.403   5.493 -0.2815  0.3701  0.2168
10397TIP3    H152682   2.624   6.401   5.513 -0.2717  0.6907  0.2001
10397TIP3    H252683   2.496   6.478   5.543 -0.5548  0.1686  0.3381
10398TIP3   OH252684   1.634   3.457  15.012 -0.2493 -0.4531 -0.4072
10398TIP3    H152685   1.616   3.411  15.094 -1.6020 -0.9657 -0.9745
10398TIP3    H252686   1.709   3.410  14.974 -0.0774 -0.6641  0.1824
10399TIP3   OH252687   6.233   5.680  16.853 -0.0585 -0.0422  0.4351
10399TIP3    H152688   6.203   5.660  16.764  1.4725  3.5593 -0.9916
10399TIP3    H252689   6.328   5.691  16.845 -0.1959  2.7767  1.9743
10400TIP3   OH252690   3.938   5.371   2.605  0.0197  0.2275  0.7410
10400TIP3    H152691   3.915   5.398   2.694 -0.2255  1.4638  0.3003
10400TIP3    H252692   3.853   5.359   2.561  0.1541  1.9091 -0.0101
10401TIP3   OH252693   6.172   0.738   3.805 -0.2644  0.1861  0.5681
10401TIP3    H152694   6.219   0.662   3.839 -1.6514 -0.5509  0.8549
10401TIP3    H252695   6.166   0.723   3.710  1.4061  1.0304  0.3108
10402TIP3   OH252696   4.623   2.708   3.929 -0.5187 -0.2397 -0.0975
10402TIP3    H152697   4.708   2.665   3.927 -0.1197  0.4222  1.9475
10402TIP3    H252698   4.560   2.638   3.907  0.2497 -1.5381  1.6958
10403TIP3   OH252699   2.899   2.461  15.573  0.2644 -0.1106  0.1053
10403TIP3    H152700   2.913   2.554  15.556 -1.1244  0.1615  0.4136
10403TIP3    H252701   2.828   2.436  15.513  0.4611 -0.9219  0.2004
10404TIP3   OH252702   0.470   3.182   4.538  0.1356 -0.4671  0.1213
10404TIP3    H152703   0.517   3.157   4.459 -1.8037  0.9639 -1.5327
10404TIP3    H252704   0.399   3.118   4.545 -2.0281  1.6693 -1.5145
10405TIP3   OH252705   3.161   6.566   1.189 -0.1564 -0.4061 -0.0349
10405TIP3    H152706   3.176   6.652   1.229  0.4580  0.5242 -2.1692
10405TIP3    H252707   3.245   6.521   1.196 -0.2875 -0.5729  0.4775
10406TIP3   OH252708   4.174   2.827   2.354 -0.9051 -0.2771 -0.3061
10406TIP3    H152709   4.209   2.784   2.432  1.1451  0.2694 -0.8867
10406TIP3    H252710   4.130   2.904   2.387 -1.8487 -1.1441  0.4785
10407TIP3   OH252711   6.804   1.814   5.450  0.4092  0.5366 -0.2856
10407TIP3    H152712   6.748   1.886   5.479  1.1288  1.2256 -0.5847
10407TIP3    H252713   6.894   1.846   5.465  0.7548  0.2487 -1.7007
10408TIP3   OH252714   2.892   2.569  11.742  0.2365  0.0670  0.3425
10408TIP3    H152715   2.977   2.526  11.748  0.0038 -0.6206 -0.9625
10408TIP3    H252716   2.912   2.658  11.712  0.4788 -0.2051 -0.3116
10409TIP3   OH252717   1.308   4.490   4.350  0.4980  0.2041 -0.4439
10409TIP3    H152718   1.351   4.540   4.280 -1.5129  2.2102 -0.3318
10409TIP3    H252719   1.368   4.497   4.424  0.1064  2.9073 -0.3004
10410TIP3   OH252720   2.235   0.935   5.254  0.3040 -0.2309 -0.2408
10410TIP3    H152721   2.200   0.891   5.331  0.7275 -1.0030 -0.4875
10410TIP3    H252722   2.170   1.001   5.232  0.7044  0.7591  1.4559
10411TIP3   OH252723   2.605   3.986  15.074  0.0921  0.0458  0.3580
10411TIP3    H152724   2.691   3.966  15.036 -0.9913  1.8720 -3.2072
10411TIP3    H252725   2.622   4.062  15.131  0.6489  1.2310 -1.3402
10412TIP3   OH252726   1.996   3.493   2.495 -0.1382  0.2718 -0.1071
10412TIP3    H152727   2.024   3.465   2.407 -2.3838 -0.6839 -0.5386
10412TIP3    H252728   1.946   3.419   2.529 -0.5258  1.2213  1.4195
10413TIP3   OH252729   1.119   4.995   0.933  0.8239  0.5040 -0.1772
10413TIP3    H152730   1.030   5.018   0.904  1.1981  0.0022 -1.7351
10413TIP3    H252731   1.173   5.070   0.908  1.0331  0.3616 -0.1513
10414TIP3   OH252732   2.064   3.659  16.277 -0.0152  0.4158  0.3252
10414TIP3    H152733   2.135   3.606  16.312 -0.6107  0.1510  1.1335
10414TIP3    H252734   2.099   3.695  16.196  0.9021 -0.0374  0.5144
10415TIP3   OH252735   0.864   1.114  13.311  0.3197  0.1447 -0.4072
10415TIP3    H152736   0.891   1.055  13.240 -1.6435 -1.0637 -0.1872
10415TIP3    H252737   0.802   1.174  13.269  1.2953  1.2033 -0.3305
10416TIP3   OH252738   2.020   0.205   0.670 -0.0211  0.1696 -0.4656
10416TIP3    H152739   2.071   0.232   0.593  0.5603  0.0207 -0.1322
10416TIP3    H252740   1.929   0.206   0.639  0.1388  0.8902 -0.9284
10417TIP3   OH252741   5.913   4.995  16.463 -0.5904 -0.3469 -0.2304
10417TIP3    H152742   5.855   4.959  16.396 -1.5103 -0.2773  0.5157
10417TIP3    H252743   5.899   5.089  16.460  0.2294 -0.2389 -0.7260
10418TIP3   OH252744   1.790   0.551  15.068  0.2436 -0.2219 -0.0920
10418TIP3    H152745   1.794   0.613  15.141  0.5290 -0.0456 -0.2536
10418TIP3    H252746   1.754   0.602  14.995 -1.5550 -0.8388  0.3635
10419TIP3   OH252747   3.106   1.542   2.589  0.8053  0.1054 -0.3755
10419TIP3    H152748   3.016   1.576   2.589  1.1477  1.0203  0.2097
10419TIP3    H252749   3.146   1.579   2.667  2.0249  0.5820 -1.2000
10420TIP3   OH252750   6.728   5.603  15.489 -0.5665 -0.1980  0.5895
10420TIP3    H152751   6.718   5.619  15.583 -1.0805 -0.8951  0.6598
10420TIP3    H252752   6.660   5.539  15.469  0.9382 -1.7086  0.1863
10421TIP3   OH252753   5.821   5.272  15.093 -0.3138 -0.4364 -0.2724
10421TIP3    H152754   5.841   5.237  15.179 -1.7943 -0.1959  0.1786
10421TIP3    H252755   5.739   5.229  15.067  0.1326 -0.5330 -1.5637
10422TIP3   OH252756   2.199   4.816   3.086 -0.7454 -0.1226 -0.8428
10422TIP3    H152757   2.192   4.750   3.018  1.1145 -1.0030 -0.2074
10422TIP3    H252758   2.229   4.895   3.040 -0.9053 -0.3156 -1.2769
10423TIP3   OH252759   5.248   6.659  11.518 -0.1285 -0.1539  0.3581
10423TIP3    H152760   5.293   6.662  11.603  1.2891 -1.6657 -0.3221
10423TIP3    H252761   5.311   6.696  11.456 -1.1022  0.8067 -0.0832
10424TIP3   OH252762   3.901   5.851   2.989 -0.2328  0.1144  0.1517
10424TIP3    H152763   3.979   5.814   2.948 -0.0739  1.3555 -0.6815
10424TIP3    H252764   3.932   5.892   3.069  0.0144  0.7418 -0.2557
10425TIP3   OH252765   4.954   4.842  16.445 -0.5611  0.3214 -0.4858
10425TIP3    H152766   4.934   4.931  16.416 -1.0252 -0.7154 -3.5020
10425TIP3    H252767   5.033   4.817  16.397 -2.1080 -1.9341 -1.9579
10426TIP3   OH252768   1.382   1.408  14.302 -0.0624 -0.2326  0.7012
10426TIP3    H152769   1.369   1.426  14.209  2.1179  0.4937  0.5103
10426TIP3    H252770   1.477   1.417  14.315 -0.3048 -0.7034  2.9076
10427TIP3   OH252771   5.092   4.522   1.471  0.1978 -0.0419  0.9786
10427TIP3    H152772   5.169   4.466   1.483 -0.0887 -0.3678  1.3173
10427TIP3    H252773   5.046   4.483   1.397  0.6218  0.4495  0.4546
10428TIP3   OH252774   0.578   4.517  11.797  0.2389 -0.3380  0.2439
10428TIP3    H152775   0.486   4.495  11.808  0.2752 -0.9075 -0.5807
10428TIP3    H252776   0.616   4.506  11.884 -1.1096  2.9861  1.3308
10429TIP3   OH252777   1.180   2.983   5.280 -0.2201 -0.2672 -0.0537
10429TIP3    H152778   1.187   2.939   5.364  0.0481 -1.2316 -0.5768
10429TIP3    H252779   1.186   3.077   5.301  2.1174 -0.5747  0.7576
10430TIP3   OH252780   4.311   0.438   3.940 -0.9030 -0.4471  0.0886
10430TIP3    H152781   4.352   0.519   3.970 -2.0475  0.5605 -1.0706
10430TIP3    H252782   4.351   0.421   3.855 -2.4833  0.2454 -0.8028
10431TIP3   OH252783   5.674   4.976  10.271  0.1122 -0.9054  0.2040
10431TIP3    H152784   5.642   4.889  10.292 -1.9023  0.1650  1.7215
10431TIP3    H252785   5.770   4.968  10.272 -0.0486 -2.8212  1.4438
10432TIP3   OH252786   2.473   6.402   0.830 -0.3599  0.0924  0.0392
10432TIP3    H152787   2.416   6.344   0.780  0.2107  0.6255 -1.2668
10432TIP3    H252788   2.414   6.461   0.877 -0.9288 -1.2187  0.9841
10433TIP3   OH252789   4.787   0.223  14.400  0.5313 -0.1849  0.2438
10433TIP3    H152790   4.869   0.200  14.445  1.2460  1.7698 -0.0292
10433TIP3    H252791   4.720   0.220  14.469  1.2585  0.6579  1.0026
10434TIP3   OH252792   3.289   3.042  15.062 -0.2074 -0.3859  0.6104
10434TIP3    H152793   3.272   2.957  15.103 -0.8181  0.3955  1.9956
10434TIP3    H252794   3.345   3.088  15.124  1.2294 -0.2559 -0.7394
10435TIP3   OH252795   1.569   0.693   3.942  0.1099 -0.2632  0.3839
10435TIP3    H152796   1.552   0.785   3.962 -0.9515 -0.2939 -0.3047
10435TIP3    H252797   1.534   0.681   3.854  0.6171 -1.2264  0.3068
10436TIP3   OH252798   3.797   5.490   3.181  0.4928 -0.2078 -0.3802
10436TIP3    H152799   3.792   5.496   3.277  0.2682  1.8593 -0.4920
10436TIP3    H252800   3.768   5.576   3.151  0.7628 -0.7835 -2.3088
10437TIP3   OH252801   1.119   3.714   5.200 -0.0149 -0.2275 -0.6135
10437TIP3    H152802   1.023   3.712   5.208 -0.0043 -0.3711 -0.5144
10437TIP3    H252803   1.143   3.802   5.230 -0.1434 -0.0694 -0.9727
10438TIP3   OH252804   4.055   4.773  14.391 -0.1079  0.3727  0.3014
10438TIP3    H152805   4.106   4.848  14.420  1.3399 -0.7889  0.8204
10438TIP3    H252806   4.046   4.718  14.470 -1.0520 -0.0466 -0.0926
10439TIP3   OH252807   0.362   1.329  12.801 -0.1739 -0.1043  0.4807
10439TIP3    H152808   0.266   1.329  12.803 -0.1682 -0.5297  1.2475
10439TIP3    H252809   0.386   1.418  12.776 -0.7615  0.3298  1.4431
10440TIP3   OH252810   6.672   2.283  17.153  0.6511  0.5592 -0.2094
10440TIP3    H152811   6.608   2.272  17.224  1.4171  1.4582  0.6383
10440TIP3    H252812   6.625   2.332  17.086  0.1509  0.3688 -0.0032
10441TIP3   OH252813   5.799   0.727  11.533  0.1493  0.7883  0.0866
10441TIP3    H152814   5.883   0.692  11.562  0.1228  1.0198  0.4396
10441TIP3    H252815   5.734   0.671  11.574  0.0929  1.5870  1.0925
10442TIP3   OH252816   3.306   2.452   4.480  0.2805 -0.1211  0.1554
10442TIP3    H152817   3.298   2.518   4.549  1.2508 -0.3629  0.5023
10442TIP3    H252818   3.313   2.369   4.526 -0.7482 -0.4526 -0.2825
10443TIP3   OH252819   5.262   6.515  13.537 -0.0526 -0.1417 -0.2309
10443TIP3    H152820   5.320   6.448  13.499  0.9566 -0.6429  2.0886
10443TIP3    H252821   5.293   6.597  13.500  3.3860 -0.1945  2.2619
10444TIP3   OH252822   0.037   4.600  12.700 -0.0095 -0.6139 -0.4838
10444TIP3    H152823   0.030   4.680  12.752 -0.5477  0.3198 -1.9583
10444TIP3    H252824  -0.052   4.585  12.667  0.5159 -0.6830 -1.8844
10445TIP3   OH252825   2.258   2.129   1.026 -0.2325  0.1850  0.0930
10445TIP3    H152826   2.235   2.037   1.016 -0.2445  0.1168  0.6998
10445TIP3    H252827   2.337   2.140   0.973  0.1675 -0.3420  0.5639
10446TIP3   OH252828   4.210   1.441   4.727  0.4322  0.3296  0.5315
10446TIP3    H152829   4.243   1.419   4.640  0.0618  0.9919  0.2167
10446TIP3    H252830   4.164   1.524   4.714  2.2315  1.5676  1.7809
10447TIP3   OH252831   4.816   0.132  14.911 -0.4882  0.5416  0.0984
10447TIP3    H152832   4.834   0.220  14.943 -1.6874  0.6658  0.4510
10447TIP3    H252833   4.836   0.075  14.985  2.4646  0.2924 -0.8303
10448TIP3   OH252834   4.710   6.342  15.874  0.0268 -0.1065  0.4340
10448TIP3    H152835   4.681   6.415  15.820 -0.6932 -0.1853  0.7174
10448TIP3    H252836   4.776   6.297  15.821  0.8494  1.0385  0.4575
10449TIP3   OH252837   2.913   0.352  10.735 -0.2909  0.3600  0.1163
10449TIP3    H152838   2.988   0.347  10.677 -0.0315  1.0089  0.3826
10449TIP3    H252839   2.946   0.327  10.821 -0.3857  0.5984  0.2250
10450TIP3   OH252840   0.097   2.484  15.412  0.4461  0.1106  0.9612
10450TIP3    H152841   0.170   2.544  15.395 -0.5232  1.2764  0.7795
10450TIP3    H252842   0.138   2.402  15.437  1.8407  0.4322 -0.1893
10451TIP3   OH252843   1.964   5.578   5.980 -0.3412 -0.3173  0.3495
10451TIP3    H152844   2.047   5.609   5.944 -0.6605 -0.6546 -0.6914
10451TIP3    H252845   1.935   5.649   6.038 -0.4029  0.7558 -0.9777
10452TIP3   OH252846   4.566   5.876   1.309 -1.1301  0.3914  0.0281
10452TIP3    H152847   4.605   5.789   1.307 -1.0181  0.4569 -1.3377
10452TIP3    H252848   4.491   5.868   1.367 -0.7984 -0.4744  0.3467
10453TIP3   OH252849   1.150   0.666   4.799  0.2882  0.3875  0.5219
10453TIP3    H152850   1.129   0.575   4.782  0.2816  0.3296  0.8310
10453TIP3    H252851   1.244   0.673   4.783 -0.0325  0.7320 -1.2318
10454TIP3   OH252852   4.538   1.583   1.298 -0.2132  0.1813  0.1350
10454TIP3    H152853   4.466   1.525   1.270 -1.0635  0.0119  2.5143
10454TIP3    H252854   4.512   1.611   1.386  2.2171  0.8468  0.6611
10455TIP3   OH252855   5.463   4.818  13.759  0.5957  0.4560  0.2929
10455TIP3    H152856   5.536   4.840  13.701  0.1165 -1.2410 -0.9837
10455TIP3    H252857   5.484   4.863  13.841  1.8470  1.9783 -0.8124
10456TIP3   OH252858   2.359   5.659   4.515 -0.7051  0.1814 -0.2231
10456TIP3    H152859   2.389   5.672   4.424 -1.6685  1.8221 -0.3235
10456TIP3    H252860   2.284   5.600   4.507  0.1650 -0.9404 -0.3228
10457TIP3   OH252861   2.001   3.789   3.800 -0.5049 -0.3942 -0.3786
10457TIP3    H152862   2.065   3.854   3.770  0.3530 -0.8467  0.4605
10457TIP3    H252863   1.950   3.834   3.866 -0.4443 -0.3216 -0.3815
10458TIP3   OH252864   1.269   4.660  17.214  0.1626 -0.1267  0.0881
10458TIP3    H152865   1.339   4.613  17.168  0.8051 -0.6153  1.5422
10458TIP3    H252866   1.194   4.600  17.210 -1.2656  1.7471 -4.3732
10459TIP3   OH252867   2.289   5.984   4.940  0.0152  0.0284 -0.7805
10459TIP3    H152868   2.326   6.066   4.907  0.7778 -1.0133 -2.5917
10459TIP3    H252869   2.218   5.963   4.880 -0.1832 -0.6236 -0.3237
10460TIP3   OH252870   6.295   5.582   4.605  0.2914  0.9534  0.2213
10460TIP3    H152871   6.376   5.569   4.656 -0.2070 -3.6507 -0.0148
10460TIP3    H252872   6.325   5.601   4.517  1.1257  0.5590  0.4154
10461TIP3   OH252873   0.356   4.796  13.290 -0.0182 -0.2884  0.4624
10461TIP3    H152874   0.389   4.707  13.283  1.1857  0.0885  1.2005
10461TIP3    H252875   0.321   4.801  13.379 -1.7339 -0.5627 -0.1766
10462TIP3   OH252876   0.242   3.841   6.012  0.6888 -0.0522 -0.2997
10462TIP3    H152877   0.152   3.861   5.986  0.4808 -0.3777  0.1787
10462TIP3    H252878   0.284   3.810   5.931  0.0510 -1.0114 -0.2654
10463TIP3   OH252879   2.622   4.087  13.714  0.5765 -0.0597 -0.5101
10463TIP3    H152880   2.528   4.101  13.702  0.3544 -0.6353  0.4995
10463TIP3    H252881   2.628   4.005  13.763  1.6067 -0.0077 -0.5353
10464TIP3   OH252882   5.257   4.367   5.964 -0.2546 -0.0850  0.4312
10464TIP3    H152883   5.184   4.428   5.978 -1.8240 -1.6694 -0.6757
10464TIP3    H252884   5.323   4.420   5.920  0.0682  1.8677  3.1646
10465TIP3   OH252885   3.609   1.409   6.330 -0.0874 -0.1891 -0.4244
10465TIP3    H152886   3.659   1.450   6.401 -1.3428  0.2169  0.2351
10465TIP3    H252887   3.572   1.330   6.369 -0.0170 -0.4543 -0.8920
10466TIP3   OH252888   6.319   1.042   5.346  0.6643 -0.0987  0.1891
10466TIP3    H152889   6.248   1.090   5.305  1.4800  1.2865  0.3653
10466TIP3    H252890   6.398   1.090   5.322  1.3241 -0.3271  1.8318
10467TIP3   OH252891   2.162   0.198  10.941  0.1697  0.2897 -0.5404
10467TIP3    H152892   2.112   0.192  11.023  1.4698  1.1956  0.3259
10467TIP3    H252893   2.108   0.254  10.885 -0.0860  0.7650  0.1697
10468TIP3   OH252894   1.038   5.844  15.388  0.5230 -0.1303 -0.6163
10468TIP3    H152895   1.043   5.778  15.319  1.0483  0.4877 -1.1876
10468TIP3    H252896   1.101   5.815  15.454 -1.4376 -1.7920  0.5635
10469TIP3   OH252897   4.973   0.343   2.746 -0.3400 -0.4686 -0.5077
10469TIP3    H152898   4.975   0.249   2.765 -0.6929 -0.1069  1.5128
10469TIP3    H252899   5.065   0.369   2.743 -0.2440 -0.8659 -0.9790
10470TIP3   OH252900   4.123   0.214   3.250  0.0087 -0.8674 -0.0975
10470TIP3    H152901   4.140   0.269   3.174 -0.4463 -0.6499 -0.0396
10470TIP3    H252902   4.106   0.127   3.214  0.5169 -0.9309 -0.1991
10471TIP3   OH252903   0.485   5.601   5.294  0.2684  0.7787  0.2702
10471TIP3    H152904   0.438   5.571   5.372  1.6706 -0.8313  0.5324
10471TIP3    H252905   0.544   5.669   5.327  1.1361 -0.1682  0.7099
10472TIP3   OH252906   6.264   6.699  14.282 -0.0539  0.2302 -0.3541
10472TIP3    H152907   6.202   6.645  14.330  0.4377 -0.6658 -0.7195
10472TIP3    H252908   6.215   6.779  14.261  0.1514  1.2353  2.8352
10473TIP3   OH252909   3.389   0.771   5.374  0.3299  0.7011 -0.4009
10473TIP3    H152910   3.451   0.729   5.434 -1.4605 -2.4685 -0.6807
10473TIP3    H252911   3.320   0.805   5.431 -0.2600 -0.3759 -0.4503
10474TIP3   OH252912   3.818   6.543   1.404  0.7091  0.6903 -0.0336
10474TIP3    H152913   3.909   6.552   1.434  0.3152 -2.0317  2.0774
10474TIP3    H252914   3.771   6.505   1.477 -2.2353  2.1478 -1.0633
10475TIP3   OH252915   1.594   1.755   4.873  0.0319  0.5356 -0.4504
10475TIP3    H152916   1.687   1.779   4.869  0.0556  0.7521  0.9170
10475TIP3    H252917   1.585   1.711   4.958 -1.0158  0.0932 -0.7897
10476TIP3   OH252918   5.527   4.387   2.443  0.4929 -0.1974  0.0106
10476TIP3    H152919   5.450   4.341   2.476  0.0277 -1.7396 -3.0079
10476TIP3    H252920   5.493   4.470   2.410  0.2196 -0.5395 -0.5880
10477TIP3   OH252921   5.731   2.992  12.574  0.2835 -0.3666  0.2681
10477TIP3    H152922   5.805   3.044  12.542  1.2368 -1.0282  1.3720
10477TIP3    H252923   5.711   2.933  12.502  0.9101 -0.2644  0.0070
10478TIP3   OH252924   1.883   4.525  12.538  0.3004 -0.7752 -0.3216
10478TIP3    H152925   1.946   4.499  12.605  1.0166  1.8213  0.0857
10478TIP3    H252926   1.929   4.592  12.487 -1.6441  0.2123 -0.8352
10479TIP3   OH252927   6.639   3.053   2.255  0.4442  0.6243 -0.6219
10479TIP3    H152928   6.680   2.995   2.319 -2.8717 -1.6548 -0.4290
10479TIP3    H252929   6.712   3.096   2.211  2.9176 -1.4019  1.3347
10480TIP3   OH252930   2.055   0.362  12.074 -0.1233 -0.0777  0.3070
10480TIP3    H152931   2.011   0.420  12.136  0.1970 -1.1959  1.6024
10480TIP3    H252932   1.988   0.299  12.048 -0.2140  0.2930 -0.3905
10481TIP3   OH252933   1.551   3.310  12.052  0.1100  0.0872  0.5022
10481TIP3    H152934   1.524   3.246  11.987 -0.6938  1.1214 -0.2119
10481TIP3    H252935   1.646   3.303  12.055  0.0897 -0.5523 -0.1710
10482TIP3   OH252936   0.649   6.760  17.169 -0.2417  0.3295 -0.1055
10482TIP3    H152937   0.621   6.765  17.260 -0.2614 -0.0612 -0.0877
10482TIP3    H252938   0.721   6.823  17.163 -1.8560  2.1738 -0.4390
10483TIP3   OH252939   4.117   1.544  13.780  0.3412 -1.0097 -0.1702
10483TIP3    H152940   4.112   1.570  13.872  0.4450  1.9551 -0.9517
10483TIP3    H252941   4.189   1.480  13.777 -0.5370 -2.1481  1.9921
10484TIP3   OH252942   2.213   5.051  11.935 -0.3656  0.7968 -0.1477
10484TIP3    H152943   2.178   4.994  11.867 -2.4258  1.2998  0.4492
10484TIP3    H252944   2.209   5.139  11.898 -2.9675  1.2733  1.1270
10485TIP3   OH252945   6.298   0.008  11.855 -0.0749 -0.0287  0.0048
10485TIP3    H152946   6.342   0.050  11.781  0.5931 -0.7511 -0.0109
10485TIP3    H252947   6.368  -0.011  11.918 -0.6159  0.4447  0.7677
10486TIP3   OH252948   6.120   3.603   1.801  0.1328  0.1967  0.0394
10486TIP3    H152949   6.078   3.588   1.717  0.8592 -1.1501 -0.1077
10486TIP3    H252950   6.049   3.626   1.860 -0.6555 -0.9282 -0.4576
10487TIP3   OH252951   5.212   5.106  11.158 -0.2889  0.0813  0.5531
10487TIP3    H152952   5.224   5.193  11.120 -0.9501 -1.0529 -2.3782
10487TIP3    H252953   5.139   5.117  11.220 -1.0927  1.3735 -0.5965
10488TIP3   OH252954   3.962   0.715   1.684  0.6843 -0.0241 -0.4911
10488TIP3    H152955   3.922   0.632   1.660 -1.3725  0.7608  0.1414
10488TIP3    H252956   3.927   0.778   1.621  1.1133  0.6293 -0.0872
10489TIP3   OH252957   2.910   3.757   4.614  0.9845  0.2578  0.3498
10489TIP3    H152958   2.986   3.713   4.653 -0.9287 -4.5572 -1.0043
10489TIP3    H252959   2.926   3.752   4.519 -0.6737 -0.1964  0.0848
10490TIP3   OH252960   0.408   3.035   3.994 -0.4103  0.0593  0.4880
10490TIP3    H152961   0.485   3.089   3.974  0.6259 -1.6396 -0.1950
10490TIP3    H252962   0.369   3.076   4.071  2.4392 -0.3278  2.1876
10491TIP3   OH252963   3.130   3.537   6.461 -0.2787  0.1123 -0.2349
10491TIP3    H152964   3.218   3.511   6.434 -1.4191 -3.1508 -1.0739
10491TIP3    H252965   3.082   3.548   6.378 -0.9876  0.5887  0.2361
10492TIP3   OH252966   0.710   0.438  16.110 -0.5037 -0.2159 -0.3165
10492TIP3    H152967   0.663   0.391  16.041 -1.5872  2.4366 -1.4726
10492TIP3    H252968   0.656   0.428  16.188 -1.7827  0.8033 -1.0589
10493TIP3   OH252969   0.751   2.107  16.808  1.0496  0.3673  0.3681
10493TIP3    H152970   0.698   2.167  16.755  1.4365 -1.6103 -2.4006
10493TIP3    H252971   0.690   2.072  16.872  0.4561  2.5372  1.0235
10494TIP3   OH252972   4.527   3.193   1.341  0.0638 -0.1743 -0.1579
10494TIP3    H152973   4.587   3.206   1.268  1.4704 -1.3396  0.7758
10494TIP3    H252974   4.569   3.127   1.396 -0.8682  0.8472  1.8271
10495TIP3   OH252975   4.855   5.498  16.896 -0.1797 -0.3059 -0.4347
10495TIP3    H152976   4.796   5.438  16.939  0.0643  1.4992  2.5232
10495TIP3    H252977   4.936   5.447  16.883 -1.6233 -2.1475 -2.7160
10496TIP3   OH252978   3.131   0.503   2.749 -0.3545 -0.0494 -0.0534
10496TIP3    H152979   3.190   0.494   2.674 -1.3900 -1.7467 -0.6963
10496TIP3    H252980   3.044   0.503   2.710 -0.9253 -1.5863  1.1911
10497TIP3   OH252981   1.964   1.563  12.883  0.5039 -0.5723 -0.6176
10497TIP3    H152982   2.058   1.583  12.884 -0.1447  2.9896  2.8009
10497TIP3    H252983   1.928   1.621  12.816  0.4786 -0.0487 -0.1675
10498TIP3   OH252984   3.918   3.237  15.346  0.0525  0.0397  0.1027
10498TIP3    H152985   3.970   3.251  15.267 -0.9389  1.3766 -0.3127
10498TIP3    H252986   3.878   3.321  15.364 -4.3983 -1.6165 -1.2862
10499TIP3   OH252987   1.852   0.222  13.822 -0.4480 -0.5643 -0.1313
10499TIP3    H152988   1.938   0.195  13.789 -0.2372  0.1754 -0.2103
10499TIP3    H252989   1.797   0.145  13.813  0.0553 -0.8670 -0.6472
10500TIP3   OH252990   6.484   4.070  16.260 -0.3034 -0.1108  0.1905
10500TIP3    H152991   6.421   4.004  16.230  0.3238 -0.3069 -0.7390
10500TIP3    H252992   6.431   4.148  16.278 -0.7389 -0.0504 -1.2812
10501TIP3   OH252993   1.604   0.523  11.127 -0.1318  0.1828  0.3969
10501TIP3    H152994   1.537   0.588  11.148 -1.3470 -0.9516  0.0804
10501TIP3    H252995   1.583   0.494  11.038 -1.4814 -2.8527  1.6214
10502TIP3   OH252996   5.790   3.672  13.522 -0.4008  0.8017 -0.7752
10502TIP3    H152997   5.702   3.637  13.515 -0.7117  1.5822 -0.8187
10502TIP3    H252998   5.828   3.629  13.598 -0.8714  0.5757 -0.6736
10503TIP3   OH252999   2.309   0.503   5.667 -0.1204  0.0046  0.2706
10503TIP3    H153000   2.340   0.458   5.746 -0.2186  2.7445  1.9407
10503TIP3    H253001   2.372   0.574   5.654 -1.1070  0.6496 -1.0742
10504TIP3   OH253002   6.690   2.425  15.543  0.1123 -0.6110  0.0797
10504TIP3    H153003   6.755   2.372  15.588  0.3903 -1.4209 -1.2467
10504TIP3    H253004   6.723   2.432  15.453 -0.2679  1.2318  0.0574
10505TIP3   OH253005   4.509   3.308   4.480 -0.1517  0.4793  0.3940
10505TIP3    H153006   4.562   3.388   4.480  2.4782 -1.1918 -2.7512
10505TIP3    H253007   4.428   3.333   4.435  0.9900  1.1452 -1.2977
10506TIP3   OH253008   0.381   2.184  15.262 -0.4411 -0.9199 -0.6314
10506TIP3    H153009   0.324   2.239  15.208  0.9355  0.4450 -0.7016
10506TIP3    H253010   0.361   2.210  15.352  1.7945  1.2836 -0.7491
10507TIP3   OH253011   1.551   1.889  16.950 -0.4614 -0.0949 -0.1378
10507TIP3    H153012   1.575   1.901  16.858  1.0596  0.5841  0.3235
10507TIP3    H253013   1.619   1.937  16.998 -2.2598  1.0890  1.2752
10508TIP3   OH253014   2.009   6.405  13.199 -0.3147 -0.2381  0.2980
10508TIP3    H153015   2.023   6.441  13.287 -0.4761 -1.5942  0.8948
10508TIP3    H253016   1.915   6.387  13.195 -0.5594  1.2002 -0.7042
10509TIP3   OH253017   4.858   2.771   1.969 -0.5021  0.2913 -0.2773
10509TIP3    H153018   4.911   2.692   1.975  0.5550  0.9270 -1.1242
10509TIP3    H253019   4.817   2.780   2.055  0.0163 -0.7220  0.0721
10510TIP3   OH253020   5.703   0.079  13.811 -0.1257 -0.2162 -0.0689
10510TIP3    H153021   5.753   0.089  13.730 -0.3924 -1.1973 -0.3523
10510TIP3    H253022   5.703   0.167  13.849  2.0083 -0.2346  0.0498
10511TIP3   OH253023   3.763   0.376  14.104  0.2271 -0.7572 -0.5686
10511TIP3    H153024   3.843   0.369  14.156 -0.8435 -0.1711  1.2090
10511TIP3    H253025   3.787   0.434  14.031  0.5894  2.0150  1.6691
10512TIP3   OH253026   2.077   6.180   4.010 -0.0971 -0.2230 -0.1609
10512TIP3    H153027   2.126   6.104   4.041 -1.2727 -1.7889 -2.0424
10512TIP3    H253028   1.987   6.148   3.998 -1.0640  1.9762  0.9188
10513TIP3   OH253029   4.661   0.052  15.938  0.4563  0.0920 -0.1895
10513TIP3    H153030   4.745   0.059  15.891  0.3311  2.4097 -0.1151
10513TIP3    H253031   4.595   0.048  15.868  0.4284  1.3656 -0.2550
10514TIP3   OH253032   3.798   1.793  10.569  0.3773 -0.0989  0.2357
10514TIP3    H153033   3.768   1.869  10.619 -3.1793 -0.8372 -0.6929
10514TIP3    H253034   3.790   1.819  10.478  0.5213 -1.1080 -0.0677
10515TIP3   OH253035   0.856   3.010   4.943  0.3102  0.0642 -0.9688
10515TIP3    H153036   0.893   2.930   4.982  0.9424 -0.0242 -1.7235
10515TIP3    H253037   0.806   3.050   5.013 -1.2414 -1.7526 -0.9933
10516TIP3   OH253038   1.773   2.128   4.397  0.1620 -0.1838  0.4695
10516TIP3    H153039   1.715   2.198   4.366 -0.3942 -0.5800  0.6040
10516TIP3    H253040   1.857   2.171   4.410 -0.4044  0.6632  1.4030
10517TIP3   OH253041   6.504   3.990   3.555 -0.4454 -0.1911 -0.2722
10517TIP3    H153042   6.415   3.999   3.522 -0.1179 -0.3868 -1.1991
10517TIP3    H253043   6.555   4.057   3.509 -0.3080  0.5924  0.9849
10518TIP3   OH253044   1.919   5.597   4.015 -0.4979  0.0887  0.5526
10518TIP3    H153045   1.893   5.505   4.028  1.6696 -0.3413  2.2668
10518TIP3    H253046   1.908   5.637   4.101 -0.2799  1.1287  0.0966
10519TIP3   OH253047   0.466   6.270  13.538 -0.7585  0.3166 -0.7862
10519TIP3    H153048   0.444   6.179  13.516 -0.5253  0.3704 -1.2429
10519TIP3    H253049   0.381   6.313  13.545 -0.9254 -0.2036  0.6119
10520TIP3   OH253050   0.818   5.696  16.312  0.3723  0.1451 -0.1907
10520TIP3    H153051   0.854   5.706  16.224  0.9485 -2.6330 -0.3227
10520TIP3    H253052   0.884   5.646  16.360 -2.2777 -3.2340  0.1855
10521TIP3   OH253053   0.171   3.754  15.829  0.2688  0.2236  0.2313
10521TIP3    H153054   0.170   3.837  15.781  0.1539  0.2632  0.3022
10521TIP3    H253055   0.230   3.697  15.778  0.4526  0.3914  0.2558
10522TIP3   OH253056   2.535   6.805  11.830 -0.2260  0.6369 -0.1815
10522TIP3    H153057   2.492   6.725  11.801  1.4719 -0.1532 -0.6216
10522TIP3    H253058   2.486   6.876  11.788 -0.1647 -0.3150 -1.8837
10523TIP3   OH253059   5.568   5.268  13.963  0.6172 -0.0559 -0.4708
10523TIP3    H153060   5.586   5.293  13.872 -0.1558  0.0656 -0.5877
10523TIP3    H253061   5.655   5.254  14.001  0.9609  0.3387 -1.1044
10524TIP3   OH253062   0.089   2.903  12.803 -0.1365 -0.6420 -0.1271
10524TIP3    H153063   0.040   2.837  12.851 -2.0144 -0.1710 -1.3358
10524TIP3    H253064   0.101   2.866  12.716  1.4110 -0.6228  0.0659
10525TIP3   OH253065   2.504   0.501  14.080  0.2233 -0.2568 -0.1054
10525TIP3    H153066   2.493   0.524  13.988 -0.9651 -1.0251 -0.1742
10525TIP3    H253067   2.518   0.406  14.080 -0.4129 -0.3645  0.5300
10526TIP3   OH253068   5.413   6.486  15.141  0.0344  0.2664  0.6586
10526TIP3    H153069   5.427   6.528  15.057  0.2607  1.6285  1.3593
10526TIP3    H253070   5.359   6.410  15.122  0.7119  0.1423 -0.8082
10527TIP3   OH253071   5.789   5.498  17.118  0.1868  0.4061 -0.0417
10527TIP3    H153072   5.829   5.535  17.198 -2.3214  1.2339  0.8649
10527TIP3    H253073   5.703   5.467  17.146  0.1375 -1.3487 -1.9780
10528TIP3   OH253074   4.883   5.819   1.387 -0.0358 -0.1649  0.1203
10528TIP3    H153075   4.959   5.876   1.399  1.5023 -2.2844  0.7444
10528TIP3    H253076   4.812   5.864   1.434  2.0850 -0.5752  3.9437
10529TIP3   OH253077   6.764   2.681  15.616  0.2206  0.1907 -0.0774
10529TIP3    H153078   6.766   2.601  15.563 -2.1610  0.5500 -0.7584
10529TIP3    H253079   6.671   2.699  15.628  0.7275  3.1384 -0.3611
10530TIP3   OH253080   1.006   3.452   0.987 -0.2264 -0.1766  0.2212
10530TIP3    H153081   0.935   3.442   1.051  0.1275 -0.8823  0.4961
10530TIP3    H253082   1.062   3.521   1.024 -0.7522  0.3696  0.0131
10531TIP3   OH253083   4.528   6.040   2.054 -0.5189  0.8384 -0.4807
10531TIP3    H153084   4.468   5.978   2.095 -0.1203  0.9373  0.2497
10531TIP3    H253085   4.490   6.126   2.071 -0.3082  0.8854 -0.2396
10532TIP3   OH253086   5.890   0.063   4.387  0.0941 -0.2352  0.5944
10532TIP3    H153087   5.803   0.078   4.350 -0.7777 -0.8591  2.3148
10532TIP3    H253088   5.915   0.147   4.426  0.7467  0.2454 -0.8135
10533TIP3   OH253089   0.063   4.915   0.384 -0.0217 -0.4982  0.7188
10533TIP3    H153090  -0.031   4.930   0.387 -0.4634 -2.1026 -2.7837
10533TIP3    H253091   0.100   5.000   0.361 -0.9320 -0.6438 -1.3414
10534TIP3   OH253092   5.292   5.285  15.001  0.4696  0.3204 -0.3543
10534TIP3    H153093   5.332   5.249  15.080  2.3851 -0.0478 -1.4375
10534TIP3    H253094   5.361   5.278  14.934 -0.3173  2.7242 -1.4865
10535TIP3   OH253095   6.780   2.082  11.656  0.1063  0.0444  0.2542
10535TIP3    H153096   6.852   2.108  11.714  2.1153 -3.4623 -0.5169
10535TIP3    H253097   6.715   2.043  11.714  0.8523 -0.8456  0.5147
10536TIP3   OH253098   6.064   2.715  15.899  0.1919 -0.2222 -0.2051
10536TIP3    H153099   6.023   2.794  15.864 -0.0233 -0.7960 -1.2742
10536TIP3    H253100   6.149   2.711  15.856 -0.1784 -1.0709 -0.8669
10537TIP3   OH253101   5.827   1.620   1.488  0.3450  0.0014 -0.3325
10537TIP3    H153102   5.823   1.578   1.402 -0.2231  0.7099 -0.6614
10537TIP3    H253103   5.920   1.640   1.501  0.4753 -0.4042 -0.6341
10538TIP3   OH253104   0.922   5.419   0.466  0.2026 -0.2645  0.1559
10538TIP3    H153105   0.837   5.431   0.424  0.8135  0.4650 -0.9111
10538TIP3    H253106   0.950   5.331   0.439  0.3778  0.0148 -0.5939
10539TIP3   OH253107   1.420   6.678   4.063  0.6172 -0.3998 -0.8859
10539TIP3    H153108   1.331   6.711   4.051  0.8260 -0.0190 -1.3910
10539TIP3    H253109   1.425   6.600   4.008  0.6947 -0.2418 -1.1034
10540TIP3   OH253110   5.520   1.675  16.778  0.0472  0.4027 -0.4260
10540TIP3    H153111   5.552   1.628  16.855  0.8389 -0.0282 -1.0120
10540TIP3    H253112   5.451   1.619  16.742 -1.7040  1.5209  1.0673
10541TIP3   OH253113   1.021   5.685   5.176  0.0470  0.5990 -0.3347
10541TIP3    H153114   1.055   5.670   5.088  0.3409  0.2257 -0.1630
10541TIP3    H253115   1.093   5.659   5.234 -0.0735  1.0283  0.0123
10542TIP3   OH253116   4.998   3.321   2.815 -0.4339  0.1301  0.2516
10542TIP3    H153117   4.926   3.342   2.756  0.2744  0.2847 -0.5508
10542TIP3    H253118   5.046   3.403   2.826  0.7652 -0.4195 -0.7715
10543TIP3   OH253119   6.029   0.853   2.176 -0.2987  0.1981 -0.2632
10543TIP3    H153120   6.042   0.891   2.088  0.0081  0.6531 -0.0265
10543TIP3    H253121   6.089   0.904   2.232  1.6190 -1.9527 -0.2837
10544TIP3   OH253122   4.488   4.614  15.235 -0.4340 -0.4766 -0.0630
10544TIP3    H153123   4.451   4.558  15.166 -0.2223 -0.8910  0.1547
10544TIP3    H253124   4.419   4.678  15.254 -1.3166 -1.6431  0.7998
10545TIP3   OH253125   1.172   3.431   0.453  0.4132  0.0116  0.3061
10545TIP3    H153126   1.079   3.440   0.475  0.1231  0.8394 -1.1930
10545TIP3    H253127   1.198   3.518   0.423  0.8339 -1.0221 -2.4453
10546TIP3   OH253128   5.854   4.145  12.321  0.4801 -0.0830  0.0369
10546TIP3    H153129   5.850   4.226  12.271  2.3395 -0.5976 -0.9684
10546TIP3    H253130   5.837   4.172  12.412 -0.6308  1.1599 -0.5248
10547TIP3   OH253131   0.406   1.590  15.644  0.0010  0.4651 -0.1127
10547TIP3    H153132   0.464   1.596  15.721 -0.7855 -1.2674  0.6370
10547TIP3    H253133   0.335   1.652  15.663 -0.1687  0.0753  0.5531
10548TIP3   OH253134   6.021   1.972   3.754 -0.3640  0.4000  0.1252
10548TIP3    H153135   5.982   1.956   3.668 -2.7644 -0.4672  1.3181
10548TIP3    H253136   6.014   1.888   3.799  1.5720  0.6353  0.9234
10549TIP3   OH253137   0.216   0.801  17.105 -0.7048  0.6349  0.5587
10549TIP3    H153138   0.251   0.735  17.165 -0.8828  0.0969  0.0739
10549TIP3    H253139   0.271   0.878  17.119  0.5728 -0.1558 -0.0959
10550TIP3   OH253140   3.101   1.297   0.005  0.0365  0.1920  0.6021
10550TIP3    H153141   3.124   1.207   0.028 -0.3550 -0.1726 -0.4024
10550TIP3    H253142   3.058   1.332   0.083 -3.8671 -1.9468 -0.4424
10551TIP3   OH253143   3.386   0.851  12.031  0.0863  0.2831 -0.1856
10551TIP3    H153144   3.294   0.863  12.054  0.3246  0.2043  0.8099
10551TIP3    H253145   3.408   0.764  12.064  0.1980 -0.2070 -1.4916
10552TIP3   OH253146   0.851   4.327  11.779  0.0005 -0.7081  0.2076
10552TIP3    H153147   0.920   4.282  11.729  0.0342 -0.0698 -0.3270
10552TIP3    H253148   0.782   4.343  11.715 -0.4907 -1.0110  0.6598
10553TIP3   OH253149   0.000   2.613   6.309  0.4650  0.4062  0.2417
10553TIP3    H153150   0.075   2.554   6.299 -0.6792 -1.4440  2.3066
10553TIP3    H253151  -0.003   2.632   6.402 -0.9721  1.3919  0.0015
10554TIP3   OH253152   3.278   2.802  17.064  0.3769 -0.1911 -0.3868
10554TIP3    H153153   3.223   2.725  17.074 -1.1523  0.7798 -1.0815
10554TIP3    H253154   3.361   2.779  17.105  0.4064 -2.6796 -1.7753
10555TIP3   OH253155   5.970   5.823   2.572  0.2443  0.0640  0.4702
10555TIP3    H153156   5.997   5.842   2.483  0.2957 -1.1518  0.2159
10555TIP3    H253157   5.888   5.774   2.563 -1.1429  2.1804  1.1737
10556TIP3   OH253158   3.854   4.189   3.215 -0.5089 -0.5303 -0.1477
10556TIP3    H153159   3.906   4.118   3.253 -1.9161 -1.3917  0.1816
10556TIP3    H253160   3.873   4.185   3.121  0.4993 -0.4406  0.0469
10557TIP3   OH253161   2.827   5.990  10.975  0.2412  0.4336  0.6090
10557TIP3    H153162   2.743   5.950  10.951 -0.2365  0.7309  1.7251
10557TIP3    H253163   2.854   5.942  11.054  1.9173 -0.7348 -0.6555
10558TIP3   OH253164   0.391   3.129   1.277 -0.2500 -0.1458  0.3821
10558TIP3    H153165   0.422   3.211   1.315  0.3801 -0.9894  1.7047
10558TIP3    H253166   0.361   3.154   1.189  1.7583  1.1569  0.0206
10559TIP3   OH253167   1.114   3.447  11.980  0.3659  0.3631 -0.1575
10559TIP3    H153168   1.028   3.482  11.958 -0.0798 -1.2600 -1.1152
10559TIP3    H253169   1.099   3.397  12.061  0.4334  0.2086 -0.2405
10560TIP3   OH253170   4.543   4.530   5.234  0.3621  0.6349  0.9508
10560TIP3    H153171   4.482   4.457   5.243  0.7885  0.0427 -0.7219
10560TIP3    H253172   4.517   4.592   5.302 -0.5608 -0.6817  1.8242
10561TIP3   OH253173   6.359   2.801  12.996 -0.1249 -0.1797 -0.6175
10561TIP3    H153174   6.305   2.822  12.919  1.5977 -0.3945 -1.9075
10561TIP3    H253175   6.369   2.885  13.041 -0.8132  0.0211 -0.8220
10562TIP3   OH253176   6.201   5.594  12.630  0.4620  0.3576  0.2849
10562TIP3    H153177   6.227   5.620  12.542  1.3286  0.0979  0.4583
10562TIP3    H253178   6.219   5.670  12.684  0.7922  0.2023  0.3935
10563TIP3   OH253179   5.936   4.994   4.110  0.3795 -0.8841  0.0093
10563TIP3    H153180   5.877   5.017   4.039 -1.4627  0.9330  2.0649
10563TIP3    H253181   5.911   4.905   4.134 -1.4094 -0.2207  0.6998
10564TIP3   OH253182   5.005   1.694   3.847  0.1784  0.4726 -0.0632
10564TIP3    H153183   4.976   1.763   3.906 -1.1200 -0.6129  0.5894
10564TIP3    H253184   5.053   1.633   3.903  1.7256  1.0461 -0.7169
10565TIP3   OH253185   0.997   6.587   4.791 -0.0173  0.2317  0.3667
10565TIP3    H153186   0.959   6.632   4.716 -0.4171  0.7420  0.8714
10565TIP3    H253187   0.931   6.594   4.860  0.4017 -0.1129  0.8132
10566TIP3   OH253188   5.479   1.296  14.987 -0.1217  0.3976  0.0781
10566TIP3    H153189   5.465   1.329  14.898 -1.4748  0.1689  0.1895
10566TIP3    H253190   5.493   1.202  14.975 -1.2097  0.2148  0.1687
10567TIP3   OH253191   6.800   6.743   6.482 -0.5698 -0.7858 -0.8367
10567TIP3    H153192   6.800   6.664   6.535 -0.0356 -0.1627  0.1183
10567TIP3    H253193   6.858   6.804   6.530  0.8857 -0.6246 -2.7481
10568TIP3   OH253194   2.195   3.332  17.104 -0.0420 -0.2547 -0.3663
10568TIP3    H153195   2.123   3.395  17.098 -1.1206 -1.4853 -0.5854
10568TIP3    H253196   2.152   3.248  17.120  1.3752 -0.9481 -0.1192
10569TIP3   OH253197   0.681   6.257  13.303 -0.1035  0.0828  0.0623
10569TIP3    H153198   0.657   6.253  13.396 -0.4512  1.2948  0.0428
10569TIP3    H253199   0.753   6.195  13.294 -0.0928 -0.0734  1.1395
10570TIP3   OH253200   1.041   1.747  17.243  0.0236 -0.2369 -0.0679
10570TIP3    H153201   0.970   1.801  17.208  0.5979 -0.2337 -1.2617
10570TIP3    H253202   1.005   1.659  17.246 -1.0470  0.2324  2.2438
10571TIP3   OH253203   2.511   5.499   1.169 -0.3786 -0.1882  0.2943
10571TIP3    H153204   2.417   5.516   1.156 -0.6413 -1.1280  0.9267
10571TIP3    H253205   2.515   5.448   1.249  0.6537 -0.4849  0.0591
10572TIP3   OH253206   2.194   1.153   0.048 -0.1258 -0.6761 -0.0423
10572TIP3    H153207   2.244   1.078   0.080 -0.1768 -0.7732 -0.1912
10572TIP3    H253208   2.154   1.191   0.127 -0.1368 -0.8305  0.0261
10573TIP3   OH253209   4.808   2.008   1.818 -0.4681 -0.3690  0.0257
10573TIP3    H153210   4.854   1.960   1.750 -0.3778  0.0155 -0.1825
10573TIP3    H253211   4.871   2.072   1.849  0.4628 -2.3207  2.3746
10574TIP3   OH253212   6.802   6.224  15.280  0.1328  0.2723  0.2869
10574TIP3    H153213   6.736   6.294  15.291  0.5585  0.8014 -0.4631
10574TIP3    H253214   6.792   6.170  15.358 -1.4362  0.1469  0.0219
10575TIP3   OH253215   6.353   4.824   1.039 -0.4260  0.0018 -0.5690
10575TIP3    H153216   6.307   4.906   1.056 -1.3122 -0.7463  0.6727
10575TIP3    H253217   6.445   4.850   1.029 -0.7242  1.1648 -0.3617
10576TIP3   OH253218   4.171   4.071  15.758  0.0626 -0.3263  0.2064
10576TIP3    H153219   4.218   4.050  15.677 -1.4374  0.3024 -0.8334
10576TIP3    H253220   4.086   4.029  15.749 -1.8187  3.3505 -0.5409
10577TIP3   OH253221   0.045   6.018   0.785  0.4297  0.1934 -0.0625
10577TIP3    H153222   0.061   6.111   0.804  1.7843  0.0346 -0.3390
10577TIP3    H253223   0.054   5.974   0.869  1.4343  0.1204 -0.1958
10578TIP3   OH253224   0.031   1.935  15.803 -0.7000  0.5751 -0.2376
10578TIP3    H153225   0.037   1.936  15.898 -0.6999 -0.9987 -0.2072
10578TIP3    H253226   0.120   1.947  15.772 -0.5891  0.3279 -0.0169
10579TIP3   OH253227   4.588   5.550  15.701 -0.2140 -0.4348 -0.2279
10579TIP3    H153228   4.602   5.637  15.666  0.6338 -0.2590  0.5154
10579TIP3    H253229   4.511   5.558  15.757  0.1851 -0.0261  0.2708
10580TIP3   OH253230   6.346   1.004  15.749 -0.3570  0.3503 -0.2263
10580TIP3    H153231   6.411   1.042  15.808  0.2675  1.6393 -1.7022
10580TIP3    H253232   6.264   1.008  15.799  0.3063  0.6341  0.8693
10581TIP3   OH253233   4.195   6.272   0.403  0.1687 -0.3444  0.4862
10581TIP3    H153234   4.202   6.202   0.468  0.0400 -1.7291 -0.9525
10581TIP3    H253235   4.150   6.232   0.329  1.6256  0.7562 -1.0579
10582TIP3   OH253236   5.765   5.955  13.984 -0.5812  0.0233  0.4621
10582TIP3    H153237   5.716   6.012  14.043 -1.0043  0.9304 -0.7314
10582TIP3    H253238   5.845   6.005  13.964 -0.8041  0.0704 -0.3356
10583TIP3   OH253239   4.355   6.164   4.662 -0.4167 -0.2659 -0.7597
10583TIP3    H153240   4.265   6.164   4.696 -0.2240 -1.4018 -0.2273
10583TIP3    H253241   4.404   6.114   4.726  0.5131 -0.0601 -1.3071
10584TIP3   OH253242   1.168   1.397   2.844  0.1352 -0.1722 -0.3091
10584TIP3    H153243   1.258   1.423   2.865  0.9019 -1.0509 -2.3327
10584TIP3    H253244   1.168   1.302   2.851 -0.0275 -0.3570 -2.4168
10585TIP3   OH253245   0.453   6.324   1.178 -0.0897 -0.5397  0.4212
10585TIP3    H153246   0.518   6.254   1.171  0.1775 -0.2198 -0.3425
10585TIP3    H253247   0.393   6.308   1.105 -0.5673 -0.5166  0.8022
10586TIP3   OH253248   2.970   6.820   0.009  0.1767  0.2362 -0.2753
10586TIP3    H153249   2.923   6.898  -0.022  0.8672  0.3043 -1.1494
10586TIP3    H253250   2.922   6.794   0.088 -0.6820  0.9434 -0.5479
10587TIP3   OH253251   5.452   1.912  16.697 -0.3636  0.1565  0.0309
10587TIP3    H153252   5.382   1.883  16.640 -0.2543  1.5178 -0.8100
10587TIP3    H253253   5.464   1.839  16.759 -2.5722 -0.0466  0.2659
10588TIP3   OH253254   5.738   6.212  14.880 -0.2690  0.4827 -0.0225
10588TIP3    H153255   5.684   6.137  14.855 -1.2485  1.6603 -1.4556
10588TIP3    H253256   5.682   6.264  14.937  0.3407  0.2502  0.8024
10589TIP3   OH253257   4.232   2.230  14.179  0.4050  0.6958  0.4267
10589TIP3    H153258   4.277   2.290  14.238  3.4905  0.2200 -1.3291
10589TIP3    H253259   4.245   2.144  14.217 -0.9406  0.7612  1.0595
10590TIP3   OH253260   0.459   1.422  16.951  0.4317  0.1723  0.2994
10590TIP3    H153261   0.386   1.481  16.931  0.9904  1.1310  1.0456
10590TIP3    H253262   0.429   1.371  17.026  0.3982  0.3209  0.3869
10591TIP3   OH253263   1.240   4.331  10.965 -0.1266  0.2164  0.1945
10591TIP3    H153264   1.165   4.277  10.989 -1.2888  0.4607 -2.6771
10591TIP3    H253265   1.209   4.421  10.973  0.6803  0.3940  1.4734
10592TIP3   OH253266   3.075   6.035   1.032 -0.2495 -0.0850  0.0004
10592TIP3    H153267   3.139   6.061   0.965  0.1035  0.4910  0.5543
10592TIP3    H253268   3.126   6.032   1.113 -1.2214  1.8292  0.7173
10593TIP3   OH253269   4.879   5.973  13.452  0.0812  0.4480 -0.0834
10593TIP3    H153270   4.846   5.980  13.542 -0.7347 -0.5481 -0.3014
10593TIP3    H253271   4.933   6.052  13.440  1.0894  0.0506  1.6518
10594TIP3   OH253272   5.385   1.154   4.288 -0.2678  0.6448 -0.4342
10594TIP3    H153273   5.384   1.240   4.330 -0.6516 -0.5762  2.1863
10594TIP3    H253274   5.328   1.100   4.343  0.9333 -1.5939 -1.3216
10595TIP3   OH253275   1.528   3.496  13.845  0.7417  0.1512  0.1096
10595TIP3    H153276   1.437   3.499  13.874  0.2335 -0.9766 -1.3186
10595TIP3    H253277   1.573   3.445  13.912 -0.1931 -1.4784 -0.4803
10596TIP3   OH253278   4.971   3.731  16.949 -0.0329  0.4272  0.2778
10596TIP3    H153279   5.064   3.755  16.952  0.0728 -0.1196  1.7310
10596TIP3    H253280   4.943   3.733  17.040 -0.6829 -2.4107  0.1794
10597TIP3   OH253281   4.965   1.861  12.353  0.5368  0.3220  0.6736
10597TIP3    H153282   4.985   1.820  12.269  2.3805 -1.3002  1.8556
10597TIP3    H253283   5.038   1.922  12.367  0.2866  0.5139  1.1382
10598TIP3   OH253284   6.176   0.975   5.781 -0.4849  0.6319 -0.1442
10598TIP3    H153285   6.252   0.934   5.822 -1.4503 -0.7908  0.2694
10598TIP3    H253286   6.158   1.052   5.834 -1.6811 -1.1424  2.0972
10599TIP3   OH253287   5.095   5.988   1.480  0.0450 -0.3349  0.0362
10599TIP3    H153288   5.173   6.041   1.498 -0.8323  1.3435 -0.9381
10599TIP3    H253289   5.045   5.992   1.562 -0.5853  1.3842 -0.4071
10600TIP3   OH253290   1.369   6.466   4.885 -0.5526 -0.0805  0.2375
10600TIP3    H153291   1.389   6.381   4.924  0.1779 -0.8485 -1.7388
10600TIP3    H253292   1.328   6.445   4.801  0.1013  1.5225 -0.5067
10601TIP3   OH253293   3.739   6.489  16.543  0.1141  0.7295 -0.0857
10601TIP3    H153294   3.726   6.510  16.451 -0.0242  1.2558  0.0522
10601TIP3    H253295   3.651   6.466  16.575  0.3440 -0.5319 -0.3487
10602TIP3   OH253296   2.716   6.808  14.780 -0.6243 -0.0256 -0.0761
10602TIP3    H153297   2.660   6.812  14.857  0.0726  0.0563  0.4261
10602TIP3    H253298   2.805   6.804  14.814 -0.1632  2.4315 -0.8728
10603TIP3   OH253299   1.339   3.583   3.419 -0.5023 -0.5006  0.2033
10603TIP3    H153300   1.355   3.503   3.469  3.3069 -1.2249 -1.9532
10603TIP3    H253301   1.377   3.652   3.473  0.7165 -0.8436 -0.2024
10604TIP3   OH253302   3.531   5.908   3.297  0.2039  0.0219 -0.0909
10604TIP3    H153303   3.568   5.834   3.344  1.1535  0.6330  0.1413
10604TIP3    H253304   3.585   5.918   3.219  0.7653  1.1329  0.4259
10605TIP3   OH253305   2.384   6.458  13.237 -0.3687  0.2011  0.4331
10605TIP3    H153306   2.385   6.409  13.155 -0.2619  2.2357 -0.8263
10605TIP3    H253307   2.474   6.489  13.248 -0.4094  0.0414  1.2773
10606TIP3   OH253308   1.658   3.299   1.727 -0.4209  0.2205  0.6317
10606TIP3    H153309   1.595   3.245   1.775  0.1050 -0.4580  0.5731
10606TIP3    H253310   1.730   3.313   1.789 -1.6280  2.9151  1.4916
10607TIP3   OH253311   4.238   1.584  13.381  0.0382 -0.0500 -0.3899
10607TIP3    H153312   4.168   1.586  13.446  0.1496 -0.3944 -0.2566
10607TIP3    H253313   4.279   1.498  13.393 -0.0014 -0.1516 -0.9727
10608TIP3   OH253314   5.024   3.275   3.092 -0.0392 -0.6772 -0.0758
10608TIP3    H153315   5.118   3.279   3.106 -0.0567  0.4056 -0.2606
10608TIP3    H253316   5.014   3.262   2.998 -0.0476 -2.5732  0.1591
10609TIP3   OH253317   5.784   2.228  15.135 -0.0375  0.3714 -0.0399
10609TIP3    H153318   5.857   2.175  15.166 -0.4840  0.8731  1.9197
10609TIP3    H253319   5.824   2.309  15.105  0.1961  0.7822  1.3466
10610TIP3   OH253320   2.243   4.941  14.046 -0.3695 -0.0649  0.6116
10610TIP3    H153321   2.252   5.015  13.986  1.2581 -1.5504 -1.0521
10610TIP3    H253322   2.311   4.954  14.111 -1.5284  1.0562  1.6110
10611TIP3   OH253323   5.633   6.287  15.151  0.2964  0.0890  0.2392
10611TIP3    H153324   5.722   6.290  15.186  0.4271 -1.6375  0.1281
10611TIP3    H253325   5.580   6.333  15.216  1.1551  0.4302  0.7063
10612TIP3   OH253326   1.132   6.732   2.185 -0.7139  0.2710  0.2552
10612TIP3    H153327   1.043   6.698   2.172 -0.3040 -1.5769  2.0712
10612TIP3    H253328   1.124   6.795   2.256 -0.4190 -0.6281  1.0956
10613TIP3   OH253329   6.146   2.819   3.697  0.2605 -0.3455 -0.1497
10613TIP3    H153330   6.190   2.740   3.728  2.5286  0.7085 -0.6149
10613TIP3    H253331   6.184   2.890   3.749 -1.5317  0.4932  0.0516
10614TIP3   OH253332   3.436   5.088   1.133  0.9755 -0.0930 -0.6037
10614TIP3    H153333   3.462   5.065   1.222 -1.3248 -0.5073 -0.0033
10614TIP3    H253334   3.487   5.030   1.077  3.2867  0.9356  0.3451
10615TIP3   OH253335   6.062   1.536   0.188 -0.5287 -0.1707 -0.0842
10615TIP3    H153336   6.067   1.555   0.282  1.4109  0.1414 -0.2124
10615TIP3    H253337   6.050   1.442   0.183  1.5444 -0.5092  0.4986
10616TIP3   OH253338   5.941   6.764  13.388 -0.3409  0.2889 -0.3235
10616TIP3    H153339   5.938   6.676  13.350 -0.4644  0.5375 -0.9011
10616TIP3    H253340   5.938   6.823  13.312  2.3415  0.7662 -0.1338
10617TIP3   OH253341   5.811   4.968   5.779 -0.1495  0.0090 -0.4043
10617TIP3    H153342   5.887   4.945   5.726  0.0411 -1.2503  0.4033
10617TIP3    H253343   5.833   5.053   5.818  0.0101  0.5919 -1.7385
10618TIP3   OH253344   3.000   3.278  11.567 -0.1945  0.6072  0.0458
10618TIP3    H153345   2.983   3.334  11.492  0.3497 -0.0443 -0.5783
10618TIP3    H253346   2.921   3.225  11.576  0.2985 -0.3324 -0.9893
10619TIP3   OH253347   4.972   6.552   1.698  0.2915 -0.1252  0.0925
10619TIP3    H153348   4.904   6.512   1.644  1.3256 -0.7244 -0.8011
10619TIP3    H253349   5.037   6.482   1.711  0.6602  0.3803  1.0706
10620TIP3   OH253350   6.162   1.723   6.566 -0.1143  0.0270 -0.7434
10620TIP3    H153351   6.090   1.675   6.607  0.4368  1.2383  1.7631
10620TIP3    H253352   6.241   1.688   6.607  0.5981  0.1378 -1.9877
10621TIP3   OH253353   3.477   3.030  11.739 -0.3414 -0.0877 -0.6263
10621TIP3    H153354   3.439   3.115  11.763  0.4257  0.0560  0.1175
10621TIP3    H253355   3.403   2.971  11.734 -0.8392  0.5348 -0.7187
10622TIP3   OH253356   3.745   4.362  15.373  0.0332 -0.2278 -0.3521
10622TIP3    H153357   3.762   4.445  15.327 -0.5086  0.2752  0.3519
10622TIP3    H253358   3.720   4.302  15.303  1.2174 -0.0321 -0.9763
10623TIP3   OH253359   4.832   1.370  13.611  0.3082  0.4302 -0.3228
10623TIP3    H153360   4.757   1.331  13.565  0.4465 -0.2744  0.0386
10623TIP3    H253361   4.881   1.416  13.542  1.2458 -1.7421 -1.1610
10624TIP3   OH253362   4.945   5.311   3.716 -0.2333  0.6944 -0.0641
10624TIP3    H153363   4.884   5.320   3.788  0.2828  0.6298  0.3860
10624TIP3    H253364   4.979   5.400   3.703 -1.3203  0.9674 -1.1175
10625TIP3   OH253365   6.722   3.316  13.898  0.2725  0.8269 -0.2729
10625TIP3    H153366   6.646   3.373  13.901 -0.5068 -0.0477 -2.2121
10625TIP3    H253367   6.780   3.356  13.833 -1.0373 -1.4089 -2.9201
10626TIP3   OH253368   1.206   3.476   4.167  0.3461  0.0110  0.6651
10626TIP3    H153369   1.166   3.555   4.130 -0.1019 -0.5842 -0.1441
10626TIP3    H253370   1.166   3.467   4.253 -0.5603 -0.0441  0.2417
10627TIP3   OH253371   0.224   2.357   1.553  0.4335 -0.2839 -0.0738
10627TIP3    H153372   0.220   2.261   1.553 -1.4312 -0.2858 -2.9716
10627TIP3    H253373   0.259   2.379   1.467 -0.4473  1.6669  0.0377
10628TIP3   OH253374   0.813   2.163  12.463 -0.2059 -0.2578  0.2203
10628TIP3    H153375   0.846   2.116  12.386  0.2067 -0.8605  0.7653
10628TIP3    H253376   0.748   2.223  12.427  0.1922 -0.3286 -0.6432
10629TIP3   OH253377   2.818   6.437  14.188  0.4021  0.2253  0.4784
10629TIP3    H153378   2.852   6.526  14.193 -0.8670  0.7063  0.7487
10629TIP3    H253379   2.747   6.435  14.252 -0.0500 -0.7679 -0.0416
10630TIP3   OH253380   0.988   6.187   0.867 -0.3685  0.5565  0.1171
10630TIP3    H153381   0.969   6.138   0.787  0.5703 -0.7278  0.6474
10630TIP3    H253382   0.980   6.122   0.937 -1.6119  1.7587  1.1218
10631TIP3   OH253383   4.571   5.204  14.729  0.4232  0.2033  0.0689
10631TIP3    H153384   4.530   5.174  14.811  0.3751 -1.6549 -0.6147
10631TIP3    H253385   4.521   5.281  14.704  0.1069  0.4819  1.5298
10632TIP3   OH253386   5.645   3.256   2.215  0.0896  0.2500 -0.1722
10632TIP3    H153387   5.689   3.284   2.135 -1.2943 -0.9969 -1.4097
10632TIP3    H253388   5.716   3.239   2.277  1.2208  0.5332 -1.3796
10633TIP3   OH253389   4.655   4.307  14.395 -0.0328 -0.2994 -0.1178
10633TIP3    H153390   4.622   4.298  14.305 -0.0769  0.1837 -0.1526
10633TIP3    H253391   4.715   4.233  14.406 -0.4485 -0.6803 -0.3545
10634TIP3   OH253392   6.029   2.618  11.422 -0.1524 -0.1300  0.0391
10634TIP3    H153393   5.948   2.665  11.404  0.2160  0.5082  0.0599
10634TIP3    H253394   6.096   2.666  11.375  0.5288  0.5039  1.6332
10635TIP3   OH253395   0.892   0.812   4.864 -0.0969  0.1998  0.1220
10635TIP3    H153396   0.878   0.776   4.952  0.0387  2.4147  1.0812
10635TIP3    H253397   0.976   0.776   4.836 -0.2131 -0.6320  0.8351
10636TIP3   OH253398   6.080   1.037  15.901  0.1652 -0.1238 -0.3136
10636TIP3    H153399   6.051   1.104  15.839  1.9338  0.1100 -0.9033
10636TIP3    H253400   6.058   1.073  15.987  3.5771  2.4828 -0.4451
10637TIP3   OH253401   2.083   4.317   1.547 -0.1201  0.2914 -0.0548
10637TIP3    H153402   2.106   4.315   1.454 -0.5459 -0.7806 -0.1431
10637TIP3    H253403   2.008   4.376   1.551  1.1124  1.8890 -0.1031
10638TIP3   OH253404   3.871   3.935   1.677 -0.0122 -0.6640  0.2402
10638TIP3    H153405   3.960   3.914   1.649  0.3590 -0.4581  1.2576
10638TIP3    H253406   3.845   3.860   1.731  0.2897  0.1925  1.5954
10639TIP3   OH253407   3.003   5.606   5.518  0.0682  0.6302 -0.2910
10639TIP3    H153408   2.931   5.563   5.564 -0.5812  1.8326 -0.1380
10639TIP3    H253409   2.964   5.631   5.433  1.5278 -2.4579 -1.9409
10640TIP3   OH253410   5.974   1.753  13.019 -0.3724 -0.0585  0.2593
10640TIP3    H153411   5.902   1.709  13.064 -0.8016  2.4613  2.1607
10640TIP3    H253412   6.053   1.724  13.065 -0.4779 -0.2195  0.3396
10641TIP3   OH253413   4.762   0.508  15.717 -0.0673  0.4003  0.2671
10641TIP3    H153414   4.729   0.479  15.802  0.3883  0.6407  0.5319
10641TIP3    H253415   4.851   0.538  15.735  0.2160 -0.0224 -0.3935
10642TIP3   OH253416   6.638   2.211   1.383  0.5846  0.2650  0.6648
10642TIP3    H153417   6.642   2.248   1.295  1.2513 -1.9932 -0.2985
10642TIP3    H253418   6.545   2.194   1.398  0.6031 -0.6183 -0.1669
10643TIP3   OH253419   1.389   3.425   5.051  0.5343  0.2536 -0.0834
10643TIP3    H153420   1.356   3.485   4.983 -2.1592  0.2419  1.1329
10643TIP3    H253421   1.449   3.368   5.004 -0.1071  1.2127 -2.1776
10644TIP3   OH253422   2.036   4.641  14.325  0.0704  0.0485  0.3627
10644TIP3    H153423   2.118   4.637  14.373  0.2124 -0.6674  0.0705
10644TIP3    H253424   1.994   4.721  14.355  0.9588  0.5117  0.3730
10645TIP3   OH253425   2.630   4.098  16.568  0.1314 -0.0145  0.5859
10645TIP3    H153426   2.565   4.139  16.511 -0.5232 -1.2245  0.4432
10645TIP3    H253427   2.689   4.169  16.593 -0.7143  0.9096 -0.0288
10646TIP3   OH253428   2.404   4.321  15.321  0.3263  0.0372 -0.1084
10646TIP3    H153429   2.390   4.260  15.392  1.2087  1.0067  0.9173
10646TIP3    H253430   2.395   4.408  15.361  2.9964  0.6243 -0.6792
10647TIP3   OH253431   4.188   1.650  17.066  0.0537  0.0672 -0.3781
10647TIP3    H153432   4.198   1.560  17.034  0.0310  0.0476 -0.3310
10647TIP3    H253433   4.110   1.647  17.122 -0.6013  0.3706 -1.2750
10648TIP3   OH253434   1.755   4.932  13.069  0.1294  0.4633  0.1830
10648TIP3    H153435   1.750   5.016  13.115 -1.3372  0.0005  0.8993
10648TIP3    H253436   1.737   4.866  13.136  3.2279 -0.5886  0.0686
10649TIP3   OH253437   4.980   0.994   4.451  0.0830 -0.2616 -0.4702
10649TIP3    H153438   4.918   0.925   4.427 -1.2755  1.0344 -0.7125
10649TIP3    H253439   4.970   1.061   4.383 -0.2710  1.2146  1.0143
10650TIP3   OH253440   5.951   0.167  11.397 -0.7730 -0.0974 -0.5704
10650TIP3    H153441   5.914   0.212  11.322 -0.8354  0.0595 -0.4452
10650TIP3    H253442   6.002   0.233  11.443 -1.3554  0.0018 -0.0573
10651TIP3   OH253443   6.651   5.499   4.017  0.1955 -0.3585  0.2510
10651TIP3    H153444   6.657   5.403   4.018 -2.0466 -0.5259  0.9705
10651TIP3    H253445   6.711   5.527   4.086 -0.2872 -1.3411  1.0861
10652TIP3   OH253446   0.610   5.163   0.874  0.6759  0.0136  0.1600
10652TIP3    H153447   0.522   5.193   0.899  0.4723 -1.3282  1.1765
10652TIP3    H253448   0.641   5.115   0.952  2.3096  0.4872 -0.1893
10653TIP3   OH253449   4.260   4.842  12.103 -0.0289 -0.1139  0.1611
10653TIP3    H153450   4.291   4.924  12.066  0.3137  1.0716  2.9974
10653TIP3    H253451   4.165   4.842  12.086  0.5065 -0.9474 -3.1776
10654TIP3   OH253452   0.768   1.885  11.293 -0.5972 -0.6770  0.3231
10654TIP3    H153453   0.815   1.896  11.376 -0.1228 -1.9696  0.2330
10654TIP3    H253454   0.818   1.818  11.246 -1.8165 -1.1612 -0.2931
10655TIP3   OH253455   2.173   2.614  16.567  0.0476 -0.3185 -0.0758
10655TIP3    H153456   2.108   2.608  16.497  1.0643 -0.4237 -1.0243
10655TIP3    H253457   2.223   2.693  16.546  0.0292 -0.0587  0.8253
10656TIP3   OH253458   2.748   1.228  13.611  0.3006  0.2778 -0.4890
10656TIP3    H153459   2.752   1.239  13.516  0.2179 -0.3058 -0.5590
10656TIP3    H253460   2.762   1.316  13.646 -0.1061  0.5659 -1.0520
10657TIP3   OH253461   0.733   5.904   1.127 -0.2099  0.4267 -0.4824
10657TIP3    H153462   0.735   5.848   1.050  0.5131  0.3117 -0.3804
10657TIP3    H253463   0.751   5.846   1.201 -2.3314  0.2657 -0.0533
10658TIP3   OH253464   3.445   4.557  15.298 -0.4042  0.4065 -0.3849
10658TIP3    H153465   3.400   4.587  15.377 -1.0506  2.3898 -1.4636
10658TIP3    H253466   3.462   4.464  15.314 -3.0201  0.1002  0.9105
10659TIP3   OH253467   1.456   2.787  16.411 -0.2882 -0.3583  0.0012
10659TIP3    H153468   1.442   2.881  16.404 -0.6099 -0.2917  1.4824
10659TIP3    H253469   1.469   2.771  16.504 -2.7751 -2.1257  0.0919
10660TIP3   OH253470   5.981   0.770   0.740  0.4658  0.0476  0.9091
10660TIP3    H153471   5.910   0.797   0.681  0.1740 -0.4775  1.0152
10660TIP3    H253472   6.061   0.782   0.689  0.3130  0.7401  0.8209
10661TIP3   OH253473   3.577   4.448   2.987  0.4182  0.5447 -0.2605
10661TIP3    H153474   3.525   4.478   3.062 -1.2035 -0.0498 -1.0967
10661TIP3    H253475   3.665   4.434   3.022 -0.6865 -1.3215  1.9677
10662TIP3   OH253476   2.675   5.272   2.437 -0.3707  0.1462  0.7858
10662TIP3    H153477   2.645   5.360   2.458  0.3709  1.2284 -2.3719
10662TIP3    H253478   2.770   5.276   2.447 -0.2092  0.1013 -0.6419
10663TIP3   OH253479   3.963   3.873  16.068  0.3217 -0.1369  0.1031
10663TIP3    H153480   3.876   3.834  16.053  0.0456  0.6226 -0.3077
10663TIP3    H253481   3.958   3.908  16.157  0.9301 -1.9597  0.8750
10664TIP3   OH253482   6.213   3.695   3.421 -0.0709  0.2994  0.5070
10664TIP3    H153483   6.249   3.775   3.383  0.5036 -0.1521  0.0705
10664TIP3    H253484   6.273   3.673   3.492  0.2923 -0.2275  0.0475
10665TIP3   OH253485   6.708   0.839   2.338 -0.2090  0.2596 -0.3656
10665TIP3    H153486   6.687   0.914   2.393  0.3832  1.1118 -1.2893
10665TIP3    H253487   6.655   0.852   2.259 -0.6423 -0.6639 -0.2370
10666TIP3   OH253488   2.245   6.768  16.482 -0.3030  0.3699 -0.0294
10666TIP3    H153489   2.195   6.768  16.564 -0.5099 -0.4606 -0.1479
10666TIP3    H253490   2.308   6.696  16.493 -1.8568 -1.2758 -1.4930
10667TIP3   OH253491   1.891   1.565   3.830 -0.5643 -0.4417 -0.0619
10667TIP3    H153492   1.797   1.573   3.848 -0.7080 -0.1702 -0.8698
10667TIP3    H253493   1.906   1.626   3.757  0.8717  1.9985  2.1937
10668TIP3   OH253494   1.270   5.067  13.145  0.3574  0.3625 -0.3549
10668TIP3    H153495   1.357   5.033  13.121  1.2956  2.0494  0.5941
10668TIP3    H253496   1.276   5.161  13.132 -1.0173  0.6133  0.6825
10669TIP3   OH253497   2.484   1.514  17.261  0.1994  0.4415  0.3006
10669TIP3    H153498   2.397   1.499  17.225  1.1728 -0.6395 -1.6752
10669TIP3    H253499   2.519   1.587  17.210  1.0844 -0.2266 -0.0545
10670TIP3   OH253500   4.950   4.186  10.648 -0.1166  0.0333 -0.6400
10670TIP3    H153501   5.013   4.123  10.614 -0.2620  0.7029 -2.2089
10670TIP3    H253502   4.982   4.271  10.617  0.0457  0.7435  1.3864
10671TIP3   OH253503   5.532   4.413   0.601 -0.4383 -0.3419  0.1018
10671TIP3    H153504   5.603   4.349   0.612 -0.0164  0.1322  0.1884
10671TIP3    H253505   5.576   4.489   0.562 -0.6589  0.4254  1.3598
10672TIP3   OH253506   2.592   2.430  12.949 -0.2276  0.0064 -0.5152
10672TIP3    H153507   2.590   2.461  12.859  3.7929 -1.2918 -1.1796
10672TIP3    H253508   2.584   2.510  13.002  1.6577  1.3073 -2.1107
10673TIP3   OH253509   5.628   6.586   0.240  0.1522 -0.0185 -0.4633
10673TIP3    H153510   5.630   6.493   0.261 -1.4171  0.3569  1.4775
10673TIP3    H253511   5.623   6.630   0.325 -1.5746  1.7336 -1.4221
10674TIP3   OH253512   0.367   5.077  12.880 -0.0391  0.1909  0.0244
10674TIP3    H153513   0.386   5.001  12.936  1.7233  0.9307  0.4562
10674TIP3    H253514   0.419   5.061  12.800  0.2642  0.8885  0.0809
10675TIP3   OH253515   5.942   4.459  15.132 -0.1826 -0.3479  0.2463
10675TIP3    H153516   5.901   4.385  15.089  1.0105 -0.5509 -0.5881
10675TIP3    H253517   5.877   4.529  15.127 -1.2016 -1.2522  0.7880
10676TIP3   OH253518   1.199   1.328   5.248  0.1592 -0.0825  0.4264
10676TIP3    H153519   1.193   1.233   5.256 -1.0325  0.0947  1.8213
10676TIP3    H253520   1.150   1.362   5.323  0.2821  1.6355 -0.2444
10677TIP3   OH253521   1.570   0.145   6.496  0.1527  0.0587  0.5193
10677TIP3    H153522   1.579   0.062   6.448  0.0041 -0.9300  2.1716
10677TIP3    H253523   1.509   0.197   6.443  1.0484 -0.4728 -1.0603
10678TIP3   OH253524   2.090   2.644   1.579 -0.1471  0.4404  0.4958
10678TIP3    H153525   2.081   2.578   1.510 -0.6078  0.8813  0.1290
10678TIP3    H253526   2.111   2.594   1.658  1.1042 -0.0123 -0.1111
10679TIP3   OH253527   2.195   0.545   0.857 -0.2458  0.3564  0.1372
10679TIP3    H153528   2.231   0.461   0.884  0.1548  0.7061  0.7164
10679TIP3    H253529   2.108   0.548   0.896  0.1737  0.6834  1.0785
10680TIP3   OH253530   2.339   3.890  15.914  0.4995 -0.2252 -0.2558
10680TIP3    H153531   2.360   3.908  16.006 -0.6248 -2.2268  0.4151
10680TIP3    H253532   2.410   3.834  15.883  0.2957 -0.4794 -0.2703
10681TIP3   OH253533   2.755   6.429  11.470  0.6822 -0.1017  0.3155
10681TIP3    H153534   2.696   6.432  11.395  0.2890 -0.0696  0.6270
10681TIP3    H253535   2.731   6.505  11.522 -0.2033 -1.0728  1.3538
10682TIP3   OH253536   4.451   2.540  16.331  0.8092  0.2649  0.2330
10682TIP3    H153537   4.396   2.586  16.394  0.1163 -0.3717  0.0988
10682TIP3    H253538   4.391   2.515  16.260  0.9163 -1.9763  0.8980
10683TIP3   OH253539   1.555   0.369   1.913  0.9327 -0.3728 -0.6983
10683TIP3    H153540   1.464   0.340   1.922 -0.0135  2.4552 -0.8344
10683TIP3    H253541   1.565   0.392   1.821  2.0526 -1.3968 -0.8591
10684TIP3   OH253542   6.389   5.555  13.732 -0.0114  0.0328 -0.0210
10684TIP3    H153543   6.472   5.509  13.716 -0.2717  0.1349 -1.7988
10684TIP3    H253544   6.346   5.504  13.801  0.8816 -0.8793 -0.1234
10685TIP3   OH253545   2.619   6.185   0.084 -0.2695  0.5628  0.2401
10685TIP3    H153546   2.674   6.151   0.154 -0.3176 -0.9388 -0.4201
10685TIP3    H253547   2.653   6.143   0.005 -1.1568  1.0797 -0.4276
10686TIP3   OH253548   5.765   2.261  12.566 -0.6395  0.6428  0.0372
10686TIP3    H153549   5.850   2.219  12.576 -0.6116  0.8425  0.6762
10686TIP3    H253550   5.702   2.190  12.583 -0.5948  0.6537  0.2543
10687TIP3   OH253551   5.559   1.573   3.566  0.3647  0.2697  0.4228
10687TIP3    H153552   5.647   1.610   3.563  1.1967 -1.6989 -0.9466
10687TIP3    H253553   5.550   1.538   3.654  0.9007  0.6037  0.6081
10688TIP3   OH253554   2.133   3.051  11.893 -0.5127  0.4508 -0.1517
10688TIP3    H153555   2.175   3.135  11.877  2.1575 -0.6312  0.7919
10688TIP3    H253556   2.113   3.051  11.987 -0.9249  0.2324 -0.2390
10689TIP3   OH253557   4.557   5.200   2.771  0.1380  0.8759 -0.0945
10689TIP3    H153558   4.647   5.201   2.740  0.4593  0.8397  0.7993
10689TIP3    H253559   4.564   5.225   2.864 -0.8651  1.8519 -0.2680
10690TIP3   OH253560   3.016   4.086   5.539  0.1644  0.3792 -0.3502
10690TIP3    H153561   3.021   4.080   5.443  0.6653  0.4757 -0.3275
10690TIP3    H253562   2.924   4.106   5.556  0.3187  1.6397 -0.8870
10691TIP3   OH253563   4.059   3.926  13.546 -0.1381 -0.0199  0.2334
10691TIP3    H153564   4.127   3.992  13.542  0.9365 -1.1426 -0.4268
10691TIP3    H253565   4.053   3.891  13.457  0.3687 -1.8389  0.8908
10692TIP3   OH253566   2.161   3.222   5.689 -0.1554 -0.2848 -0.3504
10692TIP3    H153567   2.214   3.238   5.767  0.0592 -0.6264 -0.4212
10692TIP3    H253568   2.078   3.266   5.706 -0.2947 -0.7916  0.2899
10693TIP3   OH253569   2.035   6.013   6.069 -0.0086  0.0920  0.0874
10693TIP3    H153570   2.056   6.046   5.982  0.4713 -1.1666 -0.2987
10693TIP3    H253571   2.101   6.051   6.126 -0.5527  1.2238 -0.0301
10694TIP3   OH253572   5.334   6.173  16.091 -0.2878 -0.6194 -0.1441
10694TIP3    H153573   5.381   6.231  16.151 -0.2603  0.1637 -0.9266
10694TIP3    H253574   5.247   6.212  16.082 -0.2748 -0.7047 -0.6594
10695TIP3   OH253575   1.937   4.016  16.296  0.2565  0.5556 -0.0917
10695TIP3    H153576   2.030   3.995  16.296  0.4227  1.1747  2.1122
10695TIP3    H253577   1.924   4.066  16.215  1.9385  0.8805 -0.1848
10696TIP3   OH253578   1.043   2.060   5.556 -0.2659  0.2611 -0.3369
10696TIP3    H153579   1.057   2.040   5.648  1.7070 -0.9307 -0.8379
10696TIP3    H253580   1.037   1.974   5.514  2.6747  0.6935 -1.7936
10697TIP3   OH253581   1.524   1.604   6.231  0.3067  0.4616  0.6672
10697TIP3    H153582   1.547   1.554   6.309 -1.7104 -0.3120  0.7900
10697TIP3    H253583   1.458   1.667   6.260  0.9759  1.5187 -0.0185
10698TIP3   OH253584   6.537   2.997   2.903  0.2474  0.3987  0.1553
10698TIP3    H153585   6.463   2.939   2.886  1.7089 -1.1550 -1.0490
10698TIP3    H253586   6.517   3.077   2.853  0.6563 -1.0447 -2.3587
10699TIP3   OH253587   6.625   3.730  15.432  0.0799  0.7014  0.1252
10699TIP3    H153588   6.695   3.702  15.374 -0.4477 -1.7442  0.6274
10699TIP3    H253589   6.668   3.745  15.516  0.0133 -0.9363  0.4702
10700TIP3   OH253590   0.256   2.244  12.033  0.0635  0.4354  0.5391
10700TIP3    H153591   0.339   2.211  12.066  0.9475  1.7689 -0.3275
10700TIP3    H253592   0.255   2.220  11.940  0.1738  1.7317  0.1858
10701TIP3   OH253593   0.617   1.135   1.215  0.3267 -0.7840  0.0469
10701TIP3    H153594   0.525   1.161   1.223  0.5161  0.2360 -1.0131
10701TIP3    H253595   0.615   1.039   1.217 -0.7065 -0.7601  0.5196
10702TIP3   OH253596   2.808   3.982  14.229  0.5370  0.2304  1.0108
10702TIP3    H153597   2.776   4.069  14.253 -1.3190  0.0575 -0.7950
10702TIP3    H253598   2.758   3.922  14.283  1.1677  0.2106  1.5866
10703TIP3   OH253599   3.111   6.124  11.601 -0.4212 -0.3833  0.4943
10703TIP3    H153600   3.170   6.053  11.577  0.4983  0.9602 -1.3882
10703TIP3    H253601   3.166   6.185  11.650 -0.6161  0.1501  0.0551
10704TIP3   OH253602   4.449   5.506   2.641 -0.3327 -0.4777 -0.0972
10704TIP3    H153603   4.521   5.477   2.584 -0.8621  0.3151 -1.2051
10704TIP3    H253604   4.419   5.427   2.685  1.6857 -0.7057  0.9152
10705TIP3   OH253605   4.938   1.734  10.896 -1.0069  0.1335  0.4062
10705TIP3    H153606   4.945   1.783  10.814 -3.1074  0.4143  0.3730
10705TIP3    H253607   4.947   1.801  10.964  1.4013 -0.1836  0.4652
10706TIP3   OH253608   1.945   0.066  11.937  0.2523  0.4876  0.1545
10706TIP3    H153609   2.015   0.013  11.899 -0.1620 -0.1015  0.2133
10706TIP3    H253610   1.924   0.131  11.869  2.1034  1.8340  0.8221
10707TIP3   OH253611   4.103   6.100  17.023 -0.1088  0.2840 -0.4349
10707TIP3    H153612   4.196   6.090  17.045 -0.1047 -1.3385 -1.1091
10707TIP3    H253613   4.074   6.011  17.003 -1.4324  0.9867 -1.6943
10708TIP3   OH253614   4.270   3.556  10.370 -0.0040  0.3334 -0.5290
10708TIP3    H153615   4.326   3.633  10.359  0.1069  0.3344  0.0585
10708TIP3    H253616   4.181   3.590  10.366  0.0461  0.6127  0.5907
10709TIP3   OH253617   3.656   3.833   2.782  0.4992 -0.4984 -0.3386
10709TIP3    H153618   3.621   3.829   2.693  0.2086 -2.0819 -0.1650
10709TIP3    H253619   3.747   3.803   2.773  1.0722  1.2310 -0.4027
10710TIP3   OH253620   6.110   6.106  16.163 -0.5316 -0.4417  0.2364
10710TIP3    H153621   6.202   6.093  16.139 -0.5318 -1.5300  0.8042
10710TIP3    H253622   6.062   6.048  16.104 -1.1119  2.1102 -1.9490
10711TIP3   OH253623   5.669   1.543   6.171 -0.5418 -0.3987 -0.5098
10711TIP3    H153624   5.761   1.562   6.187 -0.5595  0.1568 -1.0776
10711TIP3    H253625   5.645   1.597   6.096 -1.1279 -1.1186 -0.8527
10712TIP3   OH253626   0.145   4.868  16.601  0.2155  0.4398  0.2606
10712TIP3    H153627   0.078   4.936  16.595  1.1199  1.2854 -0.6712
10712TIP3    H253628   0.125   4.808  16.530 -0.4652 -0.1681  0.9567
10713TIP3   OH253629   2.924   0.405   3.808  0.2974 -0.0228  0.3281
10713TIP3    H153630   2.971   0.465   3.750  2.5820 -1.9652  0.1194
10713TIP3    H253631   2.868   0.354   3.750 -2.0307  2.1724  0.5584
10714TIP3   OH253632   0.267   4.133  11.489  0.0016  0.0910  0.0857
10714TIP3    H153633   0.172   4.140  11.498  0.0144 -1.6010  1.7970
10714TIP3    H253634   0.279   4.074  11.415 -0.2939  0.0549  0.0639
10715TIP3   OH253635   1.955   2.092   5.285 -0.2724  0.2136 -0.3439
10715TIP3    H153636   1.911   2.021   5.331 -0.6630  0.8199  0.2236
10715TIP3    H253637   1.887   2.158   5.272  0.1152  0.5296 -0.7859
10716TIP3   OH253638   2.181   6.010  14.623  0.2733  0.2425 -0.6061
10716TIP3    H153639   2.210   5.934  14.675  0.6219 -0.6124 -2.0228
10716TIP3    H253640   2.128   5.972  14.553  1.5616  1.1820 -2.1195
10717TIP3   OH253641   3.681   6.753   4.798 -0.0092 -0.2538  0.3221
10717TIP3    H153642   3.718   6.820   4.741  0.8093 -1.5934 -0.7526
10717TIP3    H253643   3.725   6.672   4.771  1.6717 -0.6708  3.9425
10718TIP3   OH253644   4.053   4.584   5.191 -0.1535  0.0137  0.0457
10718TIP3    H153645   3.981   4.598   5.130 -0.3243 -0.2358  0.1923
10718TIP3    H253646   4.015   4.534   5.263  0.2372 -0.3918 -0.0272
10719TIP3   OH253647   4.395   4.302  12.680 -0.5242  0.1024 -0.5402
10719TIP3    H153648   4.376   4.220  12.725 -0.1006  0.4151  0.2179
10719TIP3    H253649   4.458   4.278  12.613 -0.9957 -0.3304 -0.8316
10720TIP3   OH253650   1.560   1.951  16.670  0.1098  0.2099  0.8165
10720TIP3    H153651   1.494   2.020  16.676 -0.0065  0.1387  0.3943
10720TIP3    H253652   1.549   1.915  16.582  1.7858  1.2978  0.1227
10721TIP3   OH253653   5.373   1.481   5.153  0.0557 -0.0549 -0.1776
10721TIP3    H153654   5.354   1.532   5.231  0.2407  1.4633 -1.1044
10721TIP3    H253655   5.468   1.472   5.153  0.3393  2.4450 -1.7244
10722TIP3   OH253656   0.635   3.811  12.589 -0.2072  0.1090 -0.5127
10722TIP3    H153657   0.585   3.893  12.594  1.7333  1.2719  0.1771
10722TIP3    H253658   0.606   3.762  12.665  0.7738  1.4051  0.7128
10723TIP3   OH253659   0.405   1.153  12.148 -0.1449 -0.2023 -0.6069
10723TIP3    H153660   0.409   1.203  12.229 -0.7246 -1.3221  0.1389
10723TIP3    H253661   0.475   1.188  12.094  1.4782 -0.7060  1.1122
10724TIP3   OH253662   3.341   5.361   0.361  0.3011  0.0961  0.3117
10724TIP3    H153663   3.342   5.275   0.319  0.4774 -0.3028  1.1175
10724TIP3    H253664   3.308   5.344   0.449 -2.0418  1.2182 -0.3077
10725TIP3   OH253665   0.773   4.309  15.183  0.2632 -0.6866  0.3577
10725TIP3    H153666   0.681   4.331  15.194 -0.0327 -2.0819  0.7311
10725TIP3    H253667   0.811   4.385  15.137 -0.8754  0.2539  0.9668
10726TIP3   OH253668   3.912   2.975  16.388  0.7891  0.3657 -0.1196
10726TIP3    H153669   3.829   2.990  16.434  0.5735  0.7032 -0.6119
10726TIP3    H253670   3.931   3.059  16.346  1.4140  0.3080  0.0441
10727TIP3   OH253671   1.062   4.824   2.899 -0.3121  0.5108  0.1420
10727TIP3    H153672   1.084   4.776   2.819  2.1644 -0.2192  1.2116
10727TIP3    H253673   0.966   4.818   2.905 -0.5143  0.3084 -2.5674
10728TIP3   OH253674   1.058   4.629  13.276 -0.2324 -0.1268  0.4710
10728TIP3    H153675   1.065   4.722  13.253  0.2225 -0.2485  0.1272
10728TIP3    H253676   1.093   4.624  13.365 -1.8102  0.3088  1.1319
10729TIP3   OH253677   6.765   2.923  14.224 -0.5228 -0.0170 -0.2602
10729TIP3    H153678   6.806   2.862  14.286 -1.8095 -0.4013  0.2204
10729TIP3    H253679   6.820   3.001  14.229  1.6230 -1.3920 -1.4839
10730TIP3   OH253680   4.107   6.169   0.842  0.5504  0.0159 -0.8097
10730TIP3    H153681   4.042   6.104   0.814  0.1325 -0.3173  0.8856
10730TIP3    H253682   4.059   6.227   0.901  1.8517 -0.3924  0.6748
10731TIP3   OH253683   1.457   0.700  16.666  0.4968  0.1813  0.5196
10731TIP3    H153684   1.552   0.713  16.673  0.6822 -0.0587 -1.1713
10731TIP3    H253685   1.447   0.607  16.647 -0.1703 -0.0490  1.9405
10732TIP3   OH253686   5.775   4.802   3.516 -0.1730  0.4590  0.1569
10732TIP3    H153687   5.799   4.770   3.429 -0.1722  0.2406  0.2361
10732TIP3    H253688   5.796   4.895   3.514 -2.2238  0.9133 -0.7905
10733TIP3   OH253689   0.874   1.273  15.031 -0.1023  0.1764  0.5095
10733TIP3    H153690   0.834   1.323  15.103  2.1722 -1.6951  3.2198
10733TIP3    H253691   0.801   1.224  14.992 -1.5830  2.1489  0.7528
10734TIP3   OH253692   0.212   3.312  15.704 -0.2161 -0.1836  0.1829
10734TIP3    H153693   0.139   3.357  15.744 -0.8850 -0.6640 -0.4818
10734TIP3    H253694   0.285   3.375  15.708 -0.7428  0.4040  0.5545
10735TIP3   OH253695   1.940   2.637  14.588  0.2214  0.2276  0.0157
10735TIP3    H153696   1.948   2.684  14.671  0.0811 -0.5198  0.4650
10735TIP3    H253697   2.028   2.639  14.551  0.6202 -0.6356  0.8674
10736TIP3   OH253698   1.703   2.226  16.024  0.2632 -0.5303 -0.1031
10736TIP3    H153699   1.627   2.208  16.080  0.2062  0.3134  0.0888
10736TIP3    H253700   1.724   2.317  16.041  0.5414 -0.4053 -1.1055
10737TIP3   OH253701   2.730   0.321  11.250 -0.1973 -0.3234 -0.0728
10737TIP3    H153702   2.648   0.366  11.269 -0.7701 -0.7786 -1.3877
10737TIP3    H253703   2.752   0.276  11.331 -2.0100 -1.3722 -0.1339
10738TIP3   OH253704   0.257   0.317   2.681 -0.4225 -0.2002 -0.6184
10738TIP3    H153705   0.305   0.236   2.700 -2.9728 -1.6329  0.0447
10738TIP3    H253706   0.225   0.306   2.592  0.1844  0.6031 -0.9418
10739TIP3   OH253707   0.653   1.924  15.457 -0.0409  0.0864 -0.0041
10739TIP3    H153708   0.726   1.864  15.472  0.2492  0.9839  2.3622
10739TIP3    H253709   0.663   1.950  15.365  0.5994 -2.4015 -0.6867
10740TIP3   OH253710   0.350   0.088   4.679  0.0100  0.5385 -0.4243
10740TIP3    H153711   0.356   0.032   4.601 -0.6715 -1.0746  0.6736
10740TIP3    H253712   0.261   0.077   4.710  1.0043 -0.8472  2.0659
10741TIP3   OH253713   3.718   5.497  14.989 -0.0145 -0.0219 -0.2565
10741TIP3    H153714   3.774   5.569  14.962 -0.9664  0.4103 -1.0987
10741TIP3    H253715   3.751   5.421  14.941 -0.0742  0.2034 -0.6526
10742TIP3   OH253716   4.700   0.674  14.125 -0.1750 -0.3000 -0.7594
10742TIP3    H153717   4.639   0.676  14.198 -0.3516  0.4376 -0.9266
10742TIP3    H253718   4.660   0.728  14.057 -0.1390 -1.1961 -1.5123
10743TIP3   OH253719   1.490   3.304  16.061  0.7099 -0.3247 -0.1864
10743TIP3    H153720   1.435   3.240  16.017  3.1220 -2.0582 -0.7987
10743TIP3    H253721   1.536   3.349  15.990  1.1461  0.1115  0.3704
10744TIP3   OH253722   5.064   4.918   4.383  0.0756 -0.7366 -0.1580
10744TIP3    H153723   4.985   4.871   4.408 -0.1945  0.3391  1.0697
10744TIP3    H253724   5.123   4.907   4.458 -1.3606  3.9398  1.8128
10745TIP3   OH253725   5.347   6.465   0.797 -0.3738  0.4905 -0.2985
10745TIP3    H153726   5.390   6.431   0.719 -1.7652 -0.4482 -0.6662
10745TIP3    H253727   5.411   6.525   0.835  0.7930  0.0172 -1.4795
10746TIP3   OH253728   3.322   1.542   1.852  0.5494  0.2651 -0.0900
10746TIP3    H153729   3.353   1.481   1.919 -0.3358  1.7044  1.6803
10746TIP3    H253730   3.400   1.560   1.799  1.3972 -0.4827  0.8599
10747TIP3   OH253731   6.517   3.222  15.893 -0.2281 -0.0606 -0.2718
10747TIP3    H153732   6.479   3.309  15.909  0.0697  0.2793 -1.4180
10747TIP3    H253733   6.449   3.174  15.846 -0.9109 -0.9122  1.4956
10748TIP3   OH253734   4.811   2.537  15.116  0.0962 -0.3648  0.3156
10748TIP3    H153735   4.761   2.551  15.035 -0.2503 -0.0997  0.5742
10748TIP3    H253736   4.858   2.620  15.129 -0.6245 -0.0553  0.9254
10749TIP3   OH253737   4.725   5.010   0.176 -1.1541 -1.0302  0.6720
10749TIP3    H153738   4.798   5.045   0.228  0.2500  0.3701 -2.1088
10749TIP3    H253739   4.768   4.961   0.106 -2.7218  1.5258 -2.2179
10750TIP3   OH253740   2.329   2.673   0.253 -0.0427 -0.0445 -0.4210
10750TIP3    H153741   2.316   2.605   0.187 -0.3090 -0.2253 -0.1835
10750TIP3    H253742   2.300   2.753   0.210  0.9792  0.0461 -0.9635
10751TIP3   OH253743   1.694   1.345  15.855  0.2149 -0.1018 -0.0160
10751TIP3    H153744   1.731   1.410  15.914  2.1716 -0.6353 -0.6207
10751TIP3    H253745   1.670   1.272  15.912  0.8212 -0.0636  0.2959
10752TIP3   OH253746   2.198   5.412   4.492 -0.2805  0.7475  0.2109
10752TIP3    H153747   2.226   5.348   4.426 -0.2517  2.1079 -1.1402
10752TIP3    H253748   2.129   5.368   4.541 -1.1331  0.1103 -1.5246
10753TIP3   OH253749   1.549   4.054   2.077  0.4886 -0.2585  0.5285
10753TIP3    H153750   1.625   4.025   2.027 -0.2267 -2.1690  0.5198
10753TIP3    H253751   1.478   4.055   2.013 -0.5113 -3.0394  1.5369
10754TIP3   OH253752   0.929   3.936   3.239  0.4665 -0.4535  0.0396
10754TIP3    H153753   0.931   4.017   3.291 -0.8506  0.4273 -1.2445
10754TIP3    H253754   0.982   3.874   3.289  0.2255  0.7405  1.8220
10755TIP3   OH253755   0.387   3.815  14.195  0.6430 -0.0630  0.2666
10755TIP3    H153756   0.480   3.793  14.184  0.7747  0.2945  0.6486
10755TIP3    H253757   0.382   3.857  14.281 -0.0460 -1.0183  0.7068
10756TIP3   OH253758   4.260   3.339   4.903  0.1407  0.0284  0.2985
10756TIP3    H153759   4.169   3.326   4.930 -0.5836  3.5386 -0.1680
10756TIP3    H253760   4.259   3.321   4.809  0.2361 -1.2435  0.5330
10757TIP3   OH253761   5.966   0.267   5.534  0.9710 -0.0376  0.1169
10757TIP3    H153762   5.943   0.273   5.441  0.3706  1.3033  0.3405
10757TIP3    H253763   6.051   0.312   5.539  1.5934 -1.1785  0.0254
10758TIP3   OH253764   5.391   0.918   0.236  0.2408 -0.1424 -0.2336
10758TIP3    H153765   5.342   0.844   0.272 -1.8624  1.3854  0.1767
10758TIP3    H253766   5.326   0.967   0.185  1.4796  1.6262 -0.1765
10759TIP3   OH253767   4.533   1.763   2.298 -0.1215  0.5162  0.2603
10759TIP3    H153768   4.548   1.700   2.368 -1.1422 -0.7668 -0.6437
10759TIP3    H253769   4.491   1.837   2.341 -0.6856 -0.2403  1.0330
10760TIP3   OH253770   3.057   2.643   6.348 -0.1778 -0.3325  0.5142
10760TIP3    H153771   3.112   2.672   6.275  0.3658 -0.7410  0.7601
10760TIP3    H253772   3.106   2.571   6.388 -1.1548 -1.0990  0.3679
10761TIP3   OH253773   3.574   5.913   5.776  0.1081  0.2582 -0.1461
10761TIP3    H153774   3.604   5.894   5.865  1.2557  1.9179 -0.1552
10761TIP3    H253775   3.638   5.870   5.719 -1.4490 -2.0718 -0.2174
10762TIP3   OH253776   3.996   2.524  12.544 -0.3570  0.8191 -0.5449
10762TIP3    H153777   4.036   2.484  12.466 -0.0700  1.8579 -0.9307
10762TIP3    H253778   3.902   2.524  12.525 -0.5790 -1.5520  0.3308
10763TIP3   OH253779   5.103   2.671   2.340 -0.3436  0.4688 -0.2558
10763TIP3    H153780   5.151   2.754   2.335 -0.6404  0.7797  1.7837
10763TIP3    H253781   5.011   2.697   2.330 -0.4827  0.4680  0.9494
10764TIP3   OH253782   2.779   0.869  17.245  0.2174  0.9406  0.6753
10764TIP3    H153783   2.727   0.883  17.166  0.7566  0.8809  0.3000
10764TIP3    H253784   2.730   0.806  17.297  1.7459 -2.1105 -1.4341
10765TIP3   OH253785   0.229   1.233   6.203 -0.3627 -0.3480 -0.4358
10765TIP3    H153786   0.198   1.318   6.235 -0.9238 -1.4168  1.9327
10765TIP3    H253787   0.240   1.246   6.109 -2.1673  1.8381 -0.3917
10766TIP3   OH253788   4.940   4.614  14.653 -0.4022 -0.2046  0.4076
10766TIP3    H153789   4.857   4.630  14.699 -0.3138  0.7051  0.2704
10766TIP3    H253790   4.984   4.699  14.655  0.1883 -0.4954 -0.2017
10767TIP3   OH253791   2.835   3.351   0.825  0.8294 -0.5061 -0.4666
10767TIP3    H153792   2.780   3.331   0.749 -1.5759 -1.3216  1.4564
10767TIP3    H253793   2.906   3.286   0.820  0.1657 -1.1710 -1.4949
10768TIP3   OH253794   1.217   4.506   4.956  0.4008  0.0651 -0.3434
10768TIP3    H153795   1.201   4.501   5.050  1.3952  1.3467 -0.0954
10768TIP3    H253796   1.287   4.443   4.941  0.8495  0.4966 -0.0790
10769TIP3   OH253797   2.947   0.732  16.004  0.2648 -0.0962 -0.3302
10769TIP3    H153798   2.990   0.648  16.019 -0.8040 -0.3021  1.8146
10769TIP3    H253799   3.018   0.795  15.998  0.9781 -0.7464  1.0501
10770TIP3   OH253800   0.597   3.530   2.799  0.1767 -0.5560  0.1318
10770TIP3    H153801   0.669   3.575   2.755 -1.9955  0.4121 -2.5255
10770TIP3    H253802   0.621   3.437   2.795  2.0714 -0.1164  0.8158
10771TIP3   OH253803   1.693   3.548   2.715  0.4661 -0.2936 -0.6018
10771TIP3    H153804   1.636   3.594   2.776  3.9035  0.0787  2.5497
10771TIP3    H253805   1.723   3.616   2.655 -0.2211  0.0700 -0.5388
10772TIP3   OH253806   0.943   1.413   2.185  0.3332 -0.3275  0.4072
10772TIP3    H153807   0.920   1.444   2.273  1.4701 -0.5304  0.7744
10772TIP3    H253808   0.884   1.339   2.170 -0.3768  0.1709  0.7020
10773TIP3   OH253809   6.645   4.439  14.598 -0.7241  0.3306  0.5121
10773TIP3    H153810   6.734   4.468  14.580 -1.4853  1.6870 -1.1740
10773TIP3    H253811   6.652   4.344  14.605  0.6459  0.3005 -0.9311
10774TIP3   OH253812   2.634   2.918  12.700 -0.2917  0.0840  0.1276
10774TIP3    H153813   2.729   2.926  12.692 -0.2797 -0.2655 -0.0982
10774TIP3    H253814   2.622   2.855  12.771 -0.3693  0.9430  0.8920
10775TIP3   OH253815   3.134   4.200   1.299  0.3947  0.5006  0.1683
10775TIP3    H153816   3.119   4.248   1.381 -1.5185  0.9549 -0.4247
10775TIP3    H253817   3.053   4.152   1.284  1.4991 -1.2290 -0.3977
10776TIP3   OH253818   3.906   3.662  14.773  0.8363  0.3545  0.2265
10776TIP3    H153819   3.856   3.616  14.706  1.1313  0.3128  0.0296
10776TIP3    H253820   3.997   3.650  14.746  0.9492  0.4537  0.5628
10777TIP3   OH253821   0.823   3.732  17.064  0.6066  0.3447  0.2772
10777TIP3    H153822   0.758   3.730  16.994 -0.2354 -1.8034  1.0733
10777TIP3    H253823   0.867   3.817  17.054 -1.4142  1.2670 -1.0916
10778TIP3   OH253824   2.621   0.517   4.945  0.0420  0.2036  0.1935
10778TIP3    H153825   2.619   0.562   4.861 -0.8381  2.2942  1.2925
10778TIP3    H253826   2.531   0.492   4.962  0.2902 -0.6436  0.3069
10779TIP3   OH253827   0.267   0.002   1.440 -1.3628  0.2002 -0.0043
10779TIP3    H153828   0.300  -0.046   1.517 -0.6492  1.5818  0.5651
10779TIP3    H253829   0.269   0.094   1.467  0.7563  0.8776 -2.3345
10780TIP3   OH253830   2.714   1.148   5.706 -0.3820 -0.0361  0.3205
10780TIP3    H153831   2.754   1.163   5.792 -1.2571 -0.1390  0.7475
10780TIP3    H253832   2.781   1.177   5.644  0.4675 -0.4587  1.0228
10781TIP3   OH253833   5.642   4.532  16.178 -0.0870  0.1407  0.7062
10781TIP3    H153834   5.550   4.533  16.204 -0.9731 -0.6201 -2.1194
10781TIP3    H253835   5.685   4.480  16.246 -2.0132 -0.7370  1.3139
10782TIP3   OH253836   4.713   0.363   0.015  0.3678  0.4321 -0.0761
10782TIP3    H153837   4.656   0.416   0.071  1.0859  0.0949  0.9847
10782TIP3    H253838   4.800   0.400   0.028  0.8415 -0.8575  0.5129
10783TIP3   OH253839   0.140   5.483   2.880 -0.2893  0.0906 -0.4416
10783TIP3    H153840   0.148   5.534   2.960  2.1758 -1.0863  0.1111
10783TIP3    H253841   0.109   5.546   2.815 -0.1500  1.5885  0.9120
10784TIP3   OH253842   0.718   0.310   0.850 -0.2468  0.4552  0.5083
10784TIP3    H153843   0.634   0.313   0.805  0.5634  1.0151 -0.9857
10784TIP3    H253844   0.758   0.395   0.832  0.5850  0.2520  1.3272
10785TIP3   OH253845   1.368   2.667   0.305  0.0825  0.0851 -0.1851
10785TIP3    H153846   1.305   2.622   0.249  0.7817 -0.7735 -0.2833
10785TIP3    H253847   1.440   2.606   0.314  1.8228  1.8348 -1.7175
10786TIP3   OH253848   5.551   1.219   3.662  0.3234 -0.6260  0.1218
10786TIP3    H153849   5.457   1.226   3.680  0.1007 -2.9354  0.0331
10786TIP3    H253850   5.592   1.228   3.748 -0.0177 -0.0337  0.2224
10787TIP3   OH253851   5.910   1.870  12.773  0.2805 -0.0598  0.9078
10787TIP3    H153852   5.964   1.846  12.848 -0.9098 -1.8444  1.2207
10787TIP3    H253853   5.863   1.790  12.750 -0.6237  0.8958 -0.7007
10788TIP3   OH253854   4.148   1.440   4.334 -0.2050  0.0208 -0.0132
10788TIP3    H153855   4.091   1.367   4.311 -0.1425 -0.1074  0.2337
10788TIP3    H253856   4.221   1.434   4.272 -0.6212  0.3806 -0.5384
10789TIP3   OH253857   4.786   1.869   2.436 -0.7534  0.0346 -0.2398
10789TIP3    H153858   4.720   1.839   2.499 -0.6192 -0.9677 -0.5811
10789TIP3    H253859   4.740   1.873   2.353 -0.6132  0.2132 -0.3098
10790TIP3   OH253860   4.669   2.321  13.863  0.0758 -0.3991 -0.1529
10790TIP3    H153861   4.629   2.267  13.931  2.0916  1.7597  2.8787
10790TIP3    H253862   4.621   2.404  13.868  0.1386 -0.2805 -1.5009
10791TIP3   OH253863   1.437   5.082   0.328 -0.6026 -0.8179 -0.1306
10791TIP3    H153864   1.351   5.090   0.369 -0.7997 -3.1728 -0.0113
10791TIP3    H253865   1.487   5.027   0.388  0.7951  0.0076 -0.5182
10792TIP3   OH253866   3.039   3.861  11.063 -0.2803  0.5044 -0.3802
10792TIP3    H153867   3.133   3.849  11.046 -0.3412  0.8945 -0.9853
10792TIP3    H253868   3.034   3.944  11.111 -0.0977 -0.6405  1.7032
10793TIP3   OH253869   5.897   1.614  16.991 -0.1097 -0.1844 -0.1293
10793TIP3    H153870   5.888   1.695  16.940  0.8107  0.8396  1.3117
10793TIP3    H253871   5.865   1.637  17.078  1.5054 -0.9763  0.6845
10794TIP3   OH253872   0.649   6.574   0.387 -0.7412 -0.3256  0.0677
10794TIP3    H153873   0.664   6.491   0.433 -0.6098  0.0695  0.7412
10794TIP3    H253874   0.640   6.639   0.457 -0.0569  0.3690 -0.4804
10795TIP3   OH253875   0.855   3.396  12.769 -0.4388  0.0701 -0.9711
10795TIP3    H153876   0.920   3.466  12.759  0.0938 -0.3656 -0.5836
10795TIP3    H253877   0.887   3.343  12.842 -0.6179 -0.8295 -1.5292
10796TIP3   OH253878   3.003   3.242  12.089 -0.0268  0.0307  0.4739
10796TIP3    H153879   2.958   3.287  12.017  2.8557 -1.2248 -2.2447
10796TIP3    H253880   3.061   3.308  12.126  0.3524 -0.0158 -0.0360
10797TIP3   OH253881   4.148   2.383   0.150  0.7237 -0.3636 -0.1430
10797TIP3    H153882   4.155   2.466   0.103 -0.2844  0.3035  0.8489
10797TIP3    H253883   4.198   2.321   0.097  4.0891  1.5416  0.6690
10798TIP3   OH253884   6.174   5.553  16.622 -0.3590 -0.5939 -0.5100
10798TIP3    H153885   6.094   5.512  16.655 -0.0282  0.2345  1.3842
10798TIP3    H253886   6.244   5.492  16.646 -0.1345 -0.0618  0.2033
10799TIP3   OH253887   5.836   0.229   1.738 -0.5102  0.0924  0.4490
10799TIP3    H153888   5.742   0.230   1.716 -1.1899  1.9872  3.2387
10799TIP3    H253889   5.870   0.310   1.699 -0.4855  0.4706  1.2510
10800TIP3   OH253890   3.048   2.992   4.470 -0.3482 -0.1810  0.3628
10800TIP3    H153891   3.046   3.026   4.380 -1.0784 -0.2374  0.3548
10800TIP3    H253892   2.980   2.925   4.471 -0.4019 -0.1160  0.9899
10801TIP3   OH253893   2.168   4.916   4.971 -0.4052 -0.4275 -0.3946
10801TIP3    H153894   2.114   4.963   4.908  0.7684  1.6029  0.0627
10801TIP3    H253895   2.159   4.824   4.947 -3.7993 -0.1414 -0.5235
10802TIP3   OH253896   6.143   4.351  17.161  0.1150 -0.1728 -0.3799
10802TIP3    H153897   6.082   4.388  17.225  0.4564 -0.6752  0.2430
10802TIP3    H253898   6.226   4.395  17.179 -0.2397  1.1649 -1.8097
10803TIP3   OH253899   3.383   6.392   1.467  0.1403 -0.4852 -0.1624
10803TIP3    H153900   3.314   6.336   1.432  1.1193 -0.3416 -2.3962
10803TIP3    H253901   3.340   6.443   1.535 -1.2038 -2.6182  0.6452
10804TIP3   OH253902   0.748   2.158   1.810 -0.1384 -0.3714 -0.0800
10804TIP3    H153903   0.743   2.063   1.797 -0.7100 -0.5390  1.3389
10804TIP3    H253904   0.820   2.186   1.753  0.4275 -1.7358 -0.0565
10805TIP3   OH253905   6.631   1.807  13.691  0.3534  0.1109  0.0964
10805TIP3    H153906   6.594   1.791  13.604  1.9392 -0.1751 -0.5441
10805TIP3    H253907   6.604   1.896  13.712 -0.0806  0.1712 -0.6847
10806TIP3   OH253908   2.411   6.655   3.533  0.3449  0.1441  0.0678
10806TIP3    H153909   2.461   6.644   3.452  0.9626 -2.2410  0.7431
10806TIP3    H253910   2.478   6.665   3.601 -0.1621  0.9225  0.4624
10807TIP3   OH253911   3.654   4.450  14.991  0.1908  0.1945 -0.0706
10807TIP3    H153912   3.682   4.510  15.060 -0.1302 -0.0813  0.3000
10807TIP3    H253913   3.673   4.363  15.025 -0.3148  0.0421 -0.1710
10808TIP3   OH253914   1.725   2.171  12.925 -0.0023 -0.3206  0.2707
10808TIP3    H153915   1.631   2.162  12.909 -0.0942 -0.6479  0.9920
10808TIP3    H253916   1.745   2.260  12.895  0.0774 -1.3059 -2.8269
10809TIP3   OH253917   0.695   1.757   3.523 -0.1582  0.0588 -0.0700
10809TIP3    H153918   0.788   1.778   3.511  0.1059 -1.4286 -0.7038
10809TIP3    H253919   0.695   1.682   3.582 -0.9507 -0.1431 -0.3221
10810TIP3   OH253920   0.910   5.270   6.674 -0.1325 -0.4133  0.3200
10810TIP3    H153921   0.893   5.228   6.590  0.1043 -1.6129  0.8624
10810TIP3    H253922   0.886   5.361   6.661  1.2666 -0.2720 -1.4922
10811TIP3   OH253923   5.935   3.785  15.702 -0.1090  0.2320  0.2543
10811TIP3    H153924   5.850   3.744  15.719  0.0387  0.2143  0.9676
10811TIP3    H253925   5.998   3.712  15.705  0.0349  0.3696  0.5486
10812TIP3   OH253926   1.470   0.391  14.776 -0.0987  0.6078 -0.0735
10812TIP3    H153927   1.547   0.441  14.751  0.9545 -1.1791 -0.4896
10812TIP3    H253928   1.414   0.453  14.822 -0.1588  2.9243 -3.0891
10813TIP3   OH253929   0.835   4.111   2.372  0.4265  0.3247 -0.2626
10813TIP3    H153930   0.778   4.189   2.374 -1.5619 -1.1163  1.7603
10813TIP3    H253931   0.855   4.094   2.464  0.2945 -1.9355 -0.6305
10814TIP3   OH253932   2.074   5.600  13.101  0.2978 -0.5016 -0.7629
10814TIP3    H153933   2.042   5.658  13.031 -1.1244 -0.4566 -0.0944
10814TIP3    H253934   2.037   5.515  13.081 -0.3978 -0.4133  0.1166
10815TIP3   OH253935   3.914   3.915  12.299 -0.7088  0.0647 -0.2670
10815TIP3    H153936   3.952   3.911  12.386  0.0843  0.0445 -0.6099
10815TIP3    H253937   3.894   4.008  12.286 -0.7950  0.0734 -0.0782
10816TIP3   OH253938   1.825   4.197  16.139 -0.6774  0.1482  0.1813
10816TIP3    H153939   1.828   4.293  16.140  0.5967  0.1055  1.8301
10816TIP3    H253940   1.762   4.174  16.207 -2.4285 -0.1739 -1.4943
10817TIP3   OH253941   0.286   0.025   2.890 -0.0653 -0.1720 -0.1464
10817TIP3    H153942   0.194   0.005   2.909 -0.2872  1.7636  0.9011
10817TIP3    H253943   0.329   0.025   2.975  0.2857  1.8434 -0.2944
10818TIP3   OH253944   0.837   0.125  17.146 -0.6433 -0.3628  0.1882
10818TIP3    H153945   0.825   0.204  17.197  1.1412  0.3658 -0.4736
10818TIP3    H253946   0.927   0.130  17.113 -1.9336 -0.3866 -3.6784
10819TIP3   OH253947   4.081   1.217   2.084 -1.0845  0.1322 -0.0743
10819TIP3    H153948   4.106   1.126   2.098 -1.4003  0.4376  2.7500
10819TIP3    H253949   4.164   1.265   2.083 -1.0518  0.1126  0.9912
10820TIP3   OH253950   2.907   1.425   3.555  0.5307 -0.2422  0.0219
10820TIP3    H153951   2.860   1.495   3.510  1.1396 -0.2315 -0.6029
10820TIP3    H253952   2.983   1.469   3.593  1.2227 -0.6646 -0.8627
10821TIP3   OH253953   6.136   5.964  16.513 -0.5038  0.1712  0.4380
10821TIP3    H153954   6.168   5.874  16.520 -3.9136 -0.9770  2.4995
10821TIP3    H253955   6.128   5.994  16.604 -2.3856  1.4339 -0.1150
10822TIP3   OH253956   4.030   1.625   6.094  0.6175 -0.5979 -0.4076
10822TIP3    H153957   3.990   1.545   6.129  2.3479 -1.2049  0.2343
10822TIP3    H253958   4.122   1.619   6.121  0.4735  2.2903  0.9033
10823TIP3   OH253959   3.379   2.829  14.839  0.2347  0.3603 -0.1414
10823TIP3    H153960   3.311   2.882  14.882  0.4806  0.2356  0.4011
10823TIP3    H253961   3.366   2.741  14.873 -0.0806  0.1043 -0.9377
10824TIP3   OH253962   3.817   3.916   5.457  0.7010 -0.8295  0.7231
10824TIP3    H153963   3.767   3.925   5.376  1.5955  0.5461  0.3109
10824TIP3    H253964   3.802   3.825   5.484  1.4110 -1.6991 -1.6619
10825TIP3   OH253965   6.306   3.781  15.391 -0.7039  0.0532 -0.0525
10825TIP3    H153966   6.253   3.714  15.346 -1.1038  0.1572  0.2576
10825TIP3    H253967   6.396   3.750  15.383 -0.5041  1.2548 -3.0219
10826TIP3   OH253968   0.423   1.894  15.989 -0.0802  0.2373  0.0360
10826TIP3    H153969   0.467   1.889  16.074 -1.1205  0.3962  0.5965
10826TIP3    H253970   0.340   1.847  16.002  0.0850 -0.3799 -1.1085
10827TIP3   OH253971   2.228   6.077  15.906 -0.1933  0.4718  0.0583
10827TIP3    H153972   2.312   6.052  15.944 -0.6690 -2.2996 -0.5836
10827TIP3    H253973   2.168   6.080  15.981 -0.0951 -0.1790  0.1629
10828TIP3   OH253974   2.346   5.732  16.163 -0.3912  0.3168 -0.8498
10828TIP3    H153975   2.323   5.682  16.085  0.4972  0.1186 -0.9891
10828TIP3    H253976   2.285   5.701  16.231 -0.2942 -0.4481 -1.1109
10829TIP3   OH253977   3.390   1.390  13.883  0.1125  0.3182  0.1589
10829TIP3    H153978   3.401   1.469  13.830  2.3541  1.0249  1.6008
10829TIP3    H253979   3.356   1.422  13.967  0.2980 -0.3470  0.4914
10830TIP3   OH253980   2.496   5.930   1.118  0.6904  0.4114  0.0051
10830TIP3    H153981   2.535   5.911   1.203  2.4766  1.5437 -0.5362
10830TIP3    H253982   2.561   5.985   1.074  0.0425 -0.6201 -2.2969
10831TIP3   OH253983   5.803   4.897  17.191  0.4344 -0.4095  0.1782
10831TIP3    H153984   5.717   4.909  17.152  0.5336 -0.0979  0.0528
10831TIP3    H253985   5.859   4.870  17.119  0.0621 -2.3489  0.5780
10832TIP3   OH253986   5.712   2.044  14.266 -0.3251  0.1170  0.3197
10832TIP3    H153987   5.728   1.982  14.338 -0.8789  0.7484  0.9851
10832TIP3    H253988   5.799   2.059  14.228 -0.2581 -1.5100 -0.2230
10833TIP3   OH253989   6.693   5.675  10.648  0.6798 -0.1637  0.5836
10833TIP3    H153990   6.749   5.704  10.720  0.8262 -0.6967  0.6853
10833TIP3    H253991   6.635   5.750  10.631  0.5526 -0.0857  1.3490
10834TIP3   OH253992   3.239   2.473   5.631 -0.2803 -0.7091  0.1876
10834TIP3    H153993   3.318   2.467   5.685 -0.7830  2.1901  1.3121
10834TIP3    H253994   3.254   2.548   5.574 -2.8052  0.7920  1.4403
10835TIP3   OH253995   4.219   1.294   2.635  0.2666 -1.0028  0.0038
10835TIP3    H153996   4.231   1.287   2.540  1.2368 -0.7242  0.0961
10835TIP3    H253997   4.128   1.270   2.650 -0.1924  0.0018 -1.1185
10836TIP3   OH253998   5.628   3.274   3.624  0.5373  0.0236 -0.3664
10836TIP3    H153999   5.551   3.250   3.676  0.3342  0.6745 -0.3660
10836TIP3    H254000   5.639   3.200   3.564 -0.0057 -0.1386 -0.2747
10837TIP3   OH254001   0.596   3.174   2.292  0.6808  0.0405  0.3843
10837TIP3    H154002   0.604   3.233   2.367  1.7603  2.0334 -1.2504
10837TIP3    H254003   0.664   3.109   2.305 -1.1506 -1.4909  2.7193
10838TIP3   OH254004   3.433   4.936   0.899 -0.5929  0.9205  0.1310
10838TIP3    H154005   3.338   4.928   0.913 -0.4391  0.3451  0.8899
10838TIP3    H254006   3.457   4.854   0.856 -0.4190  1.0210  0.0364
10839TIP3   OH254007   5.964   5.650   4.167 -0.0598  0.2617 -0.6408
10839TIP3    H154008   6.015   5.725   4.198 -0.4832 -0.4856  2.0044
10839TIP3    H254009   6.022   5.604   4.106  2.3306 -0.3355  1.9968
10840TIP3   OH254010   2.528   3.879  17.117 -0.1632  0.2905  0.6758
10840TIP3    H154011   2.579   3.808  17.157 -0.7529 -0.6003 -0.1462
10840TIP3    H254012   2.467   3.835  17.058  0.1605  1.5447 -0.6268
10841TIP3   OH254013   1.486   5.714  12.682 -0.0450 -0.1167  0.6354
10841TIP3    H154014   1.538   5.753  12.611 -0.1665 -0.6434  0.2540
10841TIP3    H254015   1.550   5.665  12.734 -0.0664 -0.2779  0.5083
10842TIP3   OH254016   6.813   3.508   1.256  0.6352  0.2062 -0.2380
10842TIP3    H154017   6.752   3.570   1.294 -0.6439  1.0962 -3.5625
10842TIP3    H254018   6.798   3.426   1.303 -0.2191  1.4747  1.7159
10843TIP3   OH254019   0.598   4.063  13.420 -0.6906 -0.5205  0.0988
10843TIP3    H154020   0.667   4.123  13.391  0.2325 -2.0750 -1.0318
10843TIP3    H254021   0.517   4.099  13.385 -0.5733  1.6844  1.9941
10844TIP3   OH254022   4.519   2.342  13.234  0.4103 -0.0836 -0.0898
10844TIP3    H154023   4.476   2.257  13.229 -0.0291 -0.0842  2.8481
10844TIP3    H254024   4.548   2.360  13.144  0.5821 -3.3409 -0.7358
10845TIP3   OH254025   5.163   6.625   1.432 -0.2221  0.3496 -0.2866
10845TIP3    H154026   5.196   6.587   1.513 -2.5608 -0.2705  0.4360
10845TIP3    H254027   5.167   6.553   1.369 -1.5362 -0.1830  0.2058
10846TIP3   OH254028   4.015   4.323  13.150  0.1717  0.1489 -0.0894
10846TIP3    H154029   4.063   4.308  13.068 -0.2356  0.3932 -0.3731
10846TIP3    H254030   3.982   4.236  13.174  0.6903 -0.0067  0.0651
10847TIP3   OH254031   5.565   2.925   2.475 -0.1673  0.0222  0.0583
10847TIP3    H154032   5.518   2.994   2.428 -1.9866 -2.2469 -1.5452
10847TIP3    H254033   5.497   2.880   2.525  1.1765  0.0553  1.9676
10848TIP3   OH254034   4.643   1.830   3.987  0.6964  0.1745 -0.0101
10848TIP3    H154035   4.579   1.873   4.044  0.9222  1.7082 -0.8908
10848TIP3    H254036   4.632   1.874   3.902  2.5043  0.0390 -0.3208
10849TIP3   OH254037   4.933   1.342  11.502  0.0518  0.1715 -0.4936
10849TIP3    H154038   4.863   1.316  11.442  0.5600 -1.4731 -0.4093
10849TIP3    H254039   4.982   1.261  11.517  0.3038  0.7049  1.6416
10850TIP3   OH254040   5.810   2.830  16.997 -0.5365  0.1190  0.1326
10850TIP3    H154041   5.750   2.772  16.952 -0.0131  0.2159 -0.7057
10850TIP3    H254042   5.774   2.918  16.984  1.7494  0.6093 -3.6489
10851TIP3   OH254043   1.227   2.528  13.867 -0.5387  0.1048 -0.1619
10851TIP3    H154044   1.279   2.451  13.888 -0.9359 -0.7230 -2.1308
10851TIP3    H254045   1.274   2.571  13.795 -0.3515  1.6771  0.8721
10852TIP3   OH254046   6.248   0.731   0.603 -0.0417  0.2832  0.0125
10852TIP3    H154047   6.279   0.667   0.667  0.1534  1.0149  0.6577
10852TIP3    H254048   6.264   0.690   0.518 -0.2010 -0.6469  0.4304
10853TIP3   OH254049   5.134   0.341   0.655  0.1525  0.0321  0.1009
10853TIP3    H154050   5.065   0.276   0.670 -0.8047  0.9606 -0.2663
10853TIP3    H254051   5.191   0.300   0.590  0.1081 -0.8618  0.6229
10854TIP3   OH254052   6.138   2.399   5.457 -0.5051  0.6355 -0.5849
10854TIP3    H154053   6.104   2.487   5.474 -1.5420  0.2306 -0.4867
10854TIP3    H254054   6.228   2.413   5.427  0.0724  1.5900  1.5064
10855TIP3   OH254055   1.417   4.478  12.794 -0.1069  0.1752 -0.4273
10855TIP3    H154056   1.494   4.476  12.738 -0.4865 -1.2022 -0.9020
10855TIP3    H254057   1.440   4.539  12.864  1.5104 -0.4308 -0.4254
10856TIP3   OH254058   5.417   4.134   0.445  0.0404  0.3073  0.0083
10856TIP3    H154059   5.453   4.075   0.510  1.4762  0.0529 -1.0052
10856TIP3    H254060   5.483   4.203   0.434  0.9501 -0.9575 -2.9336
10857TIP3   OH254061   6.204   1.981   2.256 -0.2588  0.7562 -0.7601
10857TIP3    H154062   6.224   2.063   2.301  0.6583  0.5501 -0.7677
10857TIP3    H254063   6.254   1.986   2.175 -0.9214  0.5850 -1.1793
10858TIP3   OH254064   5.062   4.026  11.296  0.3833 -0.0925 -0.2445
10858TIP3    H154065   5.125   3.986  11.356  0.8755 -0.0865 -0.7495
10858TIP3    H254066   5.092   3.998  11.209 -0.9636 -1.0090 -0.4214
10859TIP3   OH254067   5.292   1.924   4.318 -0.1522  0.1839  0.5669
10859TIP3    H154068   5.280   2.011   4.282  0.4441  0.8331  1.9034
10859TIP3    H254069   5.204   1.888   4.325 -0.1990 -0.6100 -3.0429
10860TIP3   OH254070   2.678   4.651   4.309 -0.0481  0.7316 -0.0245
10860TIP3    H154071   2.644   4.601   4.384 -0.2392  0.5279 -0.2469
10860TIP3    H254072   2.618   4.630   4.237  0.3300  0.6687 -0.3201
10861TIP3   OH254073   3.772   2.388   3.103  0.3738  0.4711  0.3048
10861TIP3    H154074   3.767   2.307   3.153 -0.0909  0.1293 -0.2793
10861TIP3    H254075   3.824   2.447   3.157  0.5861 -0.1669  0.8019
10862TIP3   OH254076   3.392   1.337  13.042 -0.0215 -0.1293 -0.1481
10862TIP3    H154077   3.404   1.326  13.136 -0.3167  0.4497 -0.0404
10862TIP3    H254078   3.297   1.333  13.029 -0.2489  3.1978  0.0298
10863TIP3   OH254079   3.290   3.659  13.217 -0.1724  1.0935 -0.3462
10863TIP3    H154080   3.337   3.625  13.293  0.2542  0.4456 -0.8921
10863TIP3    H254081   3.329   3.745  13.201  1.1271  0.3755 -1.0626
10864TIP3   OH254082   0.787   1.687   4.889 -0.3883  0.4808  0.5108
10864TIP3    H154083   0.863   1.632   4.867 -0.2504  1.5833 -1.9011
10864TIP3    H254084   0.810   1.727   4.973  1.3702  0.1843  0.1927
10865TIP3   OH254085   5.140   3.470  17.095 -0.0694 -0.3059  0.0348
10865TIP3    H154086   5.220   3.502  17.136 -0.5870  0.5658  0.3807
10865TIP3    H254087   5.152   3.487  17.001 -0.5274  1.3722  0.2593
10866TIP3   OH254088   1.168   6.526   5.061  0.6377  0.0961  0.2828
10866TIP3    H154089   1.235   6.498   4.999  1.1771  0.0338  0.8914
10866TIP3    H254090   1.106   6.576   5.008 -0.6787 -2.7180 -0.9570
10867TIP3   OH254091   2.498   3.192  12.623  0.1988  0.3409 -0.7774
10867TIP3    H154092   2.554   3.256  12.668  0.3420 -0.5833  0.3741
10867TIP3    H254093   2.520   3.108  12.663 -2.1170 -0.0262 -0.1910
10868TIP3   OH254094   3.980   3.318  16.472  0.0426 -0.1912 -0.1385
10868TIP3    H154095   3.992   3.269  16.391 -0.1097  0.7371 -0.7285
10868TIP3    H254096   3.961   3.252  16.538 -2.2566 -0.7502 -1.3235
10869TIP3   OH254097   6.423   3.424  15.232 -0.5270  0.5687  0.7841
10869TIP3    H154098   6.449   3.425  15.324  0.3018  1.2982  0.5508
10869TIP3    H254099   6.469   3.349  15.195  2.2251  2.5144  0.1180
10870TIP3   OH254100   0.627   2.782  15.348 -0.3472 -0.2651  0.0348
10870TIP3    H154101   0.697   2.821  15.296 -0.0590 -0.6777  0.1070
10870TIP3    H254102   0.621   2.692  15.315 -0.6870 -0.2985  0.1866
10871TIP3   OH254103   3.228   0.521  12.773 -0.0960 -0.0688 -0.2419
10871TIP3    H154104   3.254   0.567  12.852  1.7287  0.0094 -0.8784
10871TIP3    H254105   3.229   0.428  12.797  2.1278 -0.1629 -0.6261
10872TIP3   OH254106   0.345   6.469  16.884  0.2246  0.0408 -0.0735
10872TIP3    H154107   0.414   6.421  16.840  0.1897  1.6570 -1.9284
10872TIP3    H254108   0.387   6.507  16.961  0.9397 -0.5245 -0.1830
10873TIP3   OH254109   3.076   6.217   0.260  0.1381  0.5397  0.0123
10873TIP3    H154110   3.032   6.133   0.252  0.7307  0.4390 -2.6723
10873TIP3    H254111   3.166   6.196   0.286  0.4446  0.2745 -1.2217
10874TIP3   OH254112   0.710   4.930  14.481  0.1786 -0.1473 -0.6677
10874TIP3    H154113   0.708   4.835  14.472 -0.4850 -0.1839 -0.2023
10874TIP3    H254114   0.730   4.963  14.393  1.8568 -0.7582 -0.5392
10875TIP3   OH254115   6.125   1.870  15.447  0.5842 -0.1418 -0.0318
10875TIP3    H154116   6.163   1.872  15.535 -0.8297 -3.0379  0.7181
10875TIP3    H254117   6.198   1.850  15.390  0.9365 -1.5454  0.8904
10876TIP3   OH254118   0.325   1.723  15.320 -0.1303 -0.3169 -0.3734
10876TIP3    H154119   0.376   1.786  15.269 -0.7172  0.2356 -0.2951
10876TIP3    H254120   0.374   1.641  15.315  0.1948 -0.0713 -1.1994
10877TIP3   OH254121   4.091   5.357  11.583 -0.7128  0.5506 -0.2008
10877TIP3    H154122   4.112   5.292  11.516 -2.8128 -1.1459  0.7218
10877TIP3    H254123   4.004   5.390  11.559 -0.6071  1.4110  0.5608
10878TIP3   OH254124   3.330   0.895  15.657 -0.1320  0.5894 -0.3183
10878TIP3    H154125   3.377   0.978  15.663 -2.6574  2.0694 -0.6032
10878TIP3    H254126   3.244   0.918  15.622 -0.7671 -2.1929 -0.7124
10879TIP3   OH254127   6.305   5.448   3.532  0.3092 -0.2847 -0.8751
10879TIP3    H154128   6.260   5.523   3.571 -1.2866 -1.6251 -0.0616
10879TIP3    H254129   6.336   5.397   3.607  0.0617 -1.2159 -1.3976
10880TIP3   OH254130   3.555   4.716  14.024 -0.0579  0.0377 -0.3235
10880TIP3    H154131   3.648   4.712  14.002 -0.0055 -1.3895  0.0819
10880TIP3    H254132   3.512   4.664  13.957 -0.4710 -0.0236 -0.0175
10881TIP3   OH254133   4.235   4.775  13.868 -0.1409  0.2544  0.0380
10881TIP3    H154134   4.273   4.784  13.955  0.5554 -1.4525 -0.0659
10881TIP3    H254135   4.311   4.769  13.810 -0.6018  1.0955 -0.6648
10882TIP3   OH254136   4.854   2.129   5.861  0.3932 -0.6331  0.0326
10882TIP3    H154137   4.778   2.081   5.826 -1.0287  0.8547  0.9946
10882TIP3    H254138   4.912   2.139   5.786  0.7292 -3.8301 -0.1873
10883TIP3   OH254139   2.585   6.253  11.745 -0.4852  0.8376 -0.2019
10883TIP3    H154140   2.593   6.290  11.833  1.8267  1.9089 -0.8097
10883TIP3    H254141   2.658   6.190  11.740 -0.6468  0.7389 -1.3213
10884TIP3   OH254142   3.252   0.939   4.443 -0.1807  0.3079 -0.4079
10884TIP3    H154143   3.313   0.999   4.486  0.6660 -0.9712  0.2273
10884TIP3    H254144   3.172   0.943   4.495  0.5110 -0.5084  0.7412
10885TIP3   OH254145   2.990   1.261   1.192 -0.4646  0.3025  0.2179
10885TIP3    H154146   2.899   1.245   1.166 -0.0871 -1.4951 -0.1046
10885TIP3    H254147   3.037   1.273   1.110  0.7266 -5.3845 -0.1791
10886TIP3   OH254148   2.812   4.786   3.374 -0.0880  0.2379  0.0096
10886TIP3    H154149   2.816   4.726   3.300  1.9569  1.4354 -0.8815
10886TIP3    H254150   2.851   4.738   3.447 -0.2053 -0.1988 -0.2178
10887TIP3   OH254151   6.055   2.001  16.927 -0.4162 -0.0454  0.1261
10887TIP3    H154152   6.103   1.921  16.951 -0.1854 -0.2273 -0.9110
10887TIP3    H254153   6.098   2.070  16.977 -0.0943 -0.4533  0.4164
10888TIP3   OH254154   2.939   1.972  14.029 -0.1257  0.4378 -1.1582
10888TIP3    H154155   2.959   1.882  14.004 -1.3236 -0.0055 -0.5586
10888TIP3    H254156   3.022   2.019  14.019  0.9131 -1.0934  0.1628
10889TIP3   OH254157   1.246   3.638   4.925  0.0818  0.8423  0.1572
10889TIP3    H154158   1.169   3.664   4.976 -0.5345 -2.3164  0.9766
10889TIP3    H254159   1.230   3.674   4.838 -1.0540  2.4440  1.0010
10890TIP3   OH254160   3.704   3.978   6.086 -0.0642 -0.2109 -0.0519
10890TIP3    H154161   3.644   3.943   6.152  0.5377  0.5676  0.9232
10890TIP3    H254162   3.763   4.036   6.135  0.3405  0.4447 -1.2883
10891TIP3   OH254163   4.555   5.758   4.049  0.3455  0.1295  0.4165
10891TIP3    H154164   4.587   5.821   3.984  0.8402 -0.2041  0.3371
10891TIP3    H254165   4.621   5.760   4.118  0.0141  0.2018  0.7354
10892TIP3   OH254166   4.216   5.351   4.899  0.2149  0.0339  0.4680
10892TIP3    H154167   4.207   5.442   4.869  1.5003 -0.2598 -0.8676
10892TIP3    H254168   4.230   5.301   4.819 -0.4217 -1.3419  1.2071
10893TIP3   OH254169   4.492   3.038  15.660 -0.3032  0.5346  0.0463
10893TIP3    H154170   4.410   3.000  15.627 -2.0628  0.7258  3.9528
10893TIP3    H254171   4.553   2.963  15.663 -0.8801  0.0009 -1.0464
10894TIP3   OH254172   1.919   1.788  11.119  0.2251 -0.5872  0.5787
10894TIP3    H154173   1.985   1.857  11.112 -1.4602  1.1188  1.2280
10894TIP3    H254174   1.968   1.707  11.103  2.4301  0.6471  0.8329
10895TIP3   OH254175   3.723   2.212   0.734  0.1928  0.8671  0.1629
10895TIP3    H154176   3.768   2.128   0.746 -0.6895  0.4206  0.3912
10895TIP3    H254177   3.661   2.217   0.807 -0.1448  1.4653 -0.1582
10896TIP3   OH254178   5.060   4.684   0.741 -0.2723 -0.4510 -0.1705
10896TIP3    H154179   5.096   4.771   0.728 -0.3098 -0.4058  0.0256
10896TIP3    H254180   5.118   4.643   0.806 -0.5945 -0.3662  0.1710
10897TIP3   OH254181   6.649   5.131  14.243 -0.5270  0.1802  0.1373
10897TIP3    H154182   6.698   5.200  14.198 -0.8455 -0.7814 -1.7562
10897TIP3    H254183   6.630   5.067  14.174  0.7756 -2.3855  2.0856
10898TIP3   OH254184   3.891   1.382   0.946  0.0264 -0.1114 -0.3699
10898TIP3    H154185   3.957   1.315   0.964  0.3111  0.1516 -0.4412
10898TIP3    H254186   3.833   1.341   0.882  1.8956  0.7499 -2.6868
10899TIP3   OH254187   2.306   2.309   4.417 -0.1804 -0.6586  0.2215
10899TIP3    H154188   2.371   2.375   4.441 -1.1628  0.1654  0.6577
10899TIP3    H254189   2.282   2.266   4.500 -0.4521 -0.7146  0.1170
10900TIP3   OH254190   5.924   0.640  12.872 -0.2852 -0.5584  0.4697
10900TIP3    H154191   5.838   0.598  12.868  0.3539 -1.7082 -1.7394
10900TIP3    H254192   5.941   0.671  12.783  1.0235  0.8470  1.1754
10901TIP3   OH254193   6.615   4.320  11.538  0.0337 -0.4747 -0.0453
10901TIP3    H154194   6.570   4.355  11.614  2.2854  1.2959  0.5058
10901TIP3    H254195   6.566   4.353  11.463 -0.9408 -0.4913  0.5850
10902TIP3   OH254196   5.901   2.365   4.901  0.0395 -0.2584  0.1629
10902TIP3    H154197   5.834   2.320   4.849  1.3063 -0.7246 -1.0904
10902TIP3    H254198   5.854   2.437   4.943 -0.8706  0.5916 -2.2251
10903TIP3   OH254199   5.245   1.041  15.924  0.0047 -0.3065  0.3642
10903TIP3    H154200   5.174   1.082  15.974  0.2224 -0.7280  1.0186
10903TIP3    H254201   5.201   0.991  15.856 -0.2780  0.8095 -0.2935
10904TIP3   OH254202   4.617   5.630  13.632 -0.1221  0.1393  0.3144
10904TIP3    H154203   4.558   5.560  13.603 -0.7842  0.7729  0.1319
10904TIP3    H254204   4.617   5.693  13.560  2.7484 -1.0453 -0.7782
10905TIP3   OH254205   5.118   5.455   4.501  0.3685  0.1915 -0.0701
10905TIP3    H154206   5.108   5.383   4.563 -0.1416  0.8750  0.6661
10905TIP3    H254207   5.100   5.534   4.553  1.9417  0.9375 -0.5925
10906TIP3   OH254208   1.590   1.334   1.693 -0.7983  0.3168 -0.1998
10906TIP3    H154209   1.658   1.394   1.724  0.1847 -1.8398  1.8955
10906TIP3    H254210   1.550   1.299   1.772 -2.5344 -0.4996 -1.4067
10907TIP3   OH254211   2.800   5.243  11.364  0.1559  0.1100 -0.5237
10907TIP3    H154212   2.707   5.257  11.348  0.1694  1.2064  0.2534
10907TIP3    H254213   2.814   5.273  11.454  1.4627  0.9893 -0.9963
10908TIP3   OH254214   3.279   0.125  12.202  0.5901 -0.0559 -0.2529
10908TIP3    H154215   3.223   0.084  12.136  0.0005 -0.2502  0.3588
10908TIP3    H254216   3.225   0.196  12.238  0.5916 -0.4850  0.6037
10909TIP3   OH254217   5.770   2.509  15.448  0.1770  0.3751 -0.0689
10909TIP3    H154218   5.738   2.523  15.537 -0.3084 -1.6507  0.0988
10909TIP3    H254219   5.834   2.578  15.434  0.3234  0.6545  1.8867
10910TIP3   OH254220   0.852   3.600   6.318  0.1711 -0.6078 -0.2517
10910TIP3    H154221   0.797   3.670   6.281  0.4112  0.7802  1.9112
10910TIP3    H254222   0.790   3.540   6.359  0.0831 -0.5970 -0.3690
10911TIP3   OH254223   5.266   2.796   5.225  0.0065  0.8198 -0.6047
10911TIP3    H154224   5.263   2.813   5.131  0.9249 -0.1248 -0.8174
10911TIP3    H254225   5.360   2.795   5.246 -0.1761  0.5872  0.2387
10912TIP3   OH254226   4.891   4.890  11.221 -0.2004  0.1678 -0.6867
10912TIP3    H154227   4.876   4.982  11.246 -0.4749 -0.0716  0.0364
10912TIP3    H254228   4.857   4.883  11.132 -1.5840  0.3836 -0.1810
10913TIP3   OH254229   1.885   5.488   4.537 -0.2984  0.3030  0.0008
10913TIP3    H154230   1.948   5.557   4.559 -0.9458  1.2184 -0.9966
10913TIP3    H254231   1.801   5.533   4.530 -0.8891 -0.7413  0.2614
10914TIP3   OH254232   3.704   3.075  13.010 -0.2340  0.4567 -0.4355
10914TIP3    H154233   3.660   3.154  13.043 -1.3087  0.2405 -1.3696
10914TIP3    H254234   3.664   3.058  12.926  1.4118  0.0598 -1.1631
10915TIP3   OH254235   1.699   0.994   1.299  0.4688 -0.2308 -0.0131
10915TIP3    H154236   1.755   0.993   1.377 -0.5207 -1.1256  0.6960
10915TIP3    H254237   1.679   1.087   1.285  1.3763  0.0112  0.2690
10916TIP3   OH254238   5.268   3.837   3.656  0.4477 -0.2997 -0.1506
10916TIP3    H154239   5.262   3.931   3.670 -1.4687 -0.6069  1.3953
10916TIP3    H254240   5.361   3.819   3.651  0.8832  1.4555  1.2338
10917TIP3   OH254241   6.360   0.778   2.284 -0.8647  0.2545  0.6827
10917TIP3    H154242   6.330   0.768   2.193  0.3397 -0.7303  0.3813
10917TIP3    H254243   6.409   0.698   2.301 -0.0159  1.0132  1.8020
10918TIP3   OH254244   6.342   4.294   4.792 -1.0004  0.2016  0.4377
10918TIP3    H154245   6.417   4.237   4.775 -0.2029  1.7067 -1.2423
10918TIP3    H254246   6.266   4.244   4.761 -0.6139 -0.9583  1.3193
10919TIP3   OH254247   4.389   0.416  13.554  0.3188 -0.2034  0.1974
10919TIP3    H154248   4.334   0.386  13.481 -0.8430  1.1015  0.5062
10919TIP3    H254249   4.462   0.462  13.512 -0.1040  0.1487 -0.1530
10920TIP3   OH254250   3.886   1.909  14.516  0.2334 -0.1589 -0.0865
10920TIP3    H154251   3.912   1.930  14.426 -0.3719  1.2517  0.0577
10920TIP3    H254252   3.792   1.921  14.518  0.4030  1.0897  1.0617
10921TIP3   OH254253   5.656   0.219  16.741 -0.5118 -0.2762 -0.3311
10921TIP3    H154254   5.743   0.259  16.735 -0.3479 -0.5457  0.2086
10921TIP3    H254255   5.659   0.146  16.679 -0.6631  0.2731 -0.9936
10922TIP3   OH254256   3.806   4.699  13.904  0.1771 -0.4846  0.0927
10922TIP3    H154257   3.887   4.649  13.905  0.7500  0.4301  0.6324
10922TIP3    H254258   3.832   4.786  13.874 -0.6949 -0.3209 -0.2202
10923TIP3   OH254259   1.368   0.654   5.667 -0.3695  0.6040  0.0733
10923TIP3    H154260   1.288   0.698   5.694 -2.0470 -1.9308 -0.6090
10923TIP3    H254261   1.386   0.591   5.737 -0.4703 -0.6441 -0.9969
10924TIP3   OH254262   1.850   0.692   1.110 -0.6107  0.1059 -0.1287
10924TIP3    H154263   1.906   0.770   1.106  1.9970 -1.6792  0.5599
10924TIP3    H254264   1.867   0.654   1.196  0.5559 -2.9417 -1.6581
10925TIP3   OH254265   6.382   6.106  11.486 -0.0249 -0.0087 -0.2176
10925TIP3    H154266   6.380   6.062  11.401 -0.3568 -1.5622  0.5726
10925TIP3    H254267   6.330   6.050  11.543  2.0571 -0.1920  1.5773
10926TIP3   OH254268   6.205   1.656   1.790 -0.1403  0.2057  0.1522
10926TIP3    H154269   6.243   1.626   1.707  1.2722 -1.2003  1.2587
10926TIP3    H254270   6.223   1.750   1.792  1.5359 -0.0845 -0.2732
10927TIP3   OH254271   0.221   1.872  12.678 -0.0975  0.0725  0.0743
10927TIP3    H154272   0.210   1.806  12.610  0.9854  1.7520 -1.7843
10927TIP3    H254273   0.314   1.894  12.675  0.0374 -0.0470  2.3460
10928TIP3   OH254274   1.621   3.096   1.173  0.2760  0.1638  0.2572
10928TIP3    H154275   1.542   3.141   1.203  0.5847  1.0233 -0.1960
10928TIP3    H254276   1.654   3.051   1.251 -0.1605  0.5446  0.6667
10929TIP3   OH254277   1.605   0.010  12.588  0.4194  0.1840 -0.4325
10929TIP3    H154278   1.541  -0.012  12.520 -1.2319  2.1650  0.4264
10929TIP3    H254279   1.657   0.080  12.550  0.4312  0.3022 -0.1996
10930TIP3   OH254280   2.577   1.942  14.594  0.8054 -0.4556 -0.4468
10930TIP3    H154281   2.558   1.871  14.655 -0.2044  1.3125  1.3855
10930TIP3    H254282   2.556   1.907  14.508 -0.9997 -1.9337  0.5665
10931TIP3   OH254283   5.071   3.921  14.259 -0.7575  0.4134  0.1289
10931TIP3    H154284   5.088   3.992  14.197  1.7412 -0.5956 -0.3815
10931TIP3    H254285   4.976   3.919  14.267 -0.8625  4.9403  1.4926
10932TIP3   OH254286   4.138   2.377  12.352 -0.3065 -0.4566 -0.4192
10932TIP3    H154287   4.090   2.372  12.270  1.5911 -2.0446 -1.4792
10932TIP3    H254288   4.230   2.378  12.326  0.3165 -0.7596  1.6755
10933TIP3   OH254289   5.511   2.280   0.749  0.9600 -0.2612 -0.0271
10933TIP3    H154290   5.469   2.305   0.832  0.0910 -1.7847  0.0110
10933TIP3    H254291   5.544   2.362   0.713 -2.0491  0.9979 -0.0342
10934TIP3   OH254292   6.669   2.141   1.849  0.7777 -0.1527 -0.0762
10934TIP3    H154293   6.727   2.131   1.774  1.5574  1.1881  0.3263
10934TIP3    H254294   6.726   2.127   1.925  0.1155 -0.9283  0.2873
10935TIP3   OH254295   4.994   3.310  12.105 -0.1433  0.1320 -0.2380
10935TIP3    H154296   4.932   3.246  12.140 -0.5710  1.0414  0.7071
10935TIP3    H254297   5.042   3.263  12.038  0.1796 -1.4585  1.0837
10936TIP3   OH254298   1.075   6.707   5.394  0.6410 -0.4157  0.3657
10936TIP3    H154299   1.126   6.768   5.447 -1.1397  0.9526  0.5461
10936TIP3    H254300   1.048   6.639   5.456 -0.5985  0.6552  1.0360
10937TIP3   OH254301   2.161   2.280  13.228 -0.7296 -0.1880  0.3640
10937TIP3    H154302   2.086   2.301  13.283  0.5234 -1.8415  2.8055
10937TIP3    H254303   2.126   2.219  13.162 -1.8820  0.4727  0.3557
10938TIP3   OH254304   1.647   2.744   1.142  0.2873  0.5429 -0.0958
10938TIP3    H154305   1.556   2.751   1.171  0.2637  0.0383 -0.0435
10938TIP3    H254306   1.675   2.834   1.129  0.0719  0.7392  0.7923
10939TIP3   OH254307   5.917   5.714   0.537 -0.7817 -0.3385  0.3516
10939TIP3    H154308   5.859   5.655   0.584 -0.3682 -1.9368 -1.0720
10939TIP3    H254309   5.886   5.802   0.559 -1.1474 -1.0604  2.8345
10940TIP3   OH254310   1.328   5.490   5.700  0.0123  0.0549 -0.2178
10940TIP3    H154311   1.330   5.408   5.649  0.8563 -1.6679  2.4748
10940TIP3    H254312   1.416   5.526   5.688  0.7647 -1.2066  1.3004
10941TIP3   OH254313   0.863   3.318  16.017 -0.1116  0.7937  0.5309
10941TIP3    H154314   0.776   3.280  16.008 -0.6288  2.2233 -0.7844
10941TIP3    H254315   0.884   3.309  16.109 -0.6217 -1.7696  0.4301
10942TIP3   OH254316   3.360   3.979   0.705 -0.3998 -0.7599  0.1206
10942TIP3    H154317   3.351   3.895   0.751  0.0077 -0.6391  0.4283
10942TIP3    H254318   3.300   4.038   0.750 -0.2522 -0.7328  0.2842
10943TIP3   OH254319   6.630   5.176  16.619 -0.0916  0.1198 -0.0932
10943TIP3    H154320   6.601   5.205  16.705  0.6333 -0.4279  0.3448
10943TIP3    H254321   6.673   5.252  16.581 -0.3101  0.3286  0.0785
10944TIP3   OH254322   5.784   1.379   0.835  0.4777  0.0019 -0.9557
10944TIP3    H154323   5.871   1.411   0.813  0.0874  1.4912 -0.3887
10944TIP3    H254324   5.732   1.393   0.755  0.8263 -1.1266 -1.3771
10945TIP3   OH254325   1.439   1.467   4.380  0.1829  0.4873 -0.0880
10945TIP3    H154326   1.347   1.467   4.354 -0.1719 -1.6548  1.0961
10945TIP3    H254327   1.453   1.553   4.418 -2.0812 -0.1227  2.2494
10946TIP3   OH254328   5.349   1.328  14.070 -0.0690  0.3017 -0.7124
10946TIP3    H154329   5.381   1.390  14.004 -0.2637  1.3338  0.1537
10946TIP3    H254330   5.427   1.276  14.093 -0.2052 -0.7346 -2.4468
10947TIP3   OH254331   4.023   6.798   0.746 -0.4434  0.5003  0.3494
10947TIP3    H154332   4.043   6.883   0.786 -2.1171  0.8452  0.4955
10947TIP3    H254333   3.983   6.747   0.816 -1.6462  0.4349 -0.3754
10948TIP3   OH254334   3.717   1.823  15.349  0.0761 -0.2372 -0.1595
10948TIP3    H154335   3.764   1.854  15.426  1.6647 -0.5207 -1.0029
10948TIP3    H254336   3.689   1.734  15.372  1.0285 -0.5249 -0.1308
10949TIP3   OH254337   0.310   4.050   0.550 -0.6532 -0.1161 -0.1567
10949TIP3    H154338   0.343   4.139   0.534 -0.1762 -0.3374 -0.4366
10949TIP3    H254339   0.217   4.062   0.569 -0.8076  0.3641 -1.1456
10950TIP3   OH254340   4.399   0.471  11.131 -0.1806 -0.5376  0.8111
10950TIP3    H154341   4.443   0.414  11.068 -0.1279  1.7668 -1.3041
10950TIP3    H254342   4.307   0.465  11.109 -0.0328  1.3155 -0.4146
10951TIP3   OH254343   6.038   5.306   0.337  0.4038 -0.1174 -0.5453
10951TIP3    H154344   5.962   5.264   0.377  2.1195 -1.6650  1.2137
10951TIP3    H254345   6.044   5.391   0.379  0.9518 -0.8989  1.0115
10952TIP3   OH254346   0.278   2.407   5.471 -0.6635 -0.1054 -0.2857
10952TIP3    H154347   0.200   2.387   5.419 -1.1255  1.4955 -0.2145
10952TIP3    H254348   0.340   2.445   5.409 -0.8445  0.8890  0.1454
10953TIP3   OH254349   4.748   0.414  12.333  0.3066  0.0363 -0.7348
10953TIP3    H154350   4.839   0.409  12.362 -0.0290  0.4300  0.4053
10953TIP3    H254351   4.716   0.324  12.342  0.3296  0.0698 -0.2825
10954TIP3   OH254352   6.600   2.580  14.851  0.4233 -0.7963 -0.2632
10954TIP3    H154353   6.581   2.625  14.769  0.1599  1.3288  0.9412
10954TIP3    H254354   6.676   2.626  14.887  0.2655 -1.4394  0.9082
10955TIP3   OH254355   2.089   6.472   1.773 -0.3788 -0.4439  0.1897
10955TIP3    H154356   2.184   6.480   1.786 -0.6879  1.5592  1.5644
10955TIP3    H254357   2.076   6.381   1.750  1.9146 -0.7246 -0.1689
10956TIP3   OH254358   6.414   0.550  12.294 -0.4292 -0.5141 -0.2191
10956TIP3    H154359   6.457   0.573  12.212 -0.5205 -0.4135 -0.2377
10956TIP3    H254360   6.379   0.462  12.279  0.2447 -0.8172 -0.0197
10957TIP3   OH254361   0.573   2.649   2.740  0.2785  0.2898 -0.1194
10957TIP3    H154362   0.581   2.553   2.736  1.9559  0.4835 -1.5677
10957TIP3    H254363   0.632   2.681   2.673 -0.6881  2.3507 -0.0122
10958TIP3   OH254364   3.892   1.238  11.374  0.6326 -0.0835 -0.6897
10958TIP3    H154365   3.927   1.156  11.408 -0.5765 -0.7277 -0.9971
10958TIP3    H254366   3.955   1.265  11.307 -0.4849 -2.2990 -2.6906
10959TIP3   OH254367   5.532   6.701  10.856 -0.0267 -0.1016  0.2096
10959TIP3    H154368   5.532   6.684  10.950 -0.9881 -1.4547 -0.0198
10959TIP3    H254369   5.485   6.627  10.818 -2.7213  2.1096 -1.0017
10960TIP3   OH254370   3.018   5.931  17.021  0.1679 -0.0303 -0.1410
10960TIP3    H154371   3.026   5.836  17.018  0.3520 -0.0387  0.6615
10960TIP3    H254372   3.022   5.958  16.929  1.2463 -0.7003 -0.2982
10961TIP3   OH254373   0.792   1.720   6.356 -0.1377 -0.0552 -0.2929
10961TIP3    H154374   0.737   1.762   6.290 -1.7528  1.2950  1.8121
10961TIP3    H254375   0.867   1.778   6.365 -0.5428  0.4435 -0.0578
10962TIP3   OH254376   3.343   2.065  16.052  0.0388 -0.5202 -0.1109
10962TIP3    H154377   3.394   1.998  16.099  0.6472 -0.1433 -0.2236
10962TIP3    H254378   3.365   2.052  15.960 -0.7220 -0.8933 -0.2445
10963TIP3   OH254379   5.787   3.454   2.080 -0.3232  0.8833 -0.4492
10963TIP3    H154380   5.700   3.449   2.041 -0.8963  3.4005  0.4176
10963TIP3    H254381   5.836   3.512   2.022  0.6914 -0.2313 -0.7368
10964TIP3   OH254382   2.973   2.259   3.769 -0.3065 -0.0340  0.0429
10964TIP3    H154383   3.025   2.318   3.715  0.0148  1.5174  1.9811
10964TIP3    H254384   3.018   2.174   3.762  1.1803  0.7408 -0.1218
10965TIP3   OH254385   5.343   0.325  13.235  0.1626 -0.0182  0.8741
10965TIP3    H154386   5.336   0.335  13.330 -0.2897  2.4543  0.6218
10965TIP3    H254387   5.324   0.412  13.200  2.4485 -0.3392 -1.3835
10966TIP3   OH254388   0.240   3.595   5.130 -0.2652  0.1373  0.7374
10966TIP3    H154389   0.275   3.666   5.076 -1.4402 -0.0070 -0.2367
10966TIP3    H254390   0.145   3.609   5.130 -0.4942 -1.2785  0.7382
10967TIP3   OH254391   6.604   0.426  13.054  0.5590 -0.5787 -0.1052
10967TIP3    H154392   6.687   0.394  13.018  0.5616 -1.0292  0.3079
10967TIP3    H254393   6.542   0.356  13.036  0.2861 -0.2816 -0.3260
10968TIP3   OH254394   3.531   5.246   2.193  0.6137  0.7641 -0.1485
10968TIP3    H154395   3.448   5.211   2.161 -0.5354  2.0407  1.3560
10968TIP3    H254396   3.584   5.169   2.214  0.5400 -0.0842 -2.8534
10969TIP3   OH254397   4.067   4.126  13.765  0.6293 -0.3819 -0.5011
10969TIP3    H154398   4.054   4.044  13.718  0.7135  0.1057 -1.3723
10969TIP3    H254399   4.079   4.099  13.857 -0.3468 -1.2679 -0.6247
10970TIP3   OH254400   0.249   1.179   1.687 -0.2574 -0.6233 -0.1100
10970TIP3    H154401   0.253   1.273   1.669 -0.0446 -1.0195 -2.2466
10970TIP3    H254402   0.159   1.164   1.714  0.3171  0.5824  2.6097
10971TIP3   OH254403   6.290   1.414   3.562 -0.1602 -0.1487 -0.2443
10971TIP3    H154404   6.355   1.481   3.538 -0.2793 -0.2793 -0.9389
10971TIP3    H254405   6.248   1.391   3.480 -0.8089 -0.3638  0.1434
10972TIP3   OH254406   1.455   0.607   0.897  0.0102 -0.0392 -0.6450
10972TIP3    H154407   1.427   0.643   0.981 -2.0170  1.8487 -2.0790
10972TIP3    H254408   1.444   0.512   0.907  0.7453  0.0761  1.5244
10973TIP3   OH254409   2.498   0.083   0.421 -0.4864 -0.6110 -0.2701
10973TIP3    H154410   2.549   0.137   0.361 -0.0926  0.3832  0.9224
10973TIP3    H254411   2.446   0.026   0.365 -0.6833  0.8114 -1.5601
10974TIP3   OH254412   3.995   2.051   3.385 -0.2987 -0.2020  0.7282
10974TIP3    H154413   3.985   2.142   3.410  2.1095 -0.4589  2.8407
10974TIP3    H254414   4.082   2.046   3.345 -1.1856 -1.2334 -1.1947
10975TIP3   OH254415   2.052   5.482   2.120  0.3482  0.0407 -0.1002
10975TIP3    H154416   2.000   5.561   2.112  0.3422 -0.0108 -0.5780
10975TIP3    H254417   2.032   5.448   2.207  1.3099  1.2477  0.6041
10976TIP3   OH254418   0.085   5.465  15.919 -0.4582 -0.2878 -0.2189
10976TIP3    H154419   0.180   5.457  15.916 -0.2376  1.7821  0.2408
10976TIP3    H254420   0.057   5.404  15.987  0.6093 -0.3558  0.1541
10977TIP3   OH254421   2.976   1.737   1.863 -0.0544 -0.0023 -0.1035
10977TIP3    H154422   2.961   1.643   1.858 -0.0959  0.0661 -1.2709
10977TIP3    H254423   2.897   1.772   1.905 -0.1319 -0.4511  0.1269
10978TIP3   OH254424   4.591   1.921   3.713 -0.1536  1.0935  0.6401
10978TIP3    H154425   4.638   1.999   3.685  2.0089  0.5672  2.6821
10978TIP3    H254426   4.572   1.874   3.631  3.0270  1.2468 -0.2598
10979TIP3   OH254427   4.337   5.775   1.879  0.1250 -0.3051  0.3400
10979TIP3    H154428   4.298   5.860   1.903  0.2682 -0.1145 -0.1032
10979TIP3    H254429   4.362   5.736   1.963 -0.6903 -0.2680  0.6052
10980TIP3   OH254430   1.727   0.946  13.347  0.4606  0.6219 -0.2006
10980TIP3    H154431   1.641   0.921  13.381  0.4328  0.0934 -0.6634
10980TIP3    H254432   1.784   0.874  13.372  0.8048  1.0449  0.2388
10981TIP3   OH254433   2.166   4.019   6.501  0.4549  0.0169 -0.1817
10981TIP3    H154434   2.115   3.954   6.453  2.8510  0.5301 -3.5887
10981TIP3    H254435   2.105   4.091   6.516 -0.9428 -1.0767 -0.4767
10982TIP3   OH254436   5.715   6.155   6.624  0.5510  0.0576 -0.1408
10982TIP3    H154437   5.692   6.161   6.531  0.4583  0.5111 -0.0890
10982TIP3    H254438   5.750   6.241   6.646 -0.1413  0.1943  0.4413
10983TIP3   OH254439   5.271   0.754  13.568  0.2835  0.1032  0.2092
10983TIP3    H154440   5.367   0.746  13.572  0.5657  2.7813 -0.1914
10983TIP3    H254441   5.248   0.800  13.648 -0.5783  0.2397 -0.1160
10984TIP3   OH254442   5.698   4.606   1.612 -0.0495 -0.3040  0.3161
10984TIP3    H154443   5.695   4.701   1.602  0.2318 -0.2648  0.5551
10984TIP3    H254444   5.766   4.592   1.678 -0.2628 -0.6581  0.4612
10985TIP3   OH254445   6.053   1.660   3.524 -0.0756  0.2791 -0.0943
10985TIP3    H154446   6.142   1.686   3.500 -0.1328  1.0618  0.5353
10985TIP3    H254447   6.038   1.580   3.474  1.1786 -0.1506  0.1743
10986TIP3   OH254448   0.884   4.710   1.487 -0.2707 -0.0008  0.0610
10986TIP3    H154449   0.978   4.729   1.485 -0.1628 -0.4555  0.6285
10986TIP3    H254450   0.846   4.783   1.535 -0.1116 -0.1818  0.4683
10987TIP3   OH254451   1.714   5.176  15.330  0.2468  0.5197  0.1516
10987TIP3    H154452   1.711   5.225  15.412 -3.4636 -0.3473  0.5949
10987TIP3    H254453   1.689   5.240  15.263 -1.6084  0.0183  0.3482
10988TIP3   OH254454   0.804   0.710   5.155  0.3300  0.3301 -0.7126
10988TIP3    H154455   0.728   0.698   5.212 -0.4263  1.5502 -1.4171
10988TIP3    H254456   0.849   0.626   5.157  0.5228  0.4601  1.9430
10989TIP3   OH254457   6.423   5.205   5.893  0.0571  1.2513 -0.1746
10989TIP3    H154458   6.455   5.116   5.906  0.2983  1.1578 -1.3780
10989TIP3    H254459   6.328   5.198   5.896 -0.0594  0.3911 -3.5527
10990TIP3   OH254460   2.412   0.629  11.170  0.4846  0.1263 -0.0282
10990TIP3    H154461   2.423   0.705  11.227  0.3922 -0.3970  0.7005
10990TIP3    H254462   2.323   0.636  11.137 -0.0488 -0.4735  1.2471
10991TIP3   OH254463   6.251   1.309  11.491 -0.0265  0.3612  0.7001
10991TIP3    H154464   6.275   1.249  11.421 -0.4342 -0.1803  1.0182
10991TIP3    H254465   6.268   1.396  11.455 -0.5847  0.1012 -0.2053
10992TIP3   OH254466   3.839   4.886  14.241  0.8361 -0.7465  0.6762
10992TIP3    H154467   3.908   4.832  14.279  1.1194 -0.4146  0.6389
10992TIP3    H254468   3.882   4.931  14.168  1.0711  0.8623  1.7727
10993TIP3   OH254469   0.163   4.933   4.164 -0.3776  0.1057  0.8194
10993TIP3    H154470   0.159   5.018   4.208  2.1180 -0.0721  1.4615
10993TIP3    H254471   0.075   4.920   4.129 -0.6343  3.2630  0.1335
10994TIP3   OH254472   5.976   5.298   4.986  0.5995  0.1451  0.1583
10994TIP3    H154473   5.915   5.366   5.015  1.3295  0.6481  0.5368
10994TIP3    H254474   6.047   5.346   4.945 -0.7751 -0.6067 -3.2207
10995TIP3   OH254475   0.707   1.016   4.943 -0.1159  0.0985 -0.4430
10995TIP3    H154476   0.772   0.964   4.895  0.5097  1.1284 -0.7077
10995TIP3    H254477   0.688   1.090   4.886 -0.1533  0.7741  0.4426
10996TIP3   OH254478   4.693   5.291  11.817 -0.7342 -0.2142  0.2568
10996TIP3    H154479   4.676   5.269  11.725  0.7050  3.9500 -1.1558
10996TIP3    H254480   4.611   5.330  11.847 -1.2169 -1.6101  0.7973
10997TIP3   OH254481   4.810   4.897  16.689  0.0582  0.5181  0.1014
10997TIP3    H154482   4.864   4.963  16.732  2.1973 -1.4966  0.6117
10997TIP3    H254483   4.849   4.888  16.601 -0.0198 -0.2514  0.1405
10998TIP3   OH254484   2.933   0.602   5.780 -0.4569 -0.2212  0.4402
10998TIP3    H154485   2.936   0.634   5.690 -1.5840 -1.4119 -0.0422
10998TIP3    H254486   3.024   0.596   5.807 -0.0655 -0.6825 -0.9319
10999TIP3   OH254487   2.715   5.586   4.866 -0.3095  0.4618  0.1994
10999TIP3    H154488   2.735   5.554   4.953 -0.4322  0.5336  0.2540
10999TIP3    H254489   2.619   5.581   4.860 -0.4650  2.3357  0.7889
11000TIP3   OH254490   3.663   3.796  11.969 -0.0694  0.2352 -0.6192
11000TIP3    H154491   3.729   3.736  11.935 -0.7421 -0.3806 -0.8555
11000TIP3    H254492   3.640   3.762  12.055  2.7976  2.7074  1.1849
11001TIP3   OH254493   0.532   3.379   1.289  0.3985 -0.2986 -0.7683
11001TIP3    H154494   0.605   3.343   1.239  0.0362  0.1993 -1.6719
11001TIP3    H254495   0.551   3.472   1.297  1.2478 -0.6361  1.4162
11002TIP3   OH254496   1.118   2.860   3.424 -0.4100 -0.3710  0.3343
11002TIP3    H154497   1.030   2.893   3.443 -0.6852  0.3463 -2.0308
11002TIP3    H254498   1.177   2.926   3.461 -0.8560 -0.3547  1.0413
11003TIP3   OH254499   0.514   3.101  16.680 -0.4423 -0.5472  0.0453
11003TIP3    H154500   0.424   3.121  16.708 -0.6804  1.7726 -2.2330
11003TIP3    H254501   0.567   3.169  16.720 -0.1658  0.0817 -1.3874
11004TIP3   OH254502   0.236   4.199   2.018 -0.2618 -0.3523  0.0553
11004TIP3    H154503   0.281   4.248   1.949 -0.2352 -0.2491  0.1453
11004TIP3    H254504   0.272   4.234   2.099  1.7335 -2.4015  0.0882
11005TIP3   OH254505   4.839   0.754   2.568  0.0759 -0.1798  0.1921
11005TIP3    H154506   4.771   0.815   2.596 -0.7508  0.0734 -2.2627
11005TIP3    H254507   4.854   0.698   2.644  0.6992  2.8994  2.4526
11006TIP3   OH254508   1.885   3.674  13.414  0.2008  0.0382  0.1111
11006TIP3    H154509   1.967   3.719  13.390  0.0413  0.4481  0.3177
11006TIP3    H254510   1.830   3.680  13.336 -0.7279  2.3179  0.9073
11007TIP3   OH254511   4.685   4.830  10.189  0.0667 -0.3749 -0.0152
11007TIP3    H154512   4.611   4.890  10.203  1.2004  1.4126 -1.4598
11007TIP3    H254513   4.646   4.755  10.143 -0.9678  0.2725 -0.2187
11008TIP3   OH254514   4.302   3.590  13.503  0.7839  0.1343 -0.4253
11008TIP3    H154515   4.208   3.610  13.509  0.6186 -1.0268  1.4944
11008TIP3    H254516   4.310   3.503  13.541  3.0614  1.5444  2.5947
11009TIP3   OH254517   5.682   2.572  12.963  0.4641 -0.3567 -0.1469
11009TIP3    H154518   5.741   2.499  12.980  0.1408 -0.6218 -0.1650
11009TIP3    H254519   5.628   2.543  12.889  1.1237  0.3568 -0.9233
11010TIP3   OH254520   6.245   3.519   0.889 -0.4704 -0.8007  0.2244
11010TIP3    H154521   6.293   3.463   0.950  1.4376  0.1468 -0.3601
11010TIP3    H254522   6.258   3.608   0.923 -1.5892 -0.5027 -0.1112
11011TIP3   OH254523   0.241   0.399  10.897  0.0722  0.0064  0.0705
11011TIP3    H154524   0.243   0.303  10.889  0.8178  0.0131  0.1172
11011TIP3    H254525   0.182   0.428  10.828  1.1133 -0.3866 -1.0113
11012TIP3   OH254526   3.309   4.123   4.895  0.1601 -0.2111 -0.6839
11012TIP3    H154527   3.257   4.072   4.833 -0.9337 -0.4911  0.4372
11012TIP3    H254528   3.244   4.169   4.948  1.1011  1.1268 -0.6555
11013TIP3   OH254529   1.274   4.626  15.366 -0.0345 -0.1960  0.1882
11013TIP3    H154530   1.277   4.719  15.388 -0.5104 -0.0787 -0.2409
11013TIP3    H254531   1.360   4.608  15.329 -0.5688  0.5041 -1.4460
11014TIP3   OH254532   2.421   4.808  11.714  0.4463  0.0835  0.1884
11014TIP3    H154533   2.345   4.850  11.754 -1.4423 -2.6123 -0.4558
11014TIP3    H254534   2.389   4.771  11.632  2.6650 -0.4200 -0.5057
11015TIP3   OH254535   1.336   5.462   3.101 -0.1331 -0.0244  0.1762
11015TIP3    H154536   1.343   5.372   3.070  2.5279 -0.3603  1.6153
11015TIP3    H254537   1.389   5.464   3.181 -0.7522  2.6410  0.5650
11016TIP3   OH254538   3.159   1.276  10.809 -0.4233  0.3531  0.4362
11016TIP3    H154539   3.201   1.197  10.774 -0.4014  0.1783  0.8533
11016TIP3    H254540   3.195   1.347  10.756 -1.5342 -0.0612 -0.9145
11017TIP3   OH254541   0.867   2.574  16.134  0.0873  0.4889 -0.5283
11017TIP3    H154542   0.793   2.593  16.077 -0.4912 -0.1469  0.0079
11017TIP3    H254543   0.828   2.550  16.218  0.9313  1.5141  0.1719
11018TIP3   OH254544   3.595   5.874  16.421 -0.3676 -0.5331 -0.1774
11018TIP3    H154545   3.597   5.963  16.455 -0.3755 -1.1858  1.5866
11018TIP3    H254546   3.661   5.827  16.471 -1.2538 -1.8300 -0.1854
11019TIP3   OH254547   5.527   0.095   0.628 -0.1491 -0.5451  0.1517
11019TIP3    H154548   5.610   0.125   0.665  0.4659 -0.1859 -1.4660
11019TIP3    H254549   5.470   0.171   0.634  0.7360  0.3136 -1.9394
11020TIP3   OH254550   4.909   1.887   1.600  0.4318 -0.3375  0.5542
11020TIP3    H154551   5.004   1.899   1.602  0.4013  0.2174 -0.7683
11020TIP3    H254552   4.897   1.793   1.615  1.2681 -0.6473 -0.5725
11021TIP3   OH254553   5.940   6.390  13.056  0.4289 -0.0744 -0.1698
11021TIP3    H154554   5.861   6.404  13.003  0.4563  0.0029 -0.1885
11021TIP3    H254555   5.994   6.331  13.004 -0.6208 -1.9601  0.8329
11022TIP3   OH254556   3.480   5.087  13.130 -0.7000  0.0368  0.5664
11022TIP3    H154557   3.501   5.072  13.038 -0.3725  1.4938  0.3798
11022TIP3    H254558   3.387   5.110  13.130 -1.0033 -1.1771  0.7520
11023TIP3   OH254559   4.674   4.415  15.266  0.1854  0.2181  0.0226
11023TIP3    H154560   4.623   4.338  15.291  0.8353 -0.4498 -0.6727
11023TIP3    H254561   4.612   4.487  15.269 -0.2394 -0.1906  1.5053
11024TIP3   OH254562   4.114   3.773  11.764  0.4766 -0.2160 -0.0194
11024TIP3    H154563   4.167   3.708  11.718  0.1938  0.3050 -1.1145
11024TIP3    H254564   4.146   3.858  11.732 -0.3280  0.1300  0.0763
11025TIP3   OH254565   1.547   5.245  12.269 -0.2840  0.5927  0.2140
11025TIP3    H154566   1.596   5.323  12.245  1.1027 -0.5836 -0.8576
11025TIP3    H254567   1.490   5.229  12.194 -0.7247  0.6845  0.5246
11026TIP3   OH254568   6.267   6.815   6.720  0.3481 -0.7428  0.1283
11026TIP3    H154569   6.191   6.787   6.670 -0.1897  1.1418 -0.1396
11026TIP3    H254570   6.234   6.829   6.809  0.2220  0.6975 -0.1323
11027TIP3   OH254571   2.178   1.100   6.155  0.2433 -0.1968 -0.4134
11027TIP3    H154572   2.155   1.093   6.062  2.4900  0.2804 -1.0203
11027TIP3    H254573   2.269   1.073   6.160  0.6132  1.2585  1.4356
11028TIP3   OH254574   5.159   2.639  11.300 -0.1011 -0.0435  0.5733
11028TIP3    H154575   5.079   2.619  11.250 -0.0997  0.6560  0.2949
11028TIP3    H254576   5.155   2.733  11.315 -0.1627 -0.2683  2.0073
11029TIP3   OH254577   5.588   1.991   0.785  0.2559  0.1068  0.3941
11029TIP3    H154578   5.572   2.085   0.795 -1.8214 -0.0680 -0.8929
11029TIP3    H254579   5.595   1.978   0.691  5.0964 -0.3876  0.7420
11030TIP3   OH254580   2.065   0.581  17.115 -0.0922  0.0021 -0.1226
11030TIP3    H154581   2.088   0.624  17.033 -0.0204 -0.9205 -0.5983
11030TIP3    H254582   1.969   0.582  17.116 -0.0846  0.8339  0.2308
11031TIP3   OH254583   1.162   4.526   6.157 -0.0264  0.3083 -0.1291
11031TIP3    H154584   1.093   4.592   6.153  0.5924  1.0362  0.8961
11031TIP3    H254585   1.160   4.495   6.247  2.3160  1.8202  0.4976
11032TIP3   OH254586   5.819   1.617  12.734 -0.0624  0.0991  0.2600
11032TIP3    H154587   5.808   1.575  12.649  0.0168  3.8482 -1.7218
11032TIP3    H254588   5.794   1.550  12.797 -1.5966 -2.3219 -2.7691
11033TIP3   OH254589   6.216   0.452   5.499  0.4718 -0.4822 -0.5184
11033TIP3    H154590   6.286   0.497   5.451 -0.1585  1.4577  0.3196
11033TIP3    H254591   6.254   0.433   5.585  0.0664  0.3234 -0.1577
11034TIP3   OH254592   3.404   0.604   5.928  0.4956 -0.1296  0.2942
11034TIP3    H154593   3.455   0.525   5.946  0.3637 -0.0474  1.0477
11034TIP3    H254594   3.378   0.636   6.014  2.4054  2.0068  0.1250
11035TIP3   OH254595   2.160   2.152   6.602  0.1574 -0.1263 -0.5251
11035TIP3    H154596   2.104   2.174   6.676 -0.8897  0.6028 -1.5161
11035TIP3    H254597   2.148   2.058   6.589 -1.2011  0.1109 -1.0253
11036TIP3   OH254598   3.563   0.165   4.030  0.6158  0.2998  0.7150
11036TIP3    H154599   3.639   0.178   4.087  2.3408  0.1549 -1.4905
11036TIP3    H254600   3.559   0.070   4.016 -0.9730  0.1379  2.1183
11037TIP3   OH254601   4.920   4.632  10.110 -0.8299  0.1136  0.1075
11037TIP3    H154602   4.926   4.596  10.199 -0.2095  0.6264  0.2800
11037TIP3    H254603   4.845   4.587  10.071  0.6989 -2.3107 -0.1288
11038TIP3   OH254604   4.326   5.368   0.724  0.0277 -0.4947  0.1395
11038TIP3    H154605   4.287   5.455   0.724  1.1929  0.0364 -0.6627
11038TIP3    H254606   4.252   5.309   0.743 -0.8665  0.6095  0.1698
11039TIP3   OH254607   3.805   4.565   0.733  0.0441  0.0176 -0.1550
11039TIP3    H154608   3.880   4.517   0.770 -0.8396 -0.2754  1.2730
11039TIP3    H254609   3.845   4.637   0.685  1.2879 -0.6116 -0.1041
11040TIP3   OH254610   3.144   6.289  16.996 -0.6862 -0.0036 -0.0844
11040TIP3    H154611   3.192   6.211  16.966 -0.7937 -0.5264  1.0726
11040TIP3    H254612   3.152   6.351  16.924  0.9756 -0.4073 -0.2722
11041TIP3   OH254613   6.370   1.664  12.362 -0.4718 -0.0877  0.4900
11041TIP3    H154614   6.304   1.628  12.302  0.9976 -1.8590 -0.0870
11041TIP3    H254615   6.449   1.671  12.309  0.8756 -1.7953  2.2272
11042TIP3   OH254616   5.399   0.179   4.523  0.1551  0.1043 -0.4091
11042TIP3    H154617   5.474   0.155   4.578 -0.6249 -1.4784 -0.0071
11042TIP3    H254618   5.402   0.275   4.519  1.1572  0.1581  1.0716
11043TIP3   OH254619   0.464   5.293  12.462 -0.3043 -0.1490  0.0473
11043TIP3    H154620   0.454   5.248  12.378 -0.3500  0.0598 -0.0586
11043TIP3    H254621   0.527   5.363  12.445  0.7083 -0.9289  0.5095
11044TIP3   OH254622   3.597   0.295   3.171  0.1480 -0.5425 -0.4080
11044TIP3    H154623   3.516   0.321   3.215 -0.4288 -1.6066 -0.8304
11044TIP3    H254624   3.622   0.371   3.119 -0.4693 -0.1407 -0.1153
11045TIP3   OH254625   1.188   1.021   3.985 -0.0838 -0.6742 -0.4241
11045TIP3    H154626   1.250   0.999   3.915 -0.7210 -2.0171 -0.5789
11045TIP3    H254627   1.168   0.937   4.026  0.4112  0.1226  1.4863
11046TIP3   OH254628   6.137   1.234   5.890 -0.2877  0.2770 -0.3840
11046TIP3    H154629   6.042   1.240   5.876 -0.3205  0.1653 -0.2130
11046TIP3    H254630   6.153   1.285   5.969  0.0381  1.7562 -1.3821
11047TIP3   OH254631   1.461   4.341  13.944  0.2028 -0.6612  0.1113
11047TIP3    H154632   1.489   4.342  13.852  0.4772 -1.1832  0.1852
11047TIP3    H254633   1.381   4.393  13.945  0.0693 -0.8462 -0.4688
11048TIP3   OH254634   0.830   1.304  12.085  0.3520  0.2774  0.3799
11048TIP3    H154635   0.829   1.263  12.172 -0.2113  1.3220  0.8773
11048TIP3    H254636   0.852   1.232  12.025 -1.5320 -0.9727  1.1324
11049TIP3   OH254637   1.954   6.423  11.395 -0.3864 -0.6407 -0.5794
11049TIP3    H154638   2.041   6.385  11.385  1.0500  2.6613 -1.4671
11049TIP3    H254639   1.915   6.418  11.308 -0.7258 -1.2473 -0.3981
11050TIP3   OH254640   3.777   1.379  12.686  0.5428 -0.3430 -0.3220
11050TIP3    H154641   3.852   1.433  12.662 -0.0055  1.0488  1.0245
11050TIP3    H254642   3.719   1.384  12.610  1.0138  0.0261 -0.6612
11051TIP3   OH254643   1.471   2.800   1.392  0.2924  0.2163  0.7059
11051TIP3    H154644   1.409   2.800   1.319  1.1733  0.2011 -0.0473
11051TIP3    H254645   1.472   2.709   1.422  0.3054  0.1157  0.4072
11052TIP3   OH254646   3.825   0.092  13.734  0.5796 -0.8025  0.1657
11052TIP3    H154647   3.766   0.044  13.792  0.4085 -0.5130  0.2363
11052TIP3    H254648   3.913   0.068  13.762  0.4929 -1.1609  0.1246
11053TIP3   OH254649   3.824   1.709  10.862 -0.3145 -0.0724 -0.1618
11053TIP3    H154650   3.851   1.656  10.937 -1.1843  1.0712  0.9922
11053TIP3    H254651   3.875   1.676  10.789  0.8948 -0.8996  1.0446
11054TIP3   OH254652   3.111   2.667  12.119 -0.5543  0.5349 -0.4972
11054TIP3    H154653   3.193   2.682  12.073  0.2229  0.4827  0.8481
11054TIP3    H254654   3.127   2.590  12.173 -1.8745 -0.1974 -1.1228
11055TIP3   OH254655   4.552   1.307   2.987 -0.5639 -0.0903  0.0178
11055TIP3    H154656   4.471   1.357   3.000  1.1127  3.2538 -1.5212
11055TIP3    H254657   4.536   1.257   2.907 -1.4901 -0.2922  0.3220
11056TIP3   OH254658   3.123   1.623  12.276 -0.1765 -0.7211 -0.3767
11056TIP3    H154659   3.080   1.702  12.307  3.1619  1.0312 -0.0212
11056TIP3    H254660   3.076   1.552  12.320 -0.9971  1.2470  2.0312
11057TIP3   OH254661   5.361   5.295  12.505  0.0966 -0.0446  0.2755
11057TIP3    H154662   5.314   5.327  12.582 -1.3183 -0.2954 -0.4660
11057TIP3    H254663   5.390   5.207  12.529 -0.0521  0.0029  0.6337
11058TIP3   OH254664   0.150   4.257  15.593 -0.1954 -0.3147  0.4501
11058TIP3    H154665   0.088   4.330  15.601 -1.1839 -1.0044 -0.9016
11058TIP3    H254666   0.236   4.299  15.593 -0.7660  0.8684 -0.5450
11059TIP3   OH254667   4.502   0.567   4.828  0.8629  0.4018 -0.0901
11059TIP3    H154668   4.443   0.523   4.767  0.8724 -0.5599  0.5893
11059TIP3    H254669   4.562   0.616   4.771  1.2829 -1.0084 -0.8955
11060TIP3   OH254670   0.277   1.101  17.054  0.0888  0.1591 -0.0630
11060TIP3    H154671   0.288   1.100  16.959 -1.1527 -1.7367 -0.2178
11060TIP3    H254672   0.354   1.147  17.088  0.1416  1.5418 -2.0332
11061TIP3   OH254673   3.166   5.299  10.615 -0.8183  0.9130 -0.1931
11061TIP3    H154674   3.100   5.356  10.577 -1.8692  0.4632  0.9288
11061TIP3    H254675   3.138   5.286  10.706 -0.2828 -0.9101 -0.2668
11062TIP3   OH254676   2.628   0.270  14.367 -0.2338  1.0402 -0.5888
11062TIP3    H154677   2.638   0.226  14.452 -1.2774 -1.2083 -1.5797
11062TIP3    H254678   2.576   0.348  14.387  0.2877  1.0081  0.9836
11063TIP3   OH254679   0.854   0.288  12.811 -0.0906 -0.3621 -0.0729
11063TIP3    H154680   0.783   0.340  12.773 -1.1354 -1.0257  0.9567
11063TIP3    H254681   0.862   0.321  12.901 -0.8769 -2.0581  0.6506
11064TIP3   OH254682   1.559   1.160   5.222  0.1583  0.2514 -0.3697
11064TIP3    H154683   1.610   1.137   5.300  0.2940  2.4860  0.2483
11064TIP3    H254684   1.481   1.105   5.227  0.4312 -0.0279  1.0504
11065TIP3   OH254685   2.440   3.224   2.031 -0.2691  0.4341  0.1754
11065TIP3    H154686   2.525   3.223   1.988 -0.5787  2.3940 -0.5020
11065TIP3    H254687   2.460   3.239   2.124  0.2097 -0.7405  0.2650
11066TIP3   OH254688   1.625   4.001  12.227 -0.2509  0.5082  0.1500
11066TIP3    H154689   1.681   3.925  12.236 -1.3794 -0.2140  1.2264
11066TIP3    H254690   1.611   4.031  12.316 -0.9929  1.1054 -0.1594
11067TIP3   OH254691   2.884   2.149  16.160  0.0868  0.4385  0.3435
11067TIP3    H154692   2.864   2.131  16.069  1.2188  2.3360 -0.3166
11067TIP3    H254693   2.828   2.223  16.184  2.0249  2.0121  0.1972
11068TIP3   OH254694   2.044   6.236  15.357 -0.6747 -0.4680  0.3750
11068TIP3    H154695   2.058   6.272  15.445 -0.3215 -2.9610  1.3694
11068TIP3    H254696   1.959   6.192  15.363 -0.5235 -0.8661 -0.4540
11069TIP3   OH254697   3.920   1.371  11.781 -0.1088  0.2642  0.0432
11069TIP3    H154698   3.972   1.324  11.716 -0.4609  0.8318 -0.6546
11069TIP3    H254699   3.960   1.347  11.865  0.1489 -0.7207 -0.3533
11070TIP3   OH254700   0.628   1.762  15.192 -0.3740 -0.0045 -0.1142
11070TIP3    H154701   0.542   1.784  15.155  0.1184 -0.6515 -1.6674
11070TIP3    H254702   0.611   1.685  15.247 -0.8001 -0.0630 -0.3246
11071TIP3   OH254703   1.012   6.013   5.209  0.1180  0.2342  0.1070
11071TIP3    H154704   0.990   6.016   5.302 -1.5780  1.5523 -0.2992
11071TIP3    H254705   0.986   5.925   5.181  1.7505 -0.5754  1.1291
11072TIP3   OH254706   1.458   1.436   5.245 -0.0025 -0.1467  0.4112
11072TIP3    H154707   1.367   1.410   5.257  0.0686  0.0282  1.3482
11072TIP3    H254708   1.503   1.355   5.219 -0.1331 -0.5712  1.4837
11073TIP3   OH254709   0.413   1.936  14.257 -0.3920 -0.2298  0.0029
11073TIP3    H154710   0.440   1.949  14.166  2.6106  2.4752  1.1539
11073TIP3    H254711   0.340   1.997  14.269  0.4387  0.8026 -0.1085
11074TIP3   OH254712   4.505   3.440  16.395  0.3721  0.1785 -0.6038
11074TIP3    H154713   4.456   3.519  16.374  0.9813  0.4713 -0.9043
11074TIP3    H254714   4.570   3.468  16.459 -0.3345 -0.3634  0.3735
11075TIP3   OH254715   0.140   2.324   3.013  0.2606 -0.7684  0.1608
11075TIP3    H154716   0.129   2.403   3.065 -1.9659 -0.1091 -1.2253
11075TIP3    H254717   0.222   2.336   2.966  0.6930  0.0233  1.1273
11076TIP3   OH254718   0.303   4.084  15.976 -0.2013  0.0239  0.0081
11076TIP3    H154719   0.338   4.000  15.947 -0.6573  0.3149 -1.4327
11076TIP3    H254720   0.345   4.148  15.919  0.7319  0.8636  1.6071
11077TIP3   OH254721   2.673   6.181  16.798 -0.4422 -0.0427  0.2361
11077TIP3    H154722   2.732   6.138  16.736 -1.4291 -0.5817 -0.3443
11077TIP3    H254723   2.731   6.217  16.865  0.5289 -0.7651 -0.1996
11078TIP3   OH254724   1.535   4.107   1.771 -0.5593  0.5358  0.0104
11078TIP3    H154725   1.509   4.067   1.688 -0.8422  0.3041  0.2065
11078TIP3    H254726   1.630   4.102   1.772 -0.5705  0.2821 -0.1756
11079TIP3   OH254727   4.172   5.652   4.418  0.0864  0.9210  0.8462
11079TIP3    H154728   4.093   5.602   4.440 -0.0407  0.9043  0.3479
11079TIP3    H254729   4.149   5.700   4.339  0.4466  1.2234  0.9223
11080TIP3   OH254730   1.721   3.707  14.620  0.4349 -0.5752 -0.3589
11080TIP3    H154731   1.638   3.731  14.578 -0.9934  0.5958  2.9393
11080TIP3    H254732   1.787   3.758  14.572 -0.9919  0.1151 -1.6626
11081TIP3   OH254733   0.589   3.097  12.110  0.0557  0.0225 -0.4134
11081TIP3    H154734   0.577   3.169  12.048  0.5852 -0.7645 -1.4547
11081TIP3    H254735   0.633   3.029  12.059  0.6452 -0.5820  0.8807
11082TIP3   OH254736   5.915   0.311  16.689  0.5021 -0.0273  0.3214
11082TIP3    H154737   5.940   0.382  16.630 -0.4712  0.1304  0.0866
11082TIP3    H254738   5.931   0.345  16.777  2.5572 -0.4874  0.1512
11083TIP3   OH254739   1.353   2.835   4.244  0.5207  0.4895  0.3900
11083TIP3    H154740   1.260   2.814   4.237  1.2016 -1.7316 -2.8650
11083TIP3    H254741   1.356   2.931   4.240 -1.5151  0.5102 -1.4131
11084TIP3   OH254742   3.566   6.551   2.198  0.1109 -0.3356  0.0900
11084TIP3    H154743   3.472   6.535   2.191  0.3597 -2.0464  0.4954
11084TIP3    H254744   3.604   6.464   2.210  1.6079  0.4722  1.3956
11085TIP3   OH254745   2.033   5.767  13.355  0.1591  0.1006  0.1985
11085TIP3    H154746   2.107   5.792  13.300  0.7061 -1.7282  0.0724
11085TIP3    H254747   1.977   5.714  13.297 -0.1039 -0.4168  0.9171
11086TIP3   OH254748   2.457   4.515   1.878  0.0945 -0.2120 -0.2219
11086TIP3    H154749   2.487   4.449   1.940  0.7073 -0.3061 -0.6076
11086TIP3    H254750   2.412   4.580   1.931  1.8331  0.4245  0.4896
11087TIP3   OH254751   0.936   4.088  16.368  0.2633  0.1193  0.5537
11087TIP3    H154752   0.916   4.073  16.276 -0.7244  0.2241  0.7515
11087TIP3    H254753   1.029   4.064  16.376  0.4746  0.5447 -0.5557
11088TIP3   OH254754   1.621   5.865   4.420 -0.6154 -0.0268  0.0563
11088TIP3    H154755   1.556   5.853   4.490 -2.2089  0.8379 -1.2334
11088TIP3    H254756   1.679   5.933   4.453  0.6347 -1.9413  1.9037
11089TIP3   OH254757   6.785   3.817   4.260  0.3860 -0.4829  0.2767
11089TIP3    H154758   6.732   3.776   4.329  0.5433 -0.4636  0.4081
11089TIP3    H254759   6.720   3.848   4.196  0.2872 -1.4669 -0.1194
11090TIP3   OH254760   4.082   6.173   5.483  0.3286 -0.4887 -1.2244
11090TIP3    H154761   4.156   6.203   5.430  0.5495  0.6123 -0.3231
11090TIP3    H254762   4.123   6.127   5.557  0.2566  2.1364  0.5252
11091TIP3   OH254763   0.190   3.520   3.051 -0.3801  0.5346 -0.6991
11091TIP3    H154764   0.208   3.496   2.960 -0.0534  1.4918 -0.8891
11091TIP3    H254765   0.214   3.612   3.057 -0.0007  0.3733  0.4684
11092TIP3   OH254766   5.220   0.732   0.708  0.1389 -0.2804  0.4310
11092TIP3    H154767   5.232   0.652   0.759  0.4636 -1.6131 -1.6659
11092TIP3    H254768   5.189   0.797   0.771 -0.4044 -2.1368  2.1092
11093TIP3   OH254769   1.168   4.816  12.156 -0.4204 -0.2769  0.2563
11093TIP3    H154770   1.154   4.864  12.237  0.6281  1.4870 -0.5677
11093TIP3    H254771   1.262   4.798  12.154 -0.3311  0.2262 -0.8302
11094TIP3   OH254772   0.897   1.678  13.544 -1.0412  0.2745 -0.5174
11094TIP3    H154773   0.899   1.584  13.523  1.1467  0.3405 -0.6428
11094TIP3    H254774   0.825   1.686  13.607 -2.2824 -1.2306 -1.7049
11095TIP3   OH254775   0.834   4.537  16.898 -0.1103  0.2235 -0.1208
11095TIP3    H154776   0.926   4.513  16.886 -0.2597 -0.1536 -0.5148
11095TIP3    H254777   0.836   4.632  16.914  0.2409  0.4456 -1.4298
11096TIP3   OH254778   5.464   1.444  13.681 -0.2625  0.0844 -0.5111
11096TIP3    H154779   5.523   1.380  13.641 -0.4147  0.8520 -1.9877
11096TIP3    H254780   5.500   1.458  13.769  0.3934 -1.2107 -0.5606
11097TIP3   OH254781   0.471   2.778  15.914 -0.1597 -0.0253 -0.3708
11097TIP3    H154782   0.501   2.860  15.953  0.7321 -0.2118 -0.6586
11097TIP3    H254783   0.383   2.766  15.948 -0.7407  1.6548 -1.2558
11098TIP3   OH254784   5.606   4.873  12.908  0.4622 -0.0622  0.6421
11098TIP3    H154785   5.601   4.949  12.967  2.0607 -1.1731  2.2543
11098TIP3    H254786   5.699   4.861  12.893  0.0801  0.0398 -1.9740
11099TIP3   OH254787   5.252   1.293   2.862 -0.3770  0.7318 -0.4802
11099TIP3    H154788   5.234   1.272   2.954  0.2855 -0.2847 -0.5665
11099TIP3    H254789   5.347   1.284   2.854 -0.7190 -2.2496 -1.9592
11100TIP3   OH254790   2.857   4.558  10.942 -0.2081 -1.0117 -0.9100
11100TIP3    H154791   2.861   4.613  10.864 -1.5518 -0.9911 -0.9672
11100TIP3    H254792   2.945   4.564  10.980 -0.2438  0.8616 -1.1121
11101TIP3   OH254793   0.728   0.322   6.372  0.0302  0.0405  0.2466
11101TIP3    H154794   0.751   0.355   6.459 -0.4827 -0.8269  0.7262
11101TIP3    H254795   0.790   0.363   6.313  0.3439  0.6917  1.0221
11102TIP3   OH254796   1.375   6.236  15.827 -0.4606 -0.1857  0.0669
11102TIP3    H154797   1.285   6.212  15.805 -0.3119 -1.1420  0.4786
11102TIP3    H254798   1.366   6.291  15.904 -0.6592 -0.7727  0.4687
11103TIP3   OH254799   5.106   0.031  13.300  0.0523 -0.3990  0.2309
11103TIP3    H154800   5.030   0.079  13.333 -0.5144 -1.0901 -0.0752
11103TIP3    H254801   5.179   0.063  13.353 -0.3027  0.8844 -0.0438
11104TIP3   OH254802   1.314   5.163  15.490  0.3652  0.0838 -0.0023
11104TIP3    H154803   1.364   5.227  15.440 -0.7651 -0.1056 -1.4084
11104TIP3    H254804   1.365   5.082  15.484  0.3262  0.1061 -0.7214
11105TIP3   OH254805   3.786   5.714  16.524  0.2071 -0.0371  0.4694
11105TIP3    H154806   3.766   5.620  16.523 -0.6672  0.1291  1.0461
11105TIP3    H254807   3.867   5.721  16.574  0.9334 -0.5975 -0.6170
11106TIP3   OH254808   3.973   0.127  14.726  0.2536 -0.0882  0.7727
11106TIP3    H154809   4.064   0.137  14.756  0.6258 -1.3344  0.0462
11106TIP3    H254810   3.979   0.087  14.640 -0.9498  1.0053  0.1464
11107TIP3   OH254811   1.887   1.286   4.344 -0.3253 -0.5663  0.3834
11107TIP3    H154812   1.858   1.368   4.385 -1.6754 -1.3716  1.0906
11107TIP3    H254813   1.849   1.218   4.399  1.7463 -1.6824  0.4524
11108TIP3   OH254814   2.960   1.414  12.394  0.0941 -0.6047 -0.5523
11108TIP3    H154815   3.009   1.351  12.447 -0.2089 -0.5557 -0.2111
11108TIP3    H254816   2.932   1.365  12.317 -0.5808 -1.0261 -0.0443
11109TIP3   OH254817   3.512   6.507  17.180 -0.3121 -0.0336  0.1314
11109TIP3    H154818   3.454   6.572  17.219 -0.6255  0.5809 -1.3316
11109TIP3    H254819   3.590   6.507  17.236 -0.5084  1.2572  0.4127
11110TIP3   OH254820   4.333   3.410  15.971  0.1287 -0.0889 -0.0811
11110TIP3    H154821   4.340   3.503  15.992 -0.9862  0.4063 -1.7829
11110TIP3    H254822   4.382   3.400  15.889 -1.8620 -0.4905 -1.2634
11111TIP3   OH254823   6.555   4.420   1.464  0.0837 -0.3861 -0.0206
11111TIP3    H154824   6.542   4.332   1.498 -3.7742 -0.6833 -1.9500
11111TIP3    H254825   6.589   4.407   1.375 -1.2284 -0.0251 -0.6036
11112TIP3   OH254826   0.382   3.071   2.918 -0.6040  0.2128  0.1540
11112TIP3    H154827   0.440   3.022   2.976 -1.5468  0.5924  1.4435
11112TIP3    H254828   0.310   3.012   2.900 -0.7519  0.4099  0.0953
11113TIP3   OH254829   5.123   0.932   1.905 -0.0435 -0.3685 -0.1836
11113TIP3    H154830   5.106   1.020   1.871  2.3929 -0.1554 -0.9839
11113TIP3    H254831   5.084   0.932   1.992 -1.3145  1.0193 -0.7267
11114TIP3   OH254832   4.131   2.266  13.939  0.2398  0.3866  0.2399
11114TIP3    H154833   4.177   2.241  14.019 -1.9145 -2.8207  0.5789
11114TIP3    H254834   4.149   2.195  13.878  2.0642  2.9259 -2.3015
11115TIP3   OH254835   4.064   2.670   1.475  0.1954 -0.0536  0.2963
11115TIP3    H154836   4.117   2.749   1.477 -0.0018  0.1040 -0.8217
11115TIP3    H254837   4.111   2.608   1.532  0.2850  0.8888  1.2607
11116TIP3   OH254838   2.790   2.810  12.082 -0.3315  0.4424  0.0417
11116TIP3    H154839   2.756   2.721  12.091  1.4331 -0.2289  0.1494
11116TIP3    H254840   2.769   2.852  12.165 -0.3048 -0.1640  0.3572
11117TIP3   OH254841   5.150   5.171  16.463 -0.4915  0.0048  0.5712
11117TIP3    H154842   5.068   5.203  16.427 -1.5168 -2.0358  1.0056
11117TIP3    H254843   5.218   5.219  16.416 -1.8963  0.6110 -0.8712
11118TIP3   OH254844   4.964   1.557   6.721 -0.5396  0.1785 -0.2754
11118TIP3    H154845   5.016   1.549   6.641  0.1337  0.0445  0.1737
11118TIP3    H254846   5.020   1.606   6.782 -0.8018 -0.2663  0.3330
11119TIP3   OH254847   6.530   1.532  15.785  0.2510  0.1013 -0.0834
11119TIP3    H154848   6.460   1.490  15.835  1.4384  0.0189  1.5478
11119TIP3    H254849   6.604   1.471  15.790  0.5549  0.3206 -1.5324
11120TIP3   OH254850   0.325   2.730   2.903  0.0340  0.8252 -0.6823
11120TIP3    H154851   0.321   2.757   2.994  2.2578  1.0370 -0.6094
11120TIP3    H254852   0.343   2.636   2.906 -0.2143  0.7684 -0.9135
11121TIP3   OH254853   3.439   2.261   5.118  0.0531  0.3552 -0.4828
11121TIP3    H154854   3.413   2.314   5.193  1.1059 -0.3511  0.3945
11121TIP3    H254855   3.357   2.223   5.086 -0.3665  0.4587  0.4551
11122TIP3   OH254856   6.443   5.687   0.030 -0.2421  0.1506 -0.0930
11122TIP3    H154857   6.424   5.632   0.106 -0.5329  0.8324  0.3321
11122TIP3    H254858   6.498   5.757   0.064 -0.3282  0.4303 -0.5197
11123TIP3   OH254859   1.833   5.809   3.822  0.1465 -0.2902 -0.1623
11123TIP3    H154860   1.891   5.751   3.872  0.6912 -0.1952 -0.6796
11123TIP3    H254861   1.752   5.759   3.811 -0.0805 -0.2189  1.0329
11124TIP3   OH254862   1.726   0.236  16.331 -0.2182  0.1893  0.0870
11124TIP3    H154863   1.818   0.215  16.315 -0.0972  0.4425  0.4708
11124TIP3    H254864   1.682   0.209  16.250  0.0243 -1.0166  0.3473
11125TIP3   OH254865   4.821   3.922   2.380  0.3859  0.7497 -0.2233
11125TIP3    H154866   4.827   3.973   2.461  1.2511  0.4381 -0.0782
11125TIP3    H254867   4.747   3.960   2.332  0.6527  1.7525  0.1484
11126TIP3   OH254868   3.623   5.322   0.009 -0.8041  0.4123  0.1831
11126TIP3    H154869   3.609   5.360  -0.077 -4.3308 -1.8218 -0.3052
11126TIP3    H254870   3.692   5.257  -0.005  1.2654  2.5825 -0.1058
11127TIP3   OH254871   2.672   0.876  14.786  0.1435  0.3308  0.8400
11127TIP3    H154872   2.764   0.900  14.793  0.4390 -0.9996  1.5932
11127TIP3    H254873   2.661   0.801  14.845 -0.6326 -1.7503 -1.8224
11128TIP3   OH254874   2.521   4.297   3.167  0.4078  0.0947 -0.0145
11128TIP3    H154875   2.491   4.373   3.116 -0.2878 -0.2356 -0.1061
11128TIP3    H254876   2.614   4.290   3.146  0.1678  0.0611 -1.1308
11129TIP3   OH254877   5.593   4.297   0.285 -0.4213  0.1549 -0.3426
11129TIP3    H154878   5.609   4.391   0.296 -0.2601  0.0809  0.0897
11129TIP3    H254879   5.678   4.260   0.262 -0.1547 -0.1028  1.0172
11130TIP3   OH254880   2.113   5.955  12.702 -0.6565  0.0149 -0.4275
11130TIP3    H154881   2.168   5.880  12.726  0.7455  1.0043 -0.5069
11130TIP3    H254882   2.065   5.926  12.625 -1.1824 -1.2921  0.3650
11131TIP3   OH254883   6.338   6.020   4.259  1.0630  0.2811 -0.3447
11131TIP3    H154884   6.252   6.061   4.271  1.6488  1.5985 -0.5734
11131TIP3    H254885   6.376   6.066   4.184  2.3912  0.3994  0.3939
11132TIP3   OH254886   2.467   6.657  17.096 -0.1178  0.3345  0.2119
11132TIP3    H154887   2.550   6.668  17.051 -0.9593  0.2246 -1.4141
11132TIP3    H254888   2.466   6.565  17.123  0.3086  0.3469  0.2665
11133TIP3   OH254889   5.303   3.725  11.849  0.4522 -0.4157 -0.4194
11133TIP3    H154890   5.300   3.737  11.754 -1.6078 -0.9516 -0.4502
11133TIP3    H254891   5.317   3.631  11.860  0.1991 -0.4282 -0.2030
11134TIP3   OH254892   2.943   5.538  12.471  0.5085 -0.0811  0.4086
11134TIP3    H154893   2.978   5.455  12.503 -2.1196 -1.2569  0.4369
11134TIP3    H254894   2.958   5.600  12.542  0.8937 -0.9776  1.1182
11135TIP3   OH254895   3.122   2.970   0.595  1.2808 -0.1437  0.1370
11135TIP3    H154896   3.108   2.905   0.664 -2.1783 -3.1823 -3.2451
11135TIP3    H254897   3.204   2.944   0.553  1.5786 -0.3773  0.8628
11136TIP3   OH254898   0.654   0.788  14.821  0.4498  0.4923 -0.0183
11136TIP3    H154899   0.601   0.729  14.875 -1.8489  1.7136 -0.8659
11136TIP3    H254900   0.744   0.760  14.837 -0.3021 -0.6115  2.7214
11137TIP3   OH254901   0.249   5.812   6.323 -0.3778 -0.0509 -0.2018
11137TIP3    H154902   0.330   5.790   6.370 -0.1713 -0.9386 -0.9586
11137TIP3    H254903   0.245   5.907   6.327  0.0897 -0.0575  0.8658
11138TIP3   OH254904   6.178   6.784   2.360  0.6260 -0.0886 -0.4117
11138TIP3    H154905   6.201   6.758   2.449  0.0295  0.7378 -0.0113
11138TIP3    H254906   6.218   6.717   2.304  2.2060  0.1633  0.3900
11139TIP3   OH254907   4.542   0.600   1.846 -0.0504 -0.4129 -0.2016
11139TIP3    H154908   4.625   0.613   1.800 -0.4394 -2.6358 -1.5961
11139TIP3    H254909   4.563   0.543   1.919 -0.2585 -0.6095 -0.2931
11140TIP3   OH254910   4.562   4.079   2.030  0.0263  0.3517 -0.2605
11140TIP3    H154911   4.494   4.137   1.995  0.4236 -0.3324 -2.2172
11140TIP3    H254912   4.643   4.109   1.988  0.3574 -1.0885 -0.6638
11141TIP3   OH254913   2.321   6.296   2.040 -0.4391 -0.1636 -0.3285
11141TIP3    H154914   2.318   6.388   2.013  0.8511  0.3199  1.1490
11141TIP3    H254915   2.353   6.249   1.962 -0.4435  0.7185 -0.8638
11142TIP3   OH254916   3.818   1.438   3.555  0.4781  0.7692  0.0699
11142TIP3    H154917   3.884   1.402   3.496  0.4132 -0.4211  0.6937
11142TIP3    H254918   3.780   1.512   3.507  1.2200  0.5302 -0.8997
11143TIP3   OH254919   4.279   5.817  11.812 -0.0163 -0.0784  0.2195
11143TIP3    H154920   4.216   5.859  11.754  0.9930  0.0013 -0.8407
11143TIP3    H254921   4.304   5.737  11.765  1.2034  0.2535  0.2923
11144TIP3   OH254922   3.514   6.583   5.213  0.1946  0.4058 -0.6046
11144TIP3    H154923   3.495   6.595   5.306  0.7891  0.1368 -0.4486
11144TIP3    H254924   3.428   6.572   5.172 -0.0132 -0.5447  0.0646
11145TIP3   OH254925   1.002   4.420   4.811  0.4329  0.0675  0.6062
11145TIP3    H154926   1.068   4.442   4.877  0.9654 -2.0377  0.7929
11145TIP3    H254927   1.035   4.341   4.768 -1.0421  0.0763 -0.5991
11146TIP3   OH254928   5.190   3.064  12.307 -0.0479 -0.0227  0.8534
11146TIP3    H154929   5.099   3.036  12.299  0.4917 -1.5577 -0.2261
11146TIP3    H254930   5.238   3.009  12.245  1.7643  0.1005  2.0895
11147TIP3   OH254931   2.620   4.845   0.513  0.1172  0.5276 -0.2474
11147TIP3    H154932   2.623   4.825   0.607  0.2929  0.5907 -0.2405
11147TIP3    H254933   2.557   4.917   0.506 -0.3720  0.1085 -0.2506
11148TIP3   OH254934   0.995   1.931  15.797  0.1164 -0.0608  0.2792
11148TIP3    H154935   0.925   1.985  15.836  0.3117  0.0211  0.5211
11148TIP3    H254936   1.022   1.980  15.720  0.2445  0.1566  0.4599
11149TIP3   OH254937   0.281   3.058   4.257 -0.3002 -0.0659  0.1926
11149TIP3    H154938   0.296   2.964   4.248  2.7853  0.3268  0.5815
11149TIP3    H254939   0.285   3.074   4.351 -1.0722  0.4185  0.1466
11150TIP3   OH254940   0.158   5.124  12.297  0.3872  0.0433 -0.0712
11150TIP3    H154941   0.251   5.100  12.295  0.5605  0.7116 -0.0847
11150TIP3    H254942   0.146   5.166  12.382 -0.4937 -2.3669  1.0493
11151TIP3   OH254943   1.585   5.388   3.795 -0.1966  0.1401 -0.1574
11151TIP3    H154944   1.634   5.470   3.804  0.3961 -0.2618  0.2976
11151TIP3    H254945   1.610   5.355   3.709  0.3759 -0.0954  0.1004
11152TIP3   OH254946   6.408   0.995  12.605 -0.0345  0.5562  0.1728
11152TIP3    H154947   6.486   1.007  12.550  0.5272 -1.8134  0.3819
11152TIP3    H254948   6.441   0.947  12.681 -1.3117  1.4781  1.3286
11153TIP3   OH254949   1.515   1.043  15.728 -0.3206  0.1411 -0.7761
11153TIP3    H154950   1.508   1.125  15.776 -1.2866 -1.3506  1.7156
11153TIP3    H254951   1.426   1.022  15.701 -0.1849 -0.4118 -0.8180
11154TIP3   OH254952   3.341   2.059   5.583  0.2584 -0.1266  0.1617
11154TIP3    H154953   3.384   2.087   5.664  0.3040 -1.7265  0.7208
11154TIP3    H254954   3.265   2.116   5.574  1.0731  1.0268  0.5476
11155TIP3   OH254955   4.207   2.898  13.676  0.7139  0.2908 -0.5607
11155TIP3    H154956   4.285   2.844  13.661  0.6620 -0.0289  0.2927
11155TIP3    H254957   4.152   2.884  13.599  0.4198 -1.3443 -0.0632
11156TIP3   OH254958   5.705   3.004   0.201 -0.2491  0.3778 -0.2328
11156TIP3    H154959   5.669   3.010   0.112 -1.1264 -2.2303 -0.1107
11156TIP3    H254960   5.653   3.066   0.252 -2.0843 -0.5746 -0.8690
11157TIP3   OH254961   3.391   6.346  12.374 -0.4113 -0.2086 -0.1530
11157TIP3    H154962   3.461   6.411  12.388 -2.1875  1.3316  1.8119
11157TIP3    H254963   3.424   6.266  12.414  0.3246  0.4489  0.5853
11158TIP3   OH254964   5.825   0.041   0.836 -0.1882 -0.6377 -0.4893
11158TIP3    H154965   5.854   0.066   0.924 -3.0372 -0.6113  0.4884
11158TIP3    H254966   5.861   0.109   0.779  0.8477 -0.0839  0.7900
11159TIP3   OH254967   1.906   1.753   4.871 -0.1061  0.2064 -0.0574
11159TIP3    H154968   1.942   1.841   4.888 -1.5979  0.9241 -0.5434
11159TIP3    H254969   1.963   1.717   4.803 -0.5806  1.5235 -1.1837
11160TIP3   OH254970   3.103   0.415   1.818  0.6538  0.1749 -0.2323
11160TIP3    H154971   3.082   0.441   1.908 -1.2949  1.2596 -0.9811
11160TIP3    H254972   3.199   0.409   1.817  0.7588  1.1571  1.6483
11161TIP3   OH254973   0.350   5.160   0.090 -0.0922  0.0358 -0.4079
11161TIP3    H154974   0.257   5.141   0.098 -0.1019  0.4701  0.6286
11161TIP3    H254975   0.358   5.253   0.111  0.3323  0.4807 -2.4777
11162TIP3   OH254976   1.403   1.808   6.367  0.2753  0.0124 -0.4450
11162TIP3    H154977   1.430   1.758   6.444 -2.4816 -0.1853  0.4434
11162TIP3    H254978   1.418   1.900   6.392  1.2757 -0.1323 -0.4674
11163TIP3   OH254979   3.784   2.363  14.456  0.3515  0.0402  0.2140
11163TIP3    H154980   3.733   2.413  14.393 -0.1491  1.3498  1.6260
11163TIP3    H254981   3.850   2.318  14.403  0.5063  1.8096 -1.1665
11164TIP3   OH254982   6.197   4.719  12.201 -0.3406  0.1790 -0.4146
11164TIP3    H154983   6.174   4.635  12.161 -1.6463  0.0528  0.5862
11164TIP3    H254984   6.113   4.764  12.211  0.4037  1.8457 -1.4695
11165TIP3   OH254985   6.703   0.634  16.352  0.1523 -1.0998  0.0612
11165TIP3    H154986   6.646   0.557  16.349  0.0014 -0.9384 -1.3393
11165TIP3    H254987   6.773   0.615  16.289 -1.3501  1.0548 -2.3280
11166TIP3   OH254988   4.003   1.513  16.334 -0.0285 -0.6280  0.0705
11166TIP3    H154989   3.943   1.554  16.397 -0.8092 -2.7990  0.8166
11166TIP3    H254990   4.090   1.528  16.371 -0.2184  0.9704 -0.0759
11167TIP3   OH254991   5.754   0.872   5.341  0.3415 -0.0553 -0.2496
11167TIP3    H154992   5.732   0.887   5.432  0.7352  1.8520 -0.4427
11167TIP3    H254993   5.848   0.852   5.342 -0.0050 -1.6978 -0.0763
11168TIP3   OH254994   0.725   2.533  16.376  0.0436  0.1091  0.0272
11168TIP3    H154995   0.753   2.482  16.452 -1.4371 -0.1003  0.4614
11168TIP3    H254996   0.661   2.595  16.411 -0.3393  0.2982 -0.9806
11169TIP3   OH254997   0.924   3.487  13.223 -0.3284 -0.5532  0.2278
11169TIP3    H154998   0.921   3.552  13.293  1.8194  1.8272 -1.8041
11169TIP3    H254999   0.833   3.479  13.193 -0.3799  2.9986 -0.7518
11170TIP3   OH255000   4.698   5.898   5.403  0.6596 -0.7567  0.0142
11170TIP3    H155001   4.699   5.993   5.416  1.7592 -0.7375 -0.0902
11170TIP3    H255002   4.681   5.863   5.490 -1.0955 -0.4461 -0.1864
11171TIP3   OH255003   2.390   5.363  16.405  0.3039  0.3399  0.5064
11171TIP3    H155004   2.401   5.399  16.317 -2.6828 -1.4092 -0.6592
11171TIP3    H255005   2.359   5.274  16.391  0.0465 -0.0662  3.3297
11172TIP3   OH255006   4.632   5.258   3.341 -0.3668  0.1734  0.2338
11172TIP3    H155007   4.680   5.340   3.352 -1.1623  0.6699  0.0677
11172TIP3    H255008   4.693   5.200   3.296 -0.0740  0.9487 -0.3877
11173TIP3   OH255009   0.844   6.003   0.316 -0.6719 -0.4141 -0.2027
11173TIP3    H155010   0.809   5.951   0.388 -1.3728 -0.2065 -0.3824
11173TIP3    H255011   0.768   6.018   0.259 -0.3132  0.1575 -0.5357
11174TIP3   OH255012   2.095   3.102   0.577 -0.0002 -0.1416 -0.1902
11174TIP3    H155013   2.142   3.110   0.661 -1.6083 -0.5909  0.7791
11174TIP3    H255014   2.074   3.192   0.554 -1.9992 -0.1838  1.3433
11175TIP3   OH255015   3.758   0.977  15.456  0.9399  0.5575 -0.0751
11175TIP3    H155016   3.718   1.012  15.376  0.0546 -0.5377 -0.1403
11175TIP3    H255017   3.824   0.916  15.425  0.7894  0.3429  0.0203
11176TIP3   OH255018   3.839   5.476   2.838  0.1690 -0.1813 -0.2939
11176TIP3    H155019   3.807   5.558   2.801 -2.4577 -1.5954 -1.3567
11176TIP3    H255020   3.760   5.433   2.872  1.4491 -2.3236  0.0808
11177TIP3   OH255021   6.009   5.250  15.307 -0.1441 -0.5699 -0.0071
11177TIP3    H155022   6.009   5.280  15.216 -2.7476  1.2081  0.5253
11177TIP3    H255023   6.085   5.293  15.346  0.7704 -1.0431 -1.2346
11178TIP3   OH255024   2.940   4.469   0.160  0.0408  0.3039 -0.5490
11178TIP3    H155025   2.906   4.399   0.215  3.3578 -1.1026 -0.1517
11178TIP3    H255026   2.941   4.433   0.071 -0.4402  0.6943 -0.7147
11179TIP3   OH255027   5.224   6.099  14.014  0.4760  0.0094  0.0870
11179TIP3    H155028   5.305   6.136  13.980  0.2508 -1.6837 -2.4494
11179TIP3    H255029   5.245   6.006  14.028 -0.9632 -0.3872 -0.3650
11180TIP3   OH255030   4.472   3.425  15.567 -0.1739  0.1371  0.2551
11180TIP3    H155031   4.428   3.348  15.532 -0.1663  0.2352  0.0276
11180TIP3    H255032   4.493   3.478  15.490  1.2337 -0.3734  0.2611
11181TIP3   OH255033   5.023   3.314  11.689  0.1008 -0.6712  0.7991
11181TIP3    H155034   5.014   3.409  11.694 -1.7624 -0.6695 -1.4291
11181TIP3    H255035   4.935   3.281  11.708  0.0677 -1.7928 -1.1297
11182TIP3   OH255036   6.443   5.230   4.064  0.5364 -0.4318 -0.6430
11182TIP3    H155037   6.358   5.190   4.078  0.9862 -1.6833 -1.4655
11182TIP3    H255038   6.445   5.252   3.971  0.9371 -0.0041 -0.5346
11183TIP3   OH255039   2.973   2.665  14.471 -0.1249 -0.2765 -0.2983
11183TIP3    H155040   2.948   2.753  14.444  1.5652  0.4337  0.3558
11183TIP3    H255041   2.916   2.607  14.420 -0.8170  1.1648 -1.2076
11184TIP3   OH255042   2.276   2.212  12.328  0.3498 -0.0723  0.0696
11184TIP3    H155043   2.247   2.300  12.301 -1.6209 -0.0290  2.1462
11184TIP3    H255044   2.372   2.217  12.328  0.3301  1.2198 -2.5006
11185TIP3   OH255045   1.077   5.116  15.352  0.0999  0.0456 -0.1242
11185TIP3    H155046   1.158   5.138  15.397  0.6951 -1.7739 -0.2428
11185TIP3    H255047   1.072   5.021  15.359 -0.9814 -0.0382 -1.8746
11186TIP3   OH255048   6.660   1.440  13.836  0.1143 -0.3190  0.1553
11186TIP3    H155049   6.632   1.350  13.817  1.0984 -1.1550  2.4863
11186TIP3    H255050   6.729   1.458  13.773  0.2920 -1.4232  0.0257
11187TIP3   OH255051   6.072   0.965   6.281  0.4864 -0.3235  0.2862
11187TIP3    H155052   6.062   1.011   6.365  0.4573  0.6253 -0.2272
11187TIP3    H255053   6.005   0.897   6.283  0.3080 -0.1371  0.9193
11188TIP3   OH255054   0.337   4.345   0.123 -0.2288 -0.3101 -0.0956
11188TIP3    H155055   0.350   4.335   0.029 -1.8224  1.3173 -0.5234
11188TIP3    H255056   0.243   4.361   0.132 -0.0079  0.0070  1.7201
11189TIP3   OH255057   5.895   4.701  14.499 -0.1171 -0.1842 -0.4548
11189TIP3    H155058   5.869   4.616  14.465  1.6962 -0.6437 -0.7151
11189TIP3    H255059   5.859   4.764  14.436  0.2650 -0.8560 -1.3493
11190TIP3   OH255060   5.782   1.926  13.627 -0.1791 -0.7624  0.2843
11190TIP3    H155061   5.840   1.853  13.649  0.1846 -0.7212 -0.5271
11190TIP3    H255062   5.777   1.978  13.707 -0.1488 -1.4865  0.7561
11191TIP3   OH255063   1.888   6.633  12.242 -0.5595 -0.0532 -0.4655
11191TIP3    H155064   1.916   6.580  12.168 -0.6900 -0.1180 -0.4692
11191TIP3    H255065   1.921   6.587  12.319 -1.5275 -0.6732 -0.4137
11192TIP3   OH255066   4.266   5.090   4.020 -0.0578  0.1131 -0.2340
11192TIP3    H155067   4.227   5.174   3.996 -0.6163  0.3375  1.3665
11192TIP3    H255068   4.256   5.086   4.115 -0.4032 -1.9571 -0.3449
11193TIP3   OH255069   6.311   5.980   3.536  0.0157  0.5362  0.5381
11193TIP3    H155070   6.394   6.025   3.521 -0.2747  1.1767  0.8131
11193TIP3    H255071   6.265   5.986   3.452 -0.1310  0.9838  0.6503
11194TIP3   OH255072   4.525   5.490   3.951 -0.7018 -0.5384  0.2182
11194TIP3    H155073   4.546   5.572   3.996 -0.7223  0.0257 -0.7784
11194TIP3    H255074   4.609   5.445   3.943 -0.8422 -1.0857  1.6537
11195TIP3   OH255075   2.692   4.569   3.162 -0.7008  0.1470 -0.0225
11195TIP3    H155076   2.660   4.636   3.102  1.5177 -0.3716 -1.8720
11195TIP3    H255077   2.728   4.501   3.105 -0.6821 -1.4741  1.8659
11196TIP3   OH255078   1.426   1.925   5.210  0.8762 -0.3632  0.5331
11196TIP3    H155079   1.365   1.895   5.144 -0.4327  0.6321  1.2669
11196TIP3    H255080   1.445   2.016   5.187  3.6156 -1.1937 -0.7946
11197TIP3   OH255081   1.376   2.350   4.558  0.4647  0.1389 -0.5179
11197TIP3    H155082   1.332   2.281   4.608  0.7151 -1.0679 -1.9302
11197TIP3    H255083   1.307   2.415   4.542  0.2132  0.2005  0.7702
11198TIP3   OH255084   1.941   6.504  16.442  0.2200  0.1460 -0.4896
11198TIP3    H155085   2.007   6.520  16.374  0.2015  1.3433 -0.2487
11198TIP3    H255086   1.864   6.552  16.411 -0.1231 -0.1743 -0.1324
11199TIP3   OH255087   0.292   1.015   3.514  0.3510 -0.6712 -0.0536
11199TIP3    H155088   0.222   1.020   3.579  0.5126 -1.3064  0.1702
11199TIP3    H255089   0.296   1.103   3.476 -0.1943 -0.4838  0.3223
11200TIP3   OH255090   6.457   1.359  12.797 -0.5388  0.6863  0.4375
11200TIP3    H155091   6.530   1.298  12.798 -0.7464  0.4555  1.5896
11200TIP3    H255092   6.497   1.445  12.811 -0.0881  1.0315 -2.4807
11201TIP3   OH255093   3.787   4.125  13.770  0.2286  0.2363  0.0268
11201TIP3    H155094   3.881   4.107  13.768  0.0960 -0.6634  1.1565
11201TIP3    H255095   3.774   4.194  13.706  1.6742  0.3969 -0.1020
11202TIP3   OH255096   3.473   1.658  15.946 -0.1728 -0.9805  0.8220
11202TIP3    H155097   3.500   1.581  15.997  1.1496 -0.6342  0.6763
11202TIP3    H255098   3.458   1.624  15.858  0.5195 -1.0564  0.7308
11203TIP3   OH255099   2.950   6.018   4.333 -0.6795  0.2788  0.4606
11203TIP3    H155100   3.012   6.069   4.385 -0.6304  1.2129 -0.4949
11203TIP3    H255101   2.864   6.048   4.360 -0.6913 -0.1861  0.9492
11204TIP3   OH255102   2.932   5.108   3.773  0.2526 -0.0862 -0.3547
11204TIP3    H155103   2.885   5.047   3.716  0.6280 -1.0873  0.3844
11204TIP3    H255104   2.890   5.099   3.858  1.4780 -0.6770  0.2110
11205TIP3   OH255105   2.503   1.198  10.679 -0.0278  0.0763 -0.0009
11205TIP3    H155106   2.464   1.286  10.680  0.2001  0.2249 -2.1332
11205TIP3    H255107   2.550   1.194  10.596  0.5014 -1.8517  0.3730
11206TIP3   OH255108   2.843   4.920  15.860 -0.3030 -0.3512 -0.0479
11206TIP3    H155109   2.869   4.828  15.853  4.0413  0.7409  0.1450
11206TIP3    H255110   2.848   4.954  15.771 -1.3653 -0.1498 -0.0373
11207TIP3   OH255111   1.187   4.783   2.266 -0.4258  0.6120  0.1521
11207TIP3    H155112   1.127   4.849   2.302 -0.0788  1.3170 -0.5508
11207TIP3    H255113   1.129   4.721   2.222 -0.6888  0.9567  0.0056
11208TIP3   OH255114   1.603   1.557  15.377  0.1639 -0.3853  0.1738
11208TIP3    H155115   1.687   1.520  15.350  0.6219  0.4444  0.4365
11208TIP3    H255116   1.572   1.499  15.446  1.2337  0.1395  1.1141
11209TIP3   OH255117   1.772   2.474  15.450 -0.4091 -0.0776  0.0702
11209TIP3    H155118   1.828   2.398  15.431  0.0153  0.3271 -0.3488
11209TIP3    H255119   1.834   2.543  15.475 -0.7401  0.3105 -0.1749
11210TIP3   OH255120   6.223   5.329  12.681 -0.2736  0.2532 -0.0620
11210TIP3    H155121   6.185   5.411  12.647  1.4927  0.7318 -0.9097
11210TIP3    H255122   6.302   5.357  12.727  1.7931 -1.2204 -2.6266
11211TIP3   OH255123   0.583   3.195  13.793 -0.3471 -0.1685  0.4032
11211TIP3    H155124   0.516   3.200  13.725 -0.9714  0.5030  1.0617
11211TIP3    H255125   0.541   3.232  13.871  0.1794 -1.3892  1.2910
11212TIP3   OH255126   5.805   4.749  11.875  0.1549 -0.5429  0.4089
11212TIP3    H155127   5.783   4.793  11.794  1.3554 -1.6629 -0.5488
11212TIP3    H255128   5.779   4.811  11.944  1.3607  1.4350 -0.8721
11213TIP3   OH255129   5.620   4.062   2.399 -0.7872 -0.1694 -0.2569
11213TIP3    H155130   5.697   4.114   2.376 -1.5796  0.4723 -1.5337
11213TIP3    H255131   5.549   4.126   2.405 -0.9080 -0.5301  2.5691
11214TIP3   OH255132   2.346   4.841  14.638 -0.1373  0.3994 -0.0029
11214TIP3    H155133   2.322   4.765  14.691 -0.9608  0.2045 -0.6414
11214TIP3    H255134   2.343   4.915  14.699 -0.6548  0.1159  0.3240
11215TIP3   OH255135   0.753   5.764   3.913 -0.2243  0.2397  0.2952
11215TIP3    H155136   0.683   5.808   3.962  0.1181  1.3924 -0.2386
11215TIP3    H255137   0.795   5.706   3.977 -1.2808 -0.0167  0.7640
11216TIP3   OH255138   5.685   1.290   0.076  0.1403 -0.0825  0.0888
11216TIP3    H155139   5.651   1.355   0.015 -1.2800 -0.1556  0.7768
11216TIP3    H255140   5.636   1.210   0.056  0.7471 -0.5099  0.3028
11217TIP3   OH255141   5.607   5.412  11.333  0.1591  0.5042 -0.4266
11217TIP3    H155142   5.646   5.465  11.264  1.6385  1.6481  1.2339
11217TIP3    H255143   5.549   5.472  11.380  0.1788  0.0849  0.1431
11218TIP3   OH255144   5.104   0.768  13.326 -0.4747  0.3794  0.0275
11218TIP3    H155145   5.123   0.852  13.285  0.4561 -0.4057 -1.1990
11218TIP3    H255146   5.166   0.761  13.398 -0.7296  0.8499  0.2957
11219TIP3   OH255147   1.115   4.428  12.648  0.3723 -0.4026 -0.3433
11219TIP3    H155148   1.210   4.438  12.639  0.2185  1.2051 -0.4013
11219TIP3    H255149   1.080   4.459  12.564 -0.2920  0.8038  0.3599
11220TIP3   OH255150   6.747   2.557   3.799 -0.6167 -0.3036  0.5506
11220TIP3    H155151   6.743   2.620   3.727 -0.6436 -0.6223  0.2734
11220TIP3    H255152   6.751   2.611   3.878 -1.1075  0.0458  0.3372
11221TIP3   OH255153   2.275   4.326  12.337 -0.0629 -0.5724 -0.2183
11221TIP3    H155154   2.316   4.241  12.321 -0.8211 -0.7257 -1.3102
11221TIP3    H255155   2.278   4.371  12.253  0.8822  0.7329  0.4908
11222TIP3   OH255156   3.381   5.128   1.934 -0.0454 -0.1402 -0.1998
11222TIP3    H155157   3.471   5.141   1.907 -0.4603 -0.5412 -1.8269
11222TIP3    H255158   3.358   5.041   1.900 -1.1555  0.1170 -0.1198
11223TIP3   OH255159   3.986   1.419   1.920 -0.9345 -0.2364 -0.2305
11223TIP3    H155160   3.984   1.339   1.973 -0.0635 -0.1821 -0.1175
11223TIP3    H255161   4.052   1.474   1.962  0.1924 -0.4361 -1.7373
11224TIP3   OH255162   3.804   3.837  11.618 -0.6596  0.0162  0.2139
11224TIP3    H155163   3.736   3.861  11.680  0.4279  1.2617  0.9637
11224TIP3    H255164   3.859   3.915  11.612  1.4047 -1.3647  0.5763
11225TIP3   OH255165   0.477   1.206   2.185 -0.4118  0.0451 -0.3915
11225TIP3    H155166   0.488   1.120   2.145  1.8026  0.3850 -0.5751
11225TIP3    H255167   0.525   1.200   2.268  0.3561  1.2998 -0.7252
11226TIP3   OH255168   6.167   2.301   4.927  0.0159  0.4090  0.2903
11226TIP3    H155169   6.139   2.209   4.936 -1.5889  1.1122  3.1108
11226TIP3    H255170   6.085   2.349   4.916  0.7961  1.6311 -0.2290
11227TIP3   OH255171   1.931   4.659  12.177 -0.2212  0.4842 -0.4481
11227TIP3    H155172   1.941   4.601  12.102 -0.0518  0.0370 -0.0805
11227TIP3    H255173   1.837   4.654  12.198  0.0367 -0.7149  0.4332
11228TIP3   OH255174   5.862   0.588  14.085  0.0634  0.1238 -0.1629
11228TIP3    H155175   5.838   0.619  14.172  0.3976 -1.0734  0.3677
11228TIP3    H255176   5.941   0.535  14.100  0.5118  0.4715 -1.2844
11229TIP3   OH255177   2.730   2.887  11.848  0.4335  0.2938 -0.0158
11229TIP3    H155178   2.756   2.858  11.935 -0.1808  1.2384  0.4919
11229TIP3    H255179   2.636   2.872  11.845  0.8236 -2.0858 -1.4489
11230TIP3   OH255180   4.280   2.608  11.789  0.0535 -0.0172 -0.4347
11230TIP3    H155181   4.279   2.652  11.705  0.5553  0.5651 -0.1377
11230TIP3    H255182   4.370   2.579  11.801  0.4581  1.6589  0.7967
11231TIP3   OH255183   3.131   5.102   2.048 -0.2547  0.0074  0.5339
11231TIP3    H155184   3.167   5.137   2.129  0.8985 -2.1482  0.9682
11231TIP3    H255185   3.204   5.103   1.986 -0.7500  0.2623 -0.0591
11232TIP3   OH255186   4.640   1.669  13.939  1.0067  0.1662 -0.0910
11232TIP3    H155187   4.725   1.659  13.983 -0.1032  0.4047  2.1649
11232TIP3    H255188   4.633   1.763  13.922  1.9408 -0.0646 -1.8597
11233TIP3   OH255189   3.231   0.740  16.826 -0.0311 -0.5661 -0.4713
11233TIP3    H155190   3.313   0.748  16.777  0.2305 -3.8819 -0.6882
11233TIP3    H255191   3.162   0.755  16.761  0.3723 -0.0300 -0.7797
11234TIP3   OH255192   0.031   4.518   2.620  0.0595  0.0630  0.5396
11234TIP3    H155193  -0.009   4.599   2.652 -0.3593  0.0322  0.0849
11234TIP3    H255194  -0.008   4.449   2.674 -0.0548  0.0937  0.4944
11235TIP3   OH255195   2.537   6.677   5.002 -0.7974  0.2075  0.2982
11235TIP3    H155196   2.608   6.630   5.046 -1.1315 -1.1558 -0.5930
11235TIP3    H255197   2.574   6.763   4.984  1.2128 -0.9627 -1.5134
11236TIP3   OH255198   5.889   1.179  16.976 -0.1080  0.1374 -0.1777
11236TIP3    H155199   5.822   1.239  16.943 -1.3972 -0.7190  0.8294
11236TIP3    H255200   5.968   1.200  16.925 -1.3119  0.6995 -1.8479
11237TIP3   OH255201   4.958   3.465   5.008 -0.1044 -0.3129  0.2562
11237TIP3    H155202   4.985   3.377   5.036 -1.3278 -0.6916  0.2641
11237TIP3    H255203   4.868   3.474   5.040 -0.2428  0.6583 -0.3798
11238TIP3   OH255204   1.692   0.963   0.912  0.3243  0.1144  0.0565
11238TIP3    H155205   1.666   0.949   1.003 -0.2025 -2.5379 -0.4658
11238TIP3    H255206   1.610   0.965   0.864  0.7183 -2.8191 -0.8769
11239TIP3   OH255207   2.997   6.204   5.988 -0.0532 -0.1595  0.1519
11239TIP3    H155208   3.018   6.295   6.008 -0.0910  0.5419 -2.8336
11239TIP3    H255209   2.930   6.181   6.052  1.7191  1.0906  2.5486
11240TIP3   OH255210   1.658   3.675   4.860 -0.6294 -0.0826  0.0496
11240TIP3    H155211   1.626   3.585   4.855  2.2721 -1.1916  0.8194
11240TIP3    H255212   1.626   3.707   4.944 -1.1466 -0.5905  0.0528
11241TIP3   OH255213   1.231   2.193  14.711  0.1007  0.2586 -0.6815
11241TIP3    H155214   1.180   2.125  14.755 -0.2999  0.9118 -0.1324
11241TIP3    H255215   1.312   2.148  14.684 -0.0581 -0.3776 -0.1234
11242TIP3   OH255216   1.031   5.903  13.038  0.1903 -0.3306  0.2509
11242TIP3    H155217   1.050   5.944  12.953  0.2192 -0.8276  0.0179
11242TIP3    H255218   1.117   5.879  13.072  0.1871 -0.0242  0.4760
11243TIP3   OH255219   2.539   2.516  16.241  0.2753 -0.1973 -0.1952
11243TIP3    H155220   2.461   2.487  16.288  0.9240 -1.5882  0.0602
11243TIP3    H255221   2.572   2.590  16.292  0.1777 -0.7872  0.7390
11244TIP3   OH255222   4.229   2.286   3.902 -0.3194  0.0145  0.6320
11244TIP3    H155223   4.257   2.199   3.873  1.6261  0.4219  1.2560
11244TIP3    H255224   4.288   2.308   3.974  1.3892  3.2345 -1.6447
11245TIP3   OH255225   0.570   3.976  13.862 -0.4251 -0.2493 -0.5499
11245TIP3    H155226   0.552   3.882  13.867 -1.2007 -0.1740 -1.5827
11245TIP3    H255227   0.542   4.011  13.946  0.3571 -1.0206  0.0367
11246TIP3   OH255228   4.437   2.819  12.942 -0.2732  0.8367 -0.0571
11246TIP3    H155229   4.496   2.836  12.869 -0.2536 -1.3792 -0.5712
11246TIP3    H255230   4.491   2.774  13.007 -1.8408 -3.1949 -1.4218
11247TIP3   OH255231   3.236   4.113  13.387 -0.2705 -0.7383 -0.1035
11247TIP3    H155232   3.287   4.172  13.332  0.2354 -0.2237  0.9070
11247TIP3    H255233   3.146   4.122  13.354 -0.1772  0.5027 -0.0358
11248TIP3   OH255234   4.326   3.089   3.093 -0.0376 -0.0581  0.4923
11248TIP3    H155235   4.390   3.160   3.082  1.1606 -1.2085 -0.0487
11248TIP3    H255236   4.378   3.009   3.086 -1.5328 -1.0033  0.1735
11249TIP3   OH255237   1.350   6.248   0.003 -0.2751  0.1671 -0.2361
11249TIP3    H155238   1.385   6.326  -0.040 -0.1102  0.1853 -0.0672
11249TIP3    H255239   1.426   6.191   0.014  0.1621  1.1834  2.2866
11250TIP3   OH255240   6.662   0.886  11.050 -0.3940  0.0030 -0.0647
11250TIP3    H155241   6.667   0.871  11.144  1.6377  0.9847  0.0197
11250TIP3    H255242   6.576   0.852  11.024 -0.0981 -2.2382  1.7736
11251TIP3   OH255243   1.086   1.709   6.679 -0.0350 -0.1707  0.4146
11251TIP3    H155244   1.078   1.798   6.714  2.0910  0.8182 -1.5101
11251TIP3    H255245   1.005   1.696   6.629  0.0982  1.0715 -0.1390
11252TIP3   OH255246   2.538   5.400  12.409  0.1386  0.2351  0.3368
11252TIP3    H155247   2.578   5.421  12.494  2.1491 -0.7911 -0.3299
11252TIP3    H255248   2.571   5.468  12.350  1.1976 -0.7977 -0.2865
11253TIP3   OH255249   3.728   0.983  17.079 -0.9504 -0.0349 -0.1341
11253TIP3    H155250   3.639   0.970  17.113  0.1429  0.6261  3.0657
11253TIP3    H255251   3.746   1.076  17.094  1.8772 -1.0509  3.3207
11254TIP3   OH255252   3.895   3.477   0.476 -0.2994  0.5595 -0.2484
11254TIP3    H155253   3.906   3.399   0.531 -0.4272  0.4239 -0.4120
11254TIP3    H255254   3.880   3.442   0.388  1.4339  0.8065 -0.6517
11255TIP3   OH255255   6.498   1.078   5.984 -0.0770 -0.0163 -0.4077
11255TIP3    H155256   6.475   1.030   5.905  0.6876 -3.0186  1.0922
11255TIP3    H255257   6.415   1.086   6.032 -0.5545  1.8805 -1.5327
11256TIP3   OH255258   2.072   5.608  17.226 -0.1270  0.7077 -0.0022
11256TIP3    H155259   2.035   5.523  17.202  0.5101  0.1983  0.8089
11256TIP3    H255260   2.166   5.592  17.230 -0.2163  0.6981  3.1226
11257TIP3   OH255261   4.134   1.866  12.897 -0.3447  0.1987 -0.5429
11257TIP3    H155262   4.163   1.955  12.879 -0.6597  0.5167  0.5045
11257TIP3    H255263   4.202   1.829  12.953  0.2113 -0.5104 -1.6670
11258TIP3   OH255264   5.599   6.109  14.143 -0.5375  0.1255  0.1458
11258TIP3    H155265   5.534   6.038  14.148 -0.8478  0.4481  0.7298
11258TIP3    H255266   5.598   6.148  14.230  1.4054 -0.7149  0.5861
11259TIP3   OH255267   4.737   5.649   6.039  0.2823 -0.1908  0.5744
11259TIP3    H155268   4.649   5.671   6.010  0.5953 -1.2692 -1.2461
11259TIP3    H255269   4.794   5.694   5.977  0.9979 -0.8972  0.7216
11260TIP3   OH255270   5.353   5.479   1.791 -0.1160 -0.5863  0.0533
11260TIP3    H155271   5.394   5.427   1.721  1.1940 -0.8964  1.0306
11260TIP3    H255272   5.382   5.438   1.872 -2.0438 -0.5252  0.7885
11261TIP3   OH255273   1.002   2.334   5.531  0.5128 -0.1311 -0.1162
11261TIP3    H155274   1.093   2.352   5.508 -0.0123 -0.5810 -2.7254
11261TIP3    H255275   0.999   2.240   5.548  0.5373 -0.1351 -0.1325
11262TIP3   OH255276   3.904   3.939  17.210  0.4797  0.2042 -0.5799
11262TIP3    H155277   3.858   3.905  17.287  0.3827 -3.4137 -2.1212
11262TIP3    H255278   3.836   3.945  17.142  0.5502  3.4017 -0.4298
11263TIP3   OH255279   5.783   5.545   2.714  0.1126  0.0337  0.0245
11263TIP3    H155280   5.728   5.613   2.753 -0.5653 -1.2629  1.4220
11263TIP3    H255281   5.855   5.534   2.776  0.0853 -0.6677 -0.0610
11264TIP3   OH255282   0.533   4.305   3.178  0.2088 -0.4122  0.3512
11264TIP3    H155283   0.599   4.241   3.151  0.1372 -0.3180 -0.0500
11264TIP3    H255284   0.488   4.328   3.097  1.4790  1.5597  0.1669
11265TIP3   OH255285   2.037   0.418   3.189 -0.4474 -0.0720 -0.5542
11265TIP3    H155286   2.077   0.407   3.275 -0.0357 -0.3040 -0.7757
11265TIP3    H255287   2.050   0.334   3.145 -1.5417 -0.2917 -0.4768
11266TIP3   OH255288   0.909   3.009  15.391  0.5109  1.0224  0.4568
11266TIP3    H155289   0.861   2.991  15.471 -2.9200 -0.6951 -1.8587
11266TIP3    H255290   0.945   2.924  15.365  0.3207  1.2513 -0.5798
11267TIP3   OH255291   0.620   1.466  12.179  0.3894  0.1156 -0.2809
11267TIP3    H155292   0.673   1.543  12.159 -0.9600  1.3734  0.8454
11267TIP3    H255293   0.677   1.392  12.160  1.1865  1.3402 -2.8816
11268TIP3   OH255294   3.908   2.018   0.789  0.5336 -0.0832  0.1390
11268TIP3    H155295   3.981   1.958   0.771  0.1053 -0.4685 -0.2828
11268TIP3    H255296   3.889   2.003   0.882  0.6585 -0.3438  0.1252
11269TIP3   OH255297   5.584   1.179   5.426 -0.8252  0.3994 -0.2775
11269TIP3    H155298   5.609   1.173   5.518  1.8569 -0.4339 -1.0246
11269TIP3    H255299   5.527   1.104   5.411 -0.2615 -0.1546  0.3817
11270TIP3   OH255300   0.305   6.181  11.103 -0.1855  0.2937  0.2811
11270TIP3    H155301   0.395   6.202  11.078 -0.0338  0.7612  1.1897
11270TIP3    H255302   0.261   6.266  11.107 -0.5231  0.1150  0.3782
11271TIP3   OH255303   3.605   0.968  11.699 -0.5484 -0.2114  0.0355
11271TIP3    H155304   3.565   0.881  11.698 -0.9472 -0.0299  0.3033
11271TIP3    H255305   3.582   1.006  11.614 -1.4564  0.1284  0.4368
11272TIP3   OH255306   2.241   5.356  13.693 -0.1183  0.1986  0.0467
11272TIP3    H155307   2.163   5.301  13.689 -0.5314  0.6751  1.3101
11272TIP3    H255308   2.301   5.316  13.630 -0.0848 -2.2586  1.5606
11273TIP3   OH255309   2.354   0.650  11.919 -0.1493 -0.0712  0.3609
11273TIP3    H155310   2.281   0.667  11.858 -0.0022  0.9280  0.4537
11273TIP3    H255311   2.432   0.671  11.868 -0.1350  4.1107  1.8805
11274TIP3   OH255312   3.374   4.337   3.987  0.4493 -0.7728 -0.9286
11274TIP3    H155313   3.443   4.289   4.033  1.6165 -0.6684 -2.5227
11274TIP3    H255314   3.386   4.428   4.016  0.3439 -0.9117 -0.4417
11275TIP3   OH255315   0.617   3.826   3.536  0.3712  0.0571 -0.3849
11275TIP3    H155316   0.538   3.845   3.486 -0.6881  0.6677  1.4877
11275TIP3    H255317   0.604   3.736   3.567 -1.0381  1.2133  2.5136
11276TIP3   OH255318   2.895   0.241  15.381 -0.1259 -0.2860  0.2323
11276TIP3    H155319   2.852   0.216  15.299  1.2492  2.7352 -1.4855
11276TIP3    H255320   2.824   0.242  15.446 -1.5893 -0.8875 -1.3321
11277TIP3   OH255321   2.302   6.450  13.707  0.7088  0.1474 -0.4300
11277TIP3    H155322   2.289   6.389  13.779 -1.3826  1.0261 -0.0205
11277TIP3    H255323   2.281   6.536  13.744  0.8969  0.7733 -1.7348
11278TIP3   OH255324   0.241   2.470   5.782  0.2571  0.2030  0.3181
11278TIP3    H155325   0.178   2.402   5.757  0.6130  0.4044 -1.1976
11278TIP3    H255326   0.192   2.552   5.773  0.6541  0.3448 -0.6606
11279TIP3   OH255327   6.213   5.373  11.450 -0.5107 -0.1001 -0.1149
11279TIP3    H155328   6.204   5.405  11.360  1.8605  0.0710 -0.3214
11279TIP3    H255329   6.142   5.416  11.498 -0.6476  1.2754 -1.5169
11280TIP3   OH255330   2.561   3.226  12.321 -0.2072  0.2109  0.3722
11280TIP3    H155331   2.644   3.272  12.335  0.2401 -0.0955 -1.1491
11280TIP3    H255332   2.519   3.225  12.407  0.8508  1.3681  0.9130
11281TIP3   OH255333   3.363   3.506  14.183  0.4571  0.1361  0.0118
11281TIP3    H155334   3.396   3.453  14.111  0.9804  0.8296 -0.2623
11281TIP3    H255335   3.351   3.443  14.255 -1.0319 -0.7223 -0.9701
11282TIP3   OH255336   2.526   0.578   6.400 -0.4923 -0.5759 -0.0960
11282TIP3    H155337   2.565   0.491   6.401  1.0395  0.0532 -1.5806
11282TIP3    H255338   2.522   0.601   6.307  1.0801  1.7671  0.3575
11283TIP3   OH255339   2.190   5.276   6.231  0.8241  0.2276 -0.0237
11283TIP3    H155340   2.205   5.183   6.245 -1.1880 -0.2009 -0.4257
11283TIP3    H255341   2.236   5.320   6.303  0.6985 -1.1581  0.9140
11284TIP3   OH255342   6.317   0.837   2.697 -0.3635  0.4212  0.2167
11284TIP3    H155343   6.379   0.875   2.634 -0.6183  0.2495 -0.1415
11284TIP3    H255344   6.301   0.907   2.760  0.7099  0.2554  0.6924
11285TIP3   OH255345   1.984   0.697  14.686  0.7286 -0.1614 -0.8433
11285TIP3    H155346   1.975   0.704  14.781  0.2009  1.1643 -0.9785
11285TIP3    H255347   2.071   0.734  14.667 -0.0798  1.6583 -1.0839
11286TIP3   OH255348   3.366   1.138  11.890  0.2001  0.0491  0.4532
11286TIP3    H155349   3.400   1.052  11.911  0.7165 -0.0706 -0.8137
11286TIP3    H255350   3.438   1.198  11.909  0.6893 -0.0658 -0.9698
11287TIP3   OH255351   0.818   0.100   3.229 -0.4544  0.8137  0.2550
11287TIP3    H155352   0.773   0.018   3.251 -0.9260  0.8616 -0.5134
11287TIP3    H255353   0.747   0.160   3.206 -0.1807  1.7117  1.6717
11288TIP3   OH255354   0.597   1.596   6.489 -0.6345  0.2278 -0.5379
11288TIP3    H155355   0.518   1.640   6.457 -0.4372  1.5470  0.7497
11288TIP3    H255356   0.661   1.607   6.419 -1.2847  0.0116 -1.1715
11289TIP3   OH255357   1.551   2.010   4.569  0.0061  0.3771 -0.3665
11289TIP3    H155358   1.498   2.071   4.518  2.0199  1.4643 -1.2034
11289TIP3    H255359   1.628   1.992   4.515 -0.4109 -2.7336 -0.0242
11290TIP3   OH255360   3.336   5.238   2.814  0.4152  0.6791 -0.0946
11290TIP3    H155361   3.272   5.265   2.879  1.2762  0.5636  0.8090
11290TIP3    H255362   3.402   5.190   2.864  0.3802 -0.5957 -1.2452
11291TIP3   OH255363   0.222   4.157   0.855  0.3456 -0.0501 -0.1246
11291TIP3    H155364   0.317   4.150   0.849  0.2999 -0.5254 -0.3948
11291TIP3    H255365   0.205   4.248   0.877  0.9023 -0.1781  0.8740
11292TIP3   OH255366   6.762   4.075  16.292  0.8269 -0.0390  0.2037
11292TIP3    H155367   6.668   4.058  16.303  0.9468  0.0373  1.3750
11292TIP3    H255368   6.776   4.068  16.198 -0.0838 -1.5279  0.1526
11293TIP3   OH255369   2.268   2.363  15.284 -0.1972  0.1339  0.0300
11293TIP3    H155370   2.193   2.390  15.336 -0.4692  0.1533 -0.3766
11293TIP3    H255371   2.263   2.267  15.284  0.6010  0.0795  1.2217
11294TIP3   OH255372   5.446   4.517   1.929  0.7138 -0.1174 -0.7245
11294TIP3    H155373   5.422   4.508   1.836  2.8162 -1.6341 -1.1703
11294TIP3    H255374   5.535   4.481   1.934  0.2495 -0.9999  2.0701
11295TIP3   OH255375   4.928   5.118  12.162 -0.1221  0.0135  0.0932
11295TIP3    H155376   4.913   5.191  12.103  1.2442  0.3817  0.1920
11295TIP3    H255377   4.952   5.158  12.246 -0.7265 -0.5235  0.5344
11296TIP3   OH255378   3.971   0.114  16.507  0.4974  0.5850 -0.2627
11296TIP3    H155379   3.980   0.022  16.483  0.4967  0.2997  0.8009
11296TIP3    H255380   3.878   0.124  16.528  0.6005  0.7052  0.1296
11297TIP3   OH255381   2.962   2.044  11.107 -0.0474 -0.0345 -0.0216
11297TIP3    H155382   2.876   2.030  11.146 -1.0441 -0.8266 -2.4036
11297TIP3    H255383   3.008   1.961  11.119  0.2733  0.2812  0.9579
11298TIP3   OH255384   4.256   5.253   2.183 -0.1129 -0.1352 -0.0574
11298TIP3    H155385   4.237   5.279   2.273  0.0349  1.5134 -0.4903
11298TIP3    H255386   4.203   5.312   2.129  2.8047  1.5546 -1.1494
11299TIP3   OH255387   1.785   2.481  11.593  1.0222 -0.2878 -0.4515
11299TIP3    H155388   1.713   2.461  11.654 -0.5556  0.1136 -2.1351
11299TIP3    H255389   1.815   2.396  11.563  0.4630 -0.4312 -0.6176
11300TIP3   OH255390   2.182   4.162   3.466  0.1291  0.1367  0.1138
11300TIP3    H155391   2.194   4.240   3.521  1.9485  0.0630 -0.1416
11300TIP3    H255392   2.203   4.191   3.378 -0.8743 -0.2191 -0.2393
11301TIP3   OH255393   1.242   5.211   0.797 -0.0392  0.5907 -0.4025
11301TIP3    H155394   1.217   5.186   0.708  0.0375  2.0589 -0.8608
11301TIP3    H255395   1.258   5.305   0.791  0.7431  0.5571  0.9954
11302TIP3   OH255396   4.102   4.677   0.463  0.2171  0.1452 -0.5012
11302TIP3    H155397   4.040   4.702   0.394 -0.0519  0.5591 -0.1138
11302TIP3    H255398   4.162   4.751   0.469  0.5070 -0.0838 -0.5986
11303TIP3   OH255399   0.181   3.368  10.926 -0.0776 -0.4451  0.2732
11303TIP3    H155400   0.109   3.307  10.942 -1.0522  0.9308  1.3059
11303TIP3    H255401   0.143   3.455  10.940  2.1736  0.2632  2.5859
11304TIP3   OH255402   5.513   0.120   2.655 -0.4313  0.1899  0.5697
11304TIP3    H155403   5.502   0.092   2.564 -0.0972  0.2573  0.5055
11304TIP3    H255404   5.574   0.194   2.650 -0.9235  0.6133  0.7891
11305TIP3   OH255405   6.405   3.572   3.129  0.4218  0.2720 -0.1659
11305TIP3    H155406   6.436   3.519   3.056  3.1172  1.2142  0.2215
11305TIP3    H255407   6.438   3.527   3.207  0.6732  1.2004  0.2788
11306TIP3   OH255408   5.270   3.297  11.571 -0.1044  0.2796 -0.0650
11306TIP3    H155409   5.312   3.223  11.614 -1.4288  0.6463  1.8889
11306TIP3    H255410   5.192   3.316  11.624 -0.1652  2.6201 -0.9105
11307TIP3   OH255411   4.818   1.065   3.250  0.3030 -0.3714  0.3512
11307TIP3    H155412   4.725   1.045   3.238  0.1606  0.1582  0.5866
11307TIP3    H255413   4.820   1.139   3.311  0.9029 -0.8786  0.9639
11308TIP3   OH255414   2.609   4.704  12.173  0.1872 -0.7214 -0.2008
11308TIP3    H155415   2.526   4.729  12.132 -0.5755 -1.0710  1.0951
11308TIP3    H255416   2.583   4.658  12.253  1.6404 -0.7537  0.2660
11309TIP3   OH255417   3.773   5.561  15.263  0.4980  0.0988  0.7408
11309TIP3    H155418   3.724   5.523  15.190  0.9140 -0.5255  0.7784
11309TIP3    H255419   3.860   5.579  15.227  1.0618 -1.2650  1.3654
11310TIP3   OH255420   0.519   0.643  15.984 -0.1953  0.3355 -0.2660
11310TIP3    H155421   0.602   0.612  16.022 -0.3284  1.3850  0.9273
11310TIP3    H255422   0.463   0.660  16.060 -1.1335  0.6676 -1.0246
11311TIP3   OH255423   5.208   0.577  12.485  0.1787  0.0580  0.1191
11311TIP3    H155424   5.179   0.657  12.529 -1.4273 -1.7268  2.4413
11311TIP3    H255425   5.165   0.580  12.399 -0.8826  1.0892  0.6697
11312TIP3   OH255426   0.022   1.862   4.191 -0.3799  0.0553  0.5143
11312TIP3    H155427   0.093   1.902   4.241  0.2768  0.3742 -0.6487
11312TIP3    H255428   0.064   1.789   4.145 -0.6498  0.5912 -0.6260
11313TIP3   OH255429   3.082   5.315  12.548  0.1868 -0.5228 -0.1746
11313TIP3    H155430   3.048   5.290  12.634 -2.9215 -1.1741 -1.5200
11313TIP3    H255431   3.138   5.242  12.521  0.4352 -0.7268  0.8813
11314TIP3   OH255432   0.466   2.648  16.228 -0.5473 -0.2191 -0.5272
11314TIP3    H155433   0.515   2.681  16.304 -1.7511  0.1635  0.1041
11314TIP3    H255434   0.411   2.722  16.202 -1.0603 -0.7661 -0.9863
11315TIP3   OH255435   3.655   6.681   1.218 -0.2917  0.2307  0.4650
11315TIP3    H155436   3.683   6.769   1.194 -0.6963  0.2083 -0.0851
11315TIP3    H255437   3.720   6.653   1.283  1.2856 -0.0364 -1.1851
11316TIP3   OH255438   6.199   0.201   6.045  0.1136 -0.1135 -0.0409
11316TIP3    H155439   6.183   0.239   6.132 -3.0221 -0.8811 -0.2261
11316TIP3    H255440   6.220   0.109   6.063  0.0603 -0.1260 -0.0398
11317TIP3   OH255441   1.979   5.282   2.731  0.1860  0.2764 -0.7128
11317TIP3    H155442   1.999   5.351   2.794  1.6577 -0.6223 -0.1848
11317TIP3    H255443   2.016   5.203   2.769 -1.3581 -0.7836 -1.3898
11318TIP3   OH255444   5.466   4.599   5.180 -0.1001 -0.5382 -0.3584
11318TIP3    H155445   5.468   4.642   5.095 -0.6708  2.3376  0.9920
11318TIP3    H255446   5.383   4.629   5.219  0.0933 -1.9098  1.1509
11319TIP3   OH255447   2.888   6.145  12.532 -0.0908 -0.4998 -0.1350
11319TIP3    H155448   2.849   6.230  12.512  0.2067 -0.3634 -0.1423
11319TIP3    H255449   2.973   6.147  12.488  0.0281 -0.6976  0.0829
11320TIP3   OH255450   6.545   1.059   3.173  0.0117  0.5987  0.1590
11320TIP3    H155451   6.623   1.024   3.130 -0.4168  0.0919 -0.2067
11320TIP3    H255452   6.495   0.982   3.199 -1.2546  0.9298 -1.2462
11321TIP3   OH255453   4.310   6.103   1.100 -0.0602 -0.0451  0.2554
11321TIP3    H155454   4.300   6.153   1.019 -2.2243  0.5904  0.8782
11321TIP3    H255455   4.263   6.022   1.084  0.1979 -0.2623  0.5920
11322TIP3   OH255456   2.184   1.193  10.678  0.1232  0.1006  0.1856
11322TIP3    H155457   2.279   1.188  10.684  0.1197  0.6482  0.7587
11322TIP3    H255458   2.158   1.108  10.641  0.8424  0.0231 -0.1444
11323TIP3   OH255459   3.488   1.878  16.185  0.0262 -0.6740 -0.2256
11323TIP3    H155460   3.454   1.867  16.274  0.9171 -0.9622  0.0963
11323TIP3    H255461   3.486   1.790  16.148 -1.3283 -0.3745 -0.8612
11324TIP3   OH255462   0.225   2.160  14.244  0.6499 -0.1751  0.5377
11324TIP3    H155463   0.220   2.177  14.150 -1.1268 -0.3313  0.5902
11324TIP3    H255464   0.135   2.168  14.275  1.0768 -1.0526  2.0732
11325TIP3   OH255465   2.439   0.713  12.807  0.1574  0.5150 -0.6335
11325TIP3    H155466   2.379   0.721  12.881  0.8746  2.8425 -0.2330
11325TIP3    H255467   2.413   0.633  12.762 -2.9653  1.2510 -0.2193
11326TIP3   OH255468   0.204   3.191  13.967  0.0613  0.2106 -0.5106
11326TIP3    H155469   0.147   3.239  14.027 -1.2806 -0.9777 -0.8148
11326TIP3    H255470   0.284   3.174  14.017 -0.5708  0.2884  0.5294
11327TIP3   OH255471   5.252   3.083   5.281 -0.4914  0.1479  0.6693
11327TIP3    H155472   5.346   3.086   5.297 -0.3490 -1.7164  0.3243
11327TIP3    H255473   5.241   3.014   5.214 -2.0459  0.6344  0.3937
11328TIP3   OH255474   2.784   0.753  13.305 -0.2392  0.3522 -0.8678
11328TIP3    H155475   2.697   0.726  13.334  0.3751 -1.7513 -0.8451
11328TIP3    H255476   2.817   0.808  13.376 -0.4087 -1.2929  0.5404
11329TIP3   OH255477   6.406   4.698   5.979  0.1098  0.0971  0.2318
11329TIP3    H155478   6.420   4.792   5.988  0.4226  0.1568 -0.8629
11329TIP3    H255479   6.462   4.659   6.046 -0.5872  0.7084  1.1948
11330TIP3   OH255480   5.509   2.853   3.533 -0.3952  0.5094  0.2248
11330TIP3    H155481   5.564   2.907   3.477 -0.2363 -0.0756 -0.1887
11330TIP3    H255482   5.427   2.902   3.541 -0.4447  0.5667 -0.5725
11331TIP3   OH255483   6.681   4.329   4.574 -0.2049 -0.0429 -0.4147
11331TIP3    H155484   6.643   4.271   4.640  0.9002  1.5194  1.6558
11331TIP3    H255485   6.754   4.278   4.538  0.3839 -0.1985  0.9528
11332TIP3   OH255486   2.607   5.779   4.312 -0.1115 -0.6077 -0.2212
11332TIP3    H155487   2.701   5.759   4.316 -0.0252 -0.2329 -0.3494
11332TIP3    H255488   2.589   5.827   4.392  0.2072  0.9809 -1.0866
11333TIP3   OH255489   4.641   1.771   5.373 -0.2730  0.0324 -0.7058
11333TIP3    H155490   4.648   1.758   5.468  2.4110 -0.0172 -0.8567
11333TIP3    H255491   4.607   1.689   5.340 -1.5974  0.1794  0.2376
11334TIP3   OH255492   4.777   1.349   1.100  0.3438  0.1069  0.5447
11334TIP3    H155493   4.861   1.338   1.057 -0.6913  0.7047 -1.6834
11334TIP3    H255494   4.796   1.404   1.176  2.0193 -0.0727  0.2739
11335TIP3   OH255495   6.107   0.393   5.239 -0.0099 -0.0375  0.5035
11335TIP3    H155496   6.151   0.378   5.322  1.8258  1.4219 -0.1740
11335TIP3    H255497   6.035   0.453   5.260  2.6418  3.2773  0.4909
11336TIP3   OH255498   4.284   2.207   2.524  0.4271 -0.0261  0.0406
11336TIP3    H155499   4.376   2.228   2.534  0.3890  0.3954 -0.4862
11336TIP3    H255500   4.254   2.262   2.451 -0.7665  1.4612  1.6275
11337TIP3   OH255501   5.784   0.890   0.928  0.0541  0.1402  0.1391
11337TIP3    H155502   5.794   0.814   0.985 -1.1093  0.5349  0.8772
11337TIP3    H255503   5.748   0.855   0.847 -0.4197 -0.1071  0.4573
11338TIP3   OH255504   5.519   0.399   2.905 -0.2484 -0.1573  0.0946
11338TIP3    H155505   5.576   0.426   2.977 -2.1649  1.7112  0.9629
11338TIP3    H255506   5.543   0.456   2.832  0.5692 -0.9450 -0.2611
11339TIP3   OH255507   1.447   6.158   2.647  0.5487 -0.8918  0.6456
11339TIP3    H155508   1.392   6.223   2.688  0.8283 -0.7808  0.8491
11339TIP3    H255509   1.393   6.079   2.643  0.7959 -1.1374  1.9753
11340TIP3   OH255510   1.322   4.475  12.385  0.0708 -0.1803 -0.1733
11340TIP3    H155511   1.364   4.555  12.419 -0.9043 -0.1988  1.1306
11340TIP3    H255512   1.228   4.493  12.393 -0.1563 -1.1293 -0.6945
11341TIP3   OH255513   6.724   1.311   5.526  0.0046 -0.0115  0.2835
11341TIP3    H155514   6.772   1.345   5.451  0.5143 -0.2383  0.5007
11341TIP3    H255515   6.777   1.237   5.556 -1.2094 -1.1533 -0.3350
11342TIP3   OH255516   5.555   5.667  14.245 -0.1944  0.2271 -0.2770
11342TIP3    H155517   5.636   5.632  14.283 -0.4761 -0.7106 -0.5223
11342TIP3    H255518   5.492   5.666  14.318 -0.7446 -1.6051 -0.7614
11343TIP3   OH255519   5.595   5.933  12.014 -0.4084  0.2459 -0.4514
11343TIP3    H155520   5.565   6.013  11.971  1.4261  0.8469 -0.6737
11343TIP3    H255521   5.657   5.964  12.080 -2.2315 -0.7515  1.7979
11344TIP3   OH255522   5.542   6.591  11.115  0.0231 -0.0790  0.3913
11344TIP3    H155523   5.496   6.642  11.182  0.2321  0.4033  0.1734
11344TIP3    H255524   5.634   6.618  11.124 -0.0776  0.6040 -0.6394
11345TIP3   OH255525   5.221   5.893   0.655 -0.2157 -0.5118 -0.0906
11345TIP3    H155526   5.235   5.909   0.749 -1.2338 -0.7687  0.1135
11345TIP3    H255527   5.128   5.869   0.649 -0.1366 -0.5523 -1.1585
11346TIP3   OH255528   0.735   6.229  11.561  0.3711 -0.2729  0.5663
11346TIP3    H155529   0.743   6.274  11.476 -1.3275 -1.0602 -0.0484
11346TIP3    H255530   0.787   6.282  11.621 -0.3891  1.6928 -0.4475
11347TIP3   OH255531   1.262   6.210  13.032  0.2797 -1.0442  0.2426
11347TIP3    H155532   1.319   6.134  13.044  0.6701 -1.1134 -1.8064
11347TIP3    H255533   1.211   6.189  12.954  1.2816  1.3019 -1.1164
11348TIP3   OH255534   0.851   0.657   0.415  0.3387  0.2464 -0.0010
11348TIP3    H155535   0.844   0.566   0.444 -0.7578  0.8798  1.7573
11348TIP3    H255536   0.921   0.694   0.468 -2.1898  1.6173  2.5431
11349TIP3   OH255537   3.661   5.083   1.739 -0.1818 -0.5508 -0.0093
11349TIP3    H155538   3.656   5.033   1.657  0.7558  1.5084 -1.3605
11349TIP3    H255539   3.754   5.085   1.761 -0.0481  1.5880 -0.6407
11350TIP3   OH255540   6.748   3.948   2.907  0.0610 -0.0971  0.6599
11350TIP3    H155541   6.771   3.870   2.958  1.5251 -0.4927 -0.6009
11350TIP3    H255542   6.816   4.011   2.928  0.5476 -0.1855 -0.6419
11351TIP3   OH255543   3.336   0.858  14.722 -0.0636 -0.1346  0.5971
11351TIP3    H155544   3.424   0.888  14.743  0.0379 -0.6726  0.9450
11351TIP3    H255545   3.346   0.764  14.705 -0.4067 -0.0134 -0.3056
11352TIP3   OH255546   6.393   6.460  17.043  0.3239  0.5051 -0.2474
11352TIP3    H155547   6.466   6.486  17.099  0.8456  0.7211 -1.0300
11352TIP3    H255548   6.434   6.416  16.968 -0.4062 -0.3280 -0.1676
11353TIP3   OH255549   1.459   4.449  10.853  0.1595  0.2088 -0.6123
11353TIP3    H155550   1.391   4.398  10.898 -0.4490  1.9774  0.4899
11353TIP3    H255551   1.529   4.385  10.839 -0.2775 -0.7942  1.4236
11354TIP3   OH255552   0.517   5.976   0.549  0.1113  0.4503  0.1565
11354TIP3    H155553   0.437   5.932   0.577  1.6505 -1.1308  2.3228
11354TIP3    H255554   0.584   5.908   0.552  2.1528  2.4175  1.4685
11355TIP3   OH255555   0.589   1.193  16.676 -0.2671 -0.6013 -0.0767
11355TIP3    H155556   0.520   1.259  16.683  2.3288  2.2633 -0.3403
11355TIP3    H255557   0.602   1.163  16.766 -0.9516 -0.1843  0.1681
11356TIP3   OH255558   6.739   1.123   5.055  0.5433 -0.2746 -0.1935
11356TIP3    H155559   6.760   1.082   4.971  1.2954 -0.7008  0.1943
11356TIP3    H255560   6.646   1.144   5.049  0.6320 -0.1502 -1.1981
11357TIP3   OH255561   1.945   6.350   6.204 -0.1662 -0.0498  0.0879
11357TIP3    H155562   1.944   6.412   6.277 -0.7749 -1.3402  1.2049
11357TIP3    H255563   1.993   6.274   6.238 -1.7130 -1.2435 -0.3527
11358TIP3   OH255564   2.759   3.831   1.743  0.2877  0.0768 -0.3517
11358TIP3    H155565   2.729   3.919   1.766 -0.7875 -0.2440 -0.5006
11358TIP3    H255566   2.707   3.807   1.667  2.1633  0.1811 -1.7144
11359TIP3   OH255567   4.828   4.794   0.702 -0.4556 -0.3406 -0.0006
11359TIP3    H155568   4.905   4.746   0.731 -0.5134  0.0111  0.7381
11359TIP3    H255569   4.844   4.810   0.609 -0.5144 -1.9331 -0.3019
11360TIP3   OH255570   4.162   5.797  12.441  0.0557  0.1050 -0.4059
11360TIP3    H155571   4.199   5.885  12.441  0.6721 -0.1480 -0.8592
11360TIP3    H255572   4.166   5.769  12.350 -0.0507 -0.4305 -0.2487
11361TIP3   OH255573   6.210   1.561  12.183 -0.4435 -0.3649  0.2139
11361TIP3    H155574   6.136   1.509  12.215 -0.8749 -0.8349 -1.5225
11361TIP3    H255575   6.215   1.541  12.090  0.6926  1.1339 -0.0567
11362TIP3   OH255576   4.164   2.456  16.541  0.1068  0.1789  0.1471
11362TIP3    H155577   4.208   2.539  16.557 -0.3136  0.6318 -0.9927
11362TIP3    H255578   4.189   2.432  16.451 -0.0923 -0.7273  0.3227
11363TIP3   OH255579   4.071   5.576   0.588  0.7017  0.4289  0.1792
11363TIP3    H155580   4.000   5.521   0.623  0.4495  0.8785  0.3718
11363TIP3    H255581   4.092   5.536   0.504 -1.0619  1.4051 -0.7359
11364TIP3   OH255582   0.442   4.460  12.628 -0.4910  0.2311  0.3084
11364TIP3    H155583   0.530   4.496  12.616  0.4050 -1.5348  1.3389
11364TIP3    H255584   0.388   4.506  12.564  1.5160  0.1547 -1.4709
11365TIP3   OH255585   3.851   6.297  11.971  0.2097 -0.5302 -0.0159
11365TIP3    H155586   3.788   6.266  12.036 -0.2745  0.4235 -0.0195
11365TIP3    H255587   3.936   6.267  12.003  0.0932  0.8126  1.5894
11366TIP3   OH255588   4.375   0.962  16.321  0.2419 -0.0708  0.6312
11366TIP3    H155589   4.379   0.944  16.227  0.1868 -0.0478  0.6229
11366TIP3    H255590   4.465   0.949  16.352 -0.2787 -2.8853  1.1100
11367TIP3   OH255591   3.829   6.202   6.274 -0.2131  0.0110 -1.1531
11367TIP3    H155592   3.882   6.253   6.213 -0.2180  0.4826 -0.7638
11367TIP3    H255593   3.759   6.166   6.220 -0.3616  0.6350 -1.3832
11368TIP3   OH255594   1.306   2.127   0.301 -0.5497  0.4001  0.4484
11368TIP3    H155595   1.381   2.075   0.270 -0.9922 -0.5789  0.9964
11368TIP3    H255596   1.239   2.115   0.234 -0.1599  1.4078 -0.1217
11369TIP3   OH255597   0.611   1.618  11.163 -0.6911  0.5264 -0.4728
11369TIP3    H155598   0.691   1.667  11.143  0.9554 -0.3745  3.3360
11369TIP3    H255599   0.611   1.546  11.100  1.0989  0.9861 -1.0353
11370TIP3   OH255600   5.700   1.034   4.530 -0.7018 -0.2367 -0.2330
11370TIP3    H155601   5.700   0.978   4.452  2.7221  0.5903 -0.9162
11370TIP3    H255602   5.744   1.114   4.503 -1.9166  1.1985  1.8467
11371TIP3   OH255603   0.955   0.447   0.049 -0.5358  0.0027 -0.2725
11371TIP3    H155604   0.992   0.461  -0.038  0.1795 -2.8491 -0.4868
11371TIP3    H255605   0.879   0.505   0.053 -1.1594 -0.5390 -3.2019
11372TIP3   OH255606   6.498   3.743   0.820 -0.3706  0.0436  1.2051
11372TIP3    H155607   6.435   3.763   0.889 -0.2686 -0.3262  1.4097
11372TIP3    H255608   6.559   3.681   0.860 -0.0545  0.1651  0.9150
11373TIP3   OH255609   6.160   3.734   5.648  0.4121 -0.0028  0.3838
11373TIP3    H155610   6.158   3.662   5.585 -0.7875 -0.2883  0.7230
11373TIP3    H255611   6.122   3.808   5.601  1.1986  0.2721  0.1885
11374TIP3   OH255612   5.114   2.995  16.125  0.1372 -0.6976 -0.2905
11374TIP3    H155613   5.069   3.067  16.169 -0.8795 -1.6005  0.1920
11374TIP3    H255614   5.078   2.994  16.036  0.1901 -0.5907 -0.3149
11375TIP3   OH255615   4.943   2.317  13.421 -0.3265 -0.5582 -0.1730
11375TIP3    H155616   4.953   2.275  13.335 -1.1893  0.5801 -0.8421
11375TIP3    H255617   5.022   2.371  13.430  0.1941 -1.3719  0.1446
11376TIP3   OH255618   5.941   4.592   4.506 -0.1847 -0.2490  0.0548
11376TIP3    H155619   6.018   4.618   4.456 -1.3319 -0.7276 -1.9972
11376TIP3    H255620   5.915   4.672   4.553  0.2660  0.5153 -0.9683
11377TIP3   OH255621   3.315   2.316  14.143 -0.5268 -0.0137 -0.0452
11377TIP3    H155622   3.346   2.404  14.165 -0.1525 -0.4315  1.1573
11377TIP3    H255623   3.386   2.279  14.090  0.8945 -0.8153  2.3475
11378TIP3   OH255624   5.654   2.212   5.119  0.5046 -0.0954 -0.2045
11378TIP3    H155625   5.610   2.156   5.183 -0.1571  0.5134 -0.1235
11378TIP3    H255626   5.730   2.247   5.165  0.0207  0.3555  0.2496
11379TIP3   OH255627   4.751   3.720  15.010 -0.1918  0.5588 -0.8186
11379TIP3    H155628   4.804   3.691  15.084  0.2890 -1.5894 -1.9329
11379TIP3    H255629   4.702   3.795  15.042  2.8040  2.0148  0.5441
11380TIP3   OH255630   0.937   2.599   1.581  0.2376  0.1751 -0.1178
11380TIP3    H155631   0.909   2.691   1.587 -1.3984 -0.3194  0.0275
11380TIP3    H255632   0.967   2.578   1.669 -0.8688  0.1233  0.2598
11381TIP3   OH255633   0.409   5.634  15.161 -0.6846  0.0261  0.4370
11381TIP3    H155634   0.336   5.691  15.186 -1.8984 -1.9877  1.6040
11381TIP3    H255635   0.371   5.574  15.096  0.1463 -0.4594  0.3979
11382TIP3   OH255636   1.608   0.567  16.101  0.2487 -0.3096 -0.2898
11382TIP3    H155637   1.673   0.625  16.060  0.1430  0.4748  0.6438
11382TIP3    H255638   1.579   0.510  16.030 -1.3313  2.2832 -1.8086
11383TIP3   OH255639   0.963   0.591   5.668  0.6774  0.3644 -0.3393
11383TIP3    H155640   0.882   0.636   5.645  0.8919  0.1058 -1.6091
11383TIP3    H255641   0.943   0.547   5.751 -0.3896  0.5457 -0.4936
11384TIP3   OH255642   6.588   4.153  10.860  0.0379  0.2141 -0.0937
11384TIP3    H155643   6.522   4.103  10.813 -0.2247  0.8323 -0.3879
11384TIP3    H255644   6.560   4.151  10.952  0.7689 -1.3404  0.1176
11385TIP3   OH255645   1.758   3.723   5.858 -0.1127  0.1945  0.2146
11385TIP3    H155646   1.718   3.651   5.809  1.2764  1.5691 -3.0372
11385TIP3    H255647   1.686   3.759   5.910 -1.1592 -2.5660  0.7677
11386TIP3   OH255648   4.114   2.657   5.701 -0.1008 -0.1004  0.3517
11386TIP3    H155649   4.115   2.655   5.606 -1.4504 -1.0501  0.3482
11386TIP3    H255650   4.206   2.670   5.725  0.2403  0.2181 -1.0655
11387TIP3   OH255651   3.453   5.190  14.245  0.0318 -0.1263 -0.2335
11387TIP3    H155652   3.547   5.211  14.245 -0.2365  1.1481 -0.2450
11387TIP3    H255653   3.431   5.181  14.337 -0.2306  1.5126 -0.1201
11388TIP3   OH255654   3.918   1.575  12.585  0.8913  0.0282  0.6711
11388TIP3    H155655   3.882   1.600  12.500  1.2735 -0.3259  0.4086
11388TIP3    H255656   4.000   1.623  12.592  0.8162  0.1292  0.8827
11389TIP3   OH255657   6.225   0.551  16.990 -0.6187  0.4189 -0.3064
11389TIP3    H155658   6.300   0.503  16.954  0.5053  1.7282  0.2815
11389TIP3    H255659   6.188   0.597  16.915 -0.5845  0.1186 -0.5109
11390TIP3   OH255660   6.096   4.473  12.071 -0.2397  0.2064 -0.3542
11390TIP3    H155661   6.070   4.502  11.983 -0.4731  0.6168 -0.1481
11390TIP3    H255662   6.041   4.397  12.088  0.8271 -0.7658 -1.1624
11391TIP3   OH255663   3.943   2.780  13.559  0.4476 -0.0447 -0.3311
11391TIP3    H155664   3.992   2.699  13.578 -0.9921 -0.8347  0.1002
11391TIP3    H255665   3.930   2.821  13.644  0.4770  0.2359 -0.4599
11392TIP3   OH255666   3.298   5.389   5.469 -0.0008 -0.8214  0.5199
11392TIP3    H155667   3.220   5.355   5.512 -0.1672  0.1598  1.0114
11392TIP3    H255668   3.299   5.345   5.384 -0.7966 -1.2410  0.7162
11393TIP3   OH255669   6.736   3.306  12.113 -0.1303  0.2739  0.1297
11393TIP3    H155670   6.691   3.283  12.032 -1.6237  0.4322  0.9019
11393TIP3    H255671   6.802   3.371  12.086  0.8182 -1.2451 -1.2660
11394TIP3   OH255672   3.325   0.990  11.292 -0.3361 -0.2129  0.2574
11394TIP3    H155673   3.385   1.015  11.221 -0.0866  1.3716  1.0047
11394TIP3    H255674   3.361   1.032  11.370  0.2166 -3.1384  1.6523
11395TIP3   OH255675   1.036   4.457  14.680  0.0369 -0.8729  0.1043
11395TIP3    H155676   0.952   4.477  14.721  0.0496  0.1907 -0.3573
11395TIP3    H255677   1.012   4.419  14.595  0.0144  0.1769 -0.3669
11396TIP3   OH255678   6.755   1.435   2.823  0.1377 -0.2886 -0.1946
11396TIP3    H155679   6.790   1.404   2.906  2.5795 -0.1349 -1.1113
11396TIP3    H255680   6.800   1.518   2.807 -0.5771 -0.1256 -1.4787
11397TIP3   OH255681   1.219   0.084  16.204  0.6750  0.3247 -0.1043
11397TIP3    H155682   1.257   0.156  16.256  0.2971  0.4286  0.0264
11397TIP3    H255683   1.201   0.016  16.268 -0.7671  0.8501  0.0630
11398TIP3   OH255684   0.060   0.059  13.766  0.0033  0.3770  0.1270
11398TIP3    H155685   0.033   0.150  13.780  1.4931  0.9059 -0.3654
11398TIP3    H255686   0.118   0.062  13.691 -0.9528 -1.1894 -0.7131
11399TIP3   OH255687   1.529   3.227  14.626  0.5920 -0.3073  0.6634
11399TIP3    H155688   1.483   3.146  14.605  0.3222 -0.4391  1.7243
11399TIP3    H255689   1.615   3.198  14.657  1.8992 -0.0163 -2.4782
11400TIP3   OH255690   3.223   6.163   0.836 -0.2941  0.4107 -0.4775
11400TIP3    H155691   3.225   6.251   0.797  0.1887  0.6987  0.1875
11400TIP3    H255692   3.311   6.151   0.872 -0.7224  0.1365  0.4880
11401TIP3   OH255693   3.258   3.563   3.027  0.2996  0.2404 -0.0997
11401TIP3    H155694   3.312   3.584   3.103  0.8805 -0.5788 -0.2772
11401TIP3    H255695   3.308   3.496   2.980 -1.6202 -1.7436  0.6212
11402TIP3   OH255696   1.377   0.522   2.982  0.1610 -0.0656  0.0638
11402TIP3    H155697   1.417   0.532   3.068 -0.7786  0.4888  0.4470
11402TIP3    H255698   1.330   0.438   2.987  0.6977 -0.3851 -0.1589
11403TIP3   OH255699   3.239   6.212   2.053  0.1072 -0.1790 -0.5130
11403TIP3    H155700   3.173   6.152   2.019  1.0119 -1.2017 -0.5218
11403TIP3    H255701   3.261   6.176   2.140 -0.3754  0.9643  0.0894
11404TIP3   OH255702   5.125   6.371  12.534  0.3686  0.1195  0.1622
11404TIP3    H155703   5.219   6.352  12.531 -0.1848 -3.4421  2.7505
11404TIP3    H255704   5.102   6.364  12.626 -2.7076 -0.5016 -0.5992
11405TIP3   OH255705   1.471   1.031  16.645 -0.5829  0.2328 -0.0721
11405TIP3    H155706   1.382   0.994  16.649 -0.3639 -0.3881 -0.8678
11405TIP3    H255707   1.501   1.010  16.557  0.1719  0.8782  0.0362
11406TIP3   OH255708   6.428   0.238  16.920  0.3638  0.1223 -0.0814
11406TIP3    H155709   6.475   0.309  16.877 -1.0426  0.1976 -1.5350
11406TIP3    H255710   6.481   0.161  16.905 -0.8716 -0.1537 -3.3639
11407TIP3   OH255711   4.787   3.388  14.861 -0.1272 -0.5492 -0.1216
11407TIP3    H155712   4.875   3.348  14.859  0.1897  0.0448  1.6425
11407TIP3    H255713   4.760   3.381  14.952 -2.0300 -0.9260 -0.7011
11408TIP3   OH255714   4.775   5.911  11.444  0.0614  0.0965 -0.2332
11408TIP3    H155715   4.702   5.874  11.495  1.0005 -0.6262  0.5975
11408TIP3    H255716   4.810   5.980  11.500  1.7919 -1.4198  0.6073
11409TIP3   OH255717   6.225   5.097   5.392  0.8437  0.6133 -0.2315
11409TIP3    H155718   6.239   5.008   5.360  2.1913  1.5586 -2.4092
11409TIP3    H255719   6.146   5.127   5.347  0.0703  0.3264  0.9290
11410TIP3   OH255720   6.033   3.048  15.551  0.0429  0.1233  0.3078
11410TIP3    H155721   6.058   3.135  15.583  0.8679  0.0866 -0.2367
11410TIP3    H255722   5.990   3.006  15.626  1.3950  0.2580  1.1612
11411TIP3   OH255723   2.866   1.890  15.000  0.6261  0.2849  0.0465
11411TIP3    H155724   2.951   1.909  15.040  0.6809 -0.4083  0.2750
11411TIP3    H255725   2.888   1.842  14.920  0.4848  0.9213 -0.3748
11412TIP3   OH255726   2.913   3.947   4.115 -0.2709  0.4791 -0.0659
11412TIP3    H155727   2.842   3.914   4.169  0.1340  0.2323  0.3251
11412TIP3    H255728   2.989   3.893   4.139 -0.2607 -0.1395 -1.4333
11413TIP3   OH255729   0.067   0.692  14.629 -0.5073  0.5425 -0.5140
11413TIP3    H155730   0.061   0.757  14.560 -2.3888  0.2087 -0.6880
11413TIP3    H255731   0.016   0.729  14.702 -0.2622 -0.0216 -0.0532
11414TIP3   OH255732   4.671   2.805  16.389  0.5729 -0.0166  0.0578
11414TIP3    H155733   4.708   2.884  16.349  0.3978 -0.8152 -1.7160
11414TIP3    H255734   4.680   2.820  16.484  0.3201  2.2267 -0.2464
11415TIP3   OH255735   5.986   5.243  12.869 -0.3258 -0.0323 -0.3565
11415TIP3    H155736   6.044   5.253  12.793  2.2209 -1.2642  1.3592
11415TIP3    H255737   6.017   5.308  12.931 -0.9585 -0.5442  0.5030
11416TIP3   OH255738   6.022   3.929  13.684 -0.3871 -0.2773  0.3870
11416TIP3    H155739   6.052   3.842  13.657 -0.8515 -0.4318  0.3653
11416TIP3    H255740   6.089   3.960  13.745 -2.0059 -2.1447  3.1975
11417TIP3   OH255741   1.859   3.962  13.088  0.1942  0.6151  0.3651
11417TIP3    H155742   1.884   4.001  13.171  1.1988  0.4461  0.1463
11417TIP3    H255743   1.935   3.910  13.062 -0.3916  0.0834 -0.2976
11418TIP3   OH255744   6.156   1.976   6.453  0.0157  1.0806 -0.7196
11418TIP3    H155745   6.192   1.892   6.483 -1.3954  1.9250  3.7022
11418TIP3    H255746   6.078   1.951   6.404  0.1048 -0.2374 -0.2351
11419TIP3   OH255747   1.883   3.147   3.023 -0.0728  0.1875  0.4506
11419TIP3    H155748   1.791   3.127   3.008 -0.2013  0.4727  0.8635
11419TIP3    H255749   1.923   3.141   2.936 -0.4183 -0.2530  0.3193
11420TIP3   OH255750   0.856   2.448   2.023  0.3421  1.0515 -0.0154
11420TIP3    H155751   0.791   2.406   2.079 -0.0674  0.0792 -1.1913
11420TIP3    H255752   0.913   2.496   2.083  1.3438 -1.8771  1.4661
11421TIP3   OH255753   2.255   1.204  15.409  0.5193 -0.0992  0.0348
11421TIP3    H155754   2.278   1.222  15.500  0.9299 -0.5171  0.0164
11421TIP3    H255755   2.334   1.166  15.372 -0.1498 -1.4107 -0.0730
11422TIP3   OH255756   2.256   2.890   5.266  0.7788 -0.5087  0.0301
11422TIP3    H155757   2.254   2.938   5.349  0.1504  1.0502 -0.8540
11422TIP3    H255758   2.339   2.843   5.268  2.4742  2.3283  0.0166
11423TIP3   OH255759   6.506   5.739  13.415 -0.2498 -0.2348  0.1521
11423TIP3    H155760   6.493   5.792  13.494  3.0675  0.0175  0.6137
11423TIP3    H255761   6.482   5.797  13.343 -1.2954  0.2397  0.8761
11424TIP3   OH255762   6.112   3.416  16.005 -0.8369  0.8314 -0.3330
11424TIP3    H155763   6.048   3.347  15.992 -0.4906  0.2614  0.8960
11424TIP3    H255764   6.153   3.396  16.089  0.4067  1.6183 -0.7248
11425TIP3   OH255765   1.567   4.392  15.472  0.2122 -0.2602 -0.3276
11425TIP3    H155766   1.541   4.483  15.461 -2.2788 -1.0861 -1.6397
11425TIP3    H255767   1.656   4.388  15.437  0.5492  1.7609  0.2361
11426TIP3   OH255768   6.187   0.522   1.474 -0.0159  0.2621 -0.3983
11426TIP3    H155769   6.269   0.546   1.519 -1.4736  1.3364  1.7783
11426TIP3    H255770   6.206   0.535   1.381  2.5917 -0.4413  0.0005
11427TIP3   OH255771   0.124   6.425   5.467 -0.4385  0.4317 -0.3347
11427TIP3    H155772   0.069   6.411   5.544  0.4806 -0.7176  0.1373
11427TIP3    H255773   0.205   6.378   5.486 -0.4321 -0.4213 -2.2728
11428TIP3   OH255774   0.585   6.805  15.376 -0.2141  0.4719  0.4075
11428TIP3    H155775   0.510   6.752  15.403  0.1810  0.2397  1.0641
11428TIP3    H255776   0.609   6.770  15.290 -0.2181 -0.1419  0.6501
11429TIP3   OH255777   6.186   0.385  10.939  0.7965 -0.0775 -0.1375
11429TIP3    H155778   6.142   0.468  10.957  1.2813  0.0261  0.5799
11429TIP3    H255779   6.278   0.401  10.961  0.7687 -1.0163  0.6854
11430TIP3   OH255780   2.644   2.582  15.698 -0.5365  0.5727  0.2516
11430TIP3    H155781   2.662   2.640  15.624 -0.1555  1.0532  0.7179
11430TIP3    H255782   2.667   2.495  15.665  0.6590  0.9145  0.1452
11431TIP3   OH255783   6.546   4.259   4.018 -0.1817 -0.5146 -0.6352
11431TIP3    H155784   6.586   4.216   3.944  1.6403  1.6842 -0.9841
11431TIP3    H255785   6.613   4.258   4.086 -1.3253 -1.2360  0.5144
11432TIP3   OH255786   0.228   4.022  14.033 -0.1447  0.3025 -0.5893
11432TIP3    H155787   0.245   4.103  14.080 -0.7342  0.9538 -1.4978
11432TIP3    H255788   0.272   3.954  14.086  2.1128  1.4539 -0.9311
11433TIP3   OH255789   1.080   6.608  14.708 -0.2022 -0.1462  0.8188
11433TIP3    H155790   1.054   6.519  14.686  1.2575 -0.5053  0.4746
11433TIP3    H255791   1.164   6.598  14.753  0.0377  1.0547  0.6594
11434TIP3   OH255792   5.626   4.383  15.064  0.0797  0.5291  0.1264
11434TIP3    H155793   5.611   4.477  15.052  1.1523  0.5525 -1.1452
11434TIP3    H255794   5.563   4.341  15.005  0.3654  0.4755 -0.1403
11435TIP3   OH255795   4.491   3.345   2.088  0.4755  0.0698 -0.5362
11435TIP3    H155796   4.447   3.413   2.037 -1.0275 -1.1935 -0.9543
11435TIP3    H255797   4.420   3.292   2.124  1.6289 -1.4823 -0.4831
11436TIP3   OH255798   1.305   3.876  16.131  0.5340 -0.0395  0.3455
11436TIP3    H155799   1.256   3.817  16.188  1.2409 -0.8837  0.0892
11436TIP3    H255800   1.287   3.964  16.166 -1.1672 -0.3356  0.2419
11437TIP3   OH255801   4.703   6.106  16.008  0.1924 -0.0136 -0.7961
11437TIP3    H155802   4.790   6.076  15.985 -0.4630 -1.2718 -1.7161
11437TIP3    H255803   4.692   6.189  15.961  1.2574  0.6527  0.1287
11438TIP3   OH255804   6.318   4.113   4.041  0.2707 -0.0871 -0.0997
11438TIP3    H155805   6.287   4.169   4.113  1.0712  0.8363 -0.4609
11438TIP3    H255806   6.409   4.140   4.027  0.3984 -0.8945 -0.8511
11439TIP3   OH255807   3.131   3.514  17.197  0.1370 -0.7021  0.9134
11439TIP3    H155808   3.055   3.552  17.242 -0.3436 -1.0717  0.4226
11439TIP3    H255809   3.207   3.552  17.242 -0.3213  0.7530  0.4972
11440TIP3   OH255810   3.153   1.227  14.341  0.2713 -0.2820 -0.2392
11440TIP3    H155811   3.172   1.183  14.424 -0.5973 -1.1916 -0.5185
11440TIP3    H255812   3.170   1.160  14.274 -0.9208 -0.1519 -0.6797
11441TIP3   OH255813   2.523   2.936  11.101  0.2137 -0.4952 -0.4076
11441TIP3    H155814   2.453   2.879  11.070 -0.0782 -0.9868  1.1279
11441TIP3    H255815   2.597   2.917  11.044 -0.2904 -1.4340 -0.7591
11442TIP3   OH255816   0.295   4.305   4.688  0.2313 -0.6426 -0.8270
11442TIP3    H155817   0.353   4.235   4.656  0.5010  0.2077 -2.2172
11442TIP3    H255818   0.323   4.383   4.642  0.0439  0.4526  0.8606
11443TIP3   OH255819   6.508   1.429  14.371 -0.4329  0.5405 -0.3443
11443TIP3    H155820   6.586   1.402  14.420  0.5655  0.7986 -1.7758
11443TIP3    H255821   6.457   1.479  14.434  0.8468  0.8936  0.4461
11444TIP3   OH255822   2.577   1.377  11.467  0.1222 -0.5174  0.3170
11444TIP3    H155823   2.577   1.467  11.434  1.9830 -0.5914  0.0161
11444TIP3    H255824   2.503   1.335  11.423 -0.8028  0.8756  0.5069
11445TIP3   OH255825   3.033   0.589  12.067 -0.2362 -0.1595 -0.8045
11445TIP3    H155826   3.103   0.547  12.017 -0.9225 -1.2066 -0.9069
11445TIP3    H255827   2.985   0.641  12.003 -0.9088 -1.2320 -1.1862
11446TIP3   OH255828   1.264   1.274  15.949  0.2910 -0.1529 -0.0040
11446TIP3    H155829   1.288   1.346  15.890 -0.3896 -0.0111 -0.1107
11446TIP3    H255830   1.287   1.306  16.036  2.1434 -0.7121 -0.2615
11447TIP3   OH255831   1.591   5.650   5.298  0.2104  0.7599 -0.4073
11447TIP3    H155832   1.661   5.664   5.234 -0.4252  0.9704 -1.0661
11447TIP3    H255833   1.636   5.624   5.378  0.9898 -0.1225 -1.1175
11448TIP3   OH255834   3.184   5.726  11.904 -0.6421  0.2720  0.2351
11448TIP3    H155835   3.164   5.762  11.990 -1.0123  3.1773 -0.9862
11448TIP3    H255836   3.127   5.649  11.896 -1.3981  0.6094  2.1466
11449TIP3   OH255837   1.109   0.967   4.735 -0.0129  0.2587 -0.0243
11449TIP3    H155838   1.155   0.933   4.811  1.0260  1.1364 -0.2357
11449TIP3    H255839   1.024   0.994   4.768 -0.5541 -1.7770  0.2959
11450TIP3   OH255840   2.673   5.842   3.686  0.0169 -0.2302  0.2667
11450TIP3    H155841   2.748   5.794   3.723 -0.3020 -1.2245 -0.3488
11450TIP3    H255842   2.675   5.926   3.730  1.4811 -0.2604  0.3059
11451TIP3   OH255843   5.150   1.322   4.869 -0.4867 -0.0586 -0.1388
11451TIP3    H155844   5.153   1.392   4.934 -2.1909  0.3869 -0.5210
11451TIP3    H255845   5.084   1.351   4.805  1.1593 -0.4817 -2.0819
11452TIP3   OH255846   5.210   1.587  16.070 -0.2446 -0.8104  0.7219
11452TIP3    H155847   5.302   1.568  16.088 -0.2285 -1.4759 -0.0489
11452TIP3    H255848   5.171   1.603  16.156  0.3635 -1.5353  1.1279
11453TIP3   OH255849   5.568   3.862   2.735  0.1438  0.7199  0.0223
11453TIP3    H155850   5.492   3.805   2.720  0.5629  0.1294  0.1038
11453TIP3    H255851   5.637   3.802   2.763  0.0217  1.5234  2.0989
11454TIP3   OH255852   1.983   6.311  13.662 -0.3918 -0.4413  0.1551
11454TIP3    H155853   1.979   6.378  13.594  1.0721 -0.9810 -0.4779
11454TIP3    H255854   2.036   6.241  13.624  0.6377 -0.6498  1.9285
11455TIP3   OH255855   1.226   6.048  16.427 -0.2908 -0.3102 -0.1134
11455TIP3    H155856   1.174   5.982  16.381  1.1176 -1.4791 -0.0309
11455TIP3    H255857   1.306   6.003  16.452  1.4681  1.9063 -1.6212
11456TIP3   OH255858   2.258   3.330  16.479 -0.0979  0.1114  0.1305
11456TIP3    H155859   2.210   3.383  16.542 -1.6641 -0.4025 -0.6107
11456TIP3    H255860   2.282   3.392  16.410 -3.0540 -0.3586 -1.3696
11457TIP3   OH255861   6.527   6.127   4.734  0.2157 -0.5117 -0.1276
11457TIP3    H155862   6.532   6.138   4.829  2.3538  0.6555 -0.3462
11457TIP3    H255863   6.480   6.204   4.703  2.3639  0.7616 -0.2946
11458TIP3   OH255864   0.843   3.236  15.531  0.2974 -0.1203 -0.7728
11458TIP3    H155865   0.902   3.197  15.466 -0.7546  0.5720 -2.1736
11458TIP3    H255866   0.893   3.236  15.613  2.3138  0.6593 -1.9833
11459TIP3   OH255867   4.784   1.747  12.067 -0.5760  0.0281 -0.1704
11459TIP3    H155868   4.814   1.746  11.976 -0.4008 -0.2923 -0.1115
11459TIP3    H255869   4.849   1.694  12.114  0.0991  1.3219  0.3812
11460TIP3   OH255870   4.502   6.511  16.628 -0.6495  0.2136  0.4746
11460TIP3    H155871   4.485   6.590  16.679 -3.5933 -0.1160  0.0796
11460TIP3    H255872   4.512   6.542  16.538  0.0481  0.2988  0.5725
11461TIP3   OH255873   6.041   0.606  11.618 -0.5303 -0.1753 -0.0470
11461TIP3    H155874   6.024   0.600  11.712 -0.2962  1.3243  0.0978
11461TIP3    H255875   6.114   0.546  11.603  0.1526  0.4009  0.9155
11462TIP3   OH255876   0.944   5.619  13.776 -0.8621 -0.0067  0.0637
11462TIP3    H155877   0.938   5.617  13.872 -0.5761 -1.8317  0.0769
11462TIP3    H255878   0.936   5.527  13.751 -2.2335  0.5952 -1.7579
11463TIP3   OH255879   2.485   5.299  13.052  0.4532  0.0078 -0.3632
11463TIP3    H155880   2.506   5.385  13.015 -2.0593  0.3013 -1.1790
11463TIP3    H255881   2.539   5.237  13.002  0.2609  0.8460 -1.6129
11464TIP3   OH255882   5.023   5.733  13.789  0.2574 -0.2097  0.5529
11464TIP3    H155883   5.030   5.638  13.784  2.3737 -0.0159 -0.4690
11464TIP3    H255884   5.071   5.765  13.713  0.8386  1.7084  1.6898
11465TIP3   OH255885   1.948   3.795  17.092 -0.5560  0.2158  0.5561
11465TIP3    H155886   1.973   3.710  17.056  1.8336  0.7363  0.9283
11465TIP3    H255887   1.967   3.787  17.186  0.4256  1.4167  0.4611
11466TIP3   OH255888   3.457   2.722   1.451 -0.0471  0.5447 -0.2470
11466TIP3    H155889   3.447   2.750   1.359  2.1468  1.1056 -0.3492
11466TIP3    H255890   3.466   2.804   1.499 -1.9200  0.2806  0.6018
11467TIP3   OH255891   6.020   6.352  12.276 -0.6830  0.3526  0.1436
11467TIP3    H155892   5.953   6.380  12.338 -0.8192  0.8599 -0.2285
11467TIP3    H255893   5.992   6.388  12.192  0.4690  1.2608  0.1309
11468TIP3   OH255894   1.092   0.891   0.136  0.5898 -0.1438  0.4473
11468TIP3    H155895   1.179   0.927   0.118  1.7136 -2.5804  0.7734
11468TIP3    H255896   1.109   0.811   0.185 -1.9195  0.0855  1.7999
11469TIP3   OH255897   6.228   6.175  13.256  0.3776 -0.1766 -0.1157
11469TIP3    H155898   6.204   6.262  13.225 -0.8441  0.0852  1.5183
11469TIP3    H255899   6.312   6.186  13.300  0.0157  0.2596  0.4669
11470TIP3   OH255900   2.550   1.973  11.613 -0.0257  0.2412  0.6503
11470TIP3    H155901   2.507   1.961  11.528 -0.3579  0.8050  0.7343
11470TIP3    H255902   2.643   1.964  11.594 -0.0513  1.0671  0.0905
11471TIP3   OH255903   5.095   0.586   4.029 -0.0732  0.3132  0.2028
11471TIP3    H155904   5.067   0.529   4.100 -0.8683  0.2259 -0.1822
11471TIP3    H255905   5.185   0.559   4.010  0.5359  1.0773  1.9250
11472TIP3   OH255906   5.942   1.549   6.207 -0.1168  0.3869  0.5258
11472TIP3    H155907   5.959   1.629   6.257  0.4547  0.1826  0.6593
11472TIP3    H255908   5.916   1.484   6.274 -2.0889  0.8649  0.2687
11473TIP3   OH255909   1.242   3.632  11.406 -0.0720 -0.2792  0.3527
11473TIP3    H155910   1.284   3.594  11.483  3.0315  1.9057 -0.1592
11473TIP3    H255911   1.230   3.559  11.346  0.9335 -1.3454  1.4281
11474TIP3   OH255912   0.803   6.100   1.921 -0.2683  0.1376 -0.9992
11474TIP3    H155913   0.711   6.089   1.899 -0.8341  0.5200  1.0979
11474TIP3    H255914   0.836   6.162   1.856 -1.6594  0.5064 -1.3646
11475TIP3   OH255915   5.922   5.978   0.311 -0.7048 -0.4180 -0.1888
11475TIP3    H155916   5.895   6.063   0.278  2.3761  0.9763  0.6717
11475TIP3    H255917   5.943   5.994   0.403  1.9495 -1.5909 -0.5495
11476TIP3   OH255918   4.082   4.422   5.953  0.2888 -0.0534 -0.3426
11476TIP3    H155919   4.002   4.434   5.902  0.4008 -1.1436 -0.8020
11476TIP3    H255920   4.085   4.497   6.013 -0.0828  0.9903 -1.6248
11477TIP3   OH255921   4.249   5.099   5.073  0.5716  0.0490  0.3892
11477TIP3    H155922   4.228   5.162   5.004 -0.2518  0.5304  1.0774
11477TIP3    H255923   4.167   5.051   5.087  0.9917 -0.6845  0.3829
11478TIP3   OH255924   3.427   5.424   1.115  0.3445 -0.3932  0.0016
11478TIP3    H155925   3.387   5.395   1.033 -0.8592  1.1830  0.0142
11478TIP3    H255926   3.438   5.343   1.165  0.2607 -1.2608 -1.3438
11479TIP3   OH255927   0.382   5.195   1.295 -0.1115 -0.0738  0.5982
11479TIP3    H155928   0.466   5.163   1.262 -0.2338 -1.0911  1.2765
11479TIP3    H255929   0.399   5.287   1.317  0.6982 -0.1418  0.2928
11480TIP3   OH255930   0.369   2.567  11.661  0.4848 -0.1724  0.0467
11480TIP3    H155931   0.383   2.611  11.745 -4.0115 -0.4201  1.0852
11480TIP3    H255932   0.417   2.485  11.668  1.1500  0.3531  1.8957
11481TIP3   OH255933   6.711   5.990  11.997 -0.1279 -0.1342  0.2083
11481TIP3    H155934   6.631   6.019  11.954 -0.6489 -0.5948  0.8470
11481TIP3    H255935   6.688   5.986  12.090  1.2381  1.7078  0.6490
11482TIP3   OH255936   0.004   0.402   0.245  0.0605  1.0353 -0.0255
11482TIP3    H155937  -0.017   0.408   0.338 -0.3854  0.7359 -0.1060
11482TIP3    H255938  -0.043   0.325   0.215  0.0089  1.2720 -0.5519
11483TIP3   OH255939   4.687   4.150  16.250 -0.5615 -0.3685  0.0886
11483TIP3    H155940   4.701   4.125  16.159  0.7161 -0.5362  0.3157
11483TIP3    H255941   4.705   4.070  16.300  1.7378  0.4944  0.6977
11484TIP3   OH255942   0.815   6.112   0.617  0.0640  0.2761  0.4613
11484TIP3    H155943   0.784   6.021   0.619 -0.3962  0.3587 -1.6063
11484TIP3    H255944   0.908   6.105   0.598 -0.3344  0.2844 -1.5410
11485TIP3   OH255945   2.854   3.540  14.417 -0.2180 -0.5776 -0.0229
11485TIP3    H155946   2.798   3.462  14.420 -1.6826  0.5036  1.7734
11485TIP3    H255947   2.794   3.613  14.430  1.3721  0.7326  0.0908
11486TIP3   OH255948   0.983   5.938   4.018  0.1514 -0.2729  0.4941
11486TIP3    H155949   0.984   5.989   4.099 -1.3485  2.0000 -0.8565
11486TIP3    H255950   0.898   5.896   4.016  1.4522 -3.0496  1.6841
11487TIP3   OH255951   0.722   5.831  13.160 -0.3476 -0.0653  0.3798
11487TIP3    H155952   0.710   5.926  13.162 -0.6576 -0.0681 -1.0873
11487TIP3    H255953   0.651   5.798  13.215 -0.2302  0.5439  0.9139
11488TIP3   OH255954   3.842   3.021   1.454 -0.6104  0.0184  0.6331
11488TIP3    H155955   3.762   2.973   1.477 -1.5500  0.7936 -0.9601
11488TIP3    H255956   3.812   3.109   1.430  0.6077  0.0841 -0.7510
11489TIP3   OH255957   5.874   5.180  12.171 -0.0357 -0.6797  0.2330
11489TIP3    H155958   5.849   5.273  12.169 -1.5614 -1.0430  1.3692
11489TIP3    H255959   5.867   5.156  12.264 -0.7727 -2.2055 -0.2056
11490TIP3   OH255960   2.962   2.665  13.302 -0.0369  0.2582 -0.0404
11490TIP3    H155961   2.991   2.714  13.225  1.6792  0.3494  0.6345
11490TIP3    H255962   3.042   2.653  13.353 -0.8996 -1.1142  0.9913
11491TIP3   OH255963   5.082   3.417   3.454  0.1825 -0.0353 -0.2539
11491TIP3    H155964   5.085   3.468   3.535  0.2715  0.8107 -0.7799
11491TIP3    H255965   5.021   3.346   3.473  0.8766 -0.3471  0.8401
11492TIP3   OH255966   2.519   1.792   4.729  0.1318  0.0061 -0.3360
11492TIP3    H155967   2.500   1.837   4.647 -0.3359 -0.0172 -0.2392
11492TIP3    H255968   2.599   1.835   4.762  0.0104  0.3813 -0.5292
11493TIP3   OH255969   4.364   4.092   4.970 -0.0305  0.0084 -0.0313
11493TIP3    H155970   4.347   4.135   4.886  0.8506 -0.4218 -0.4305
11493TIP3    H255971   4.403   4.008   4.947  3.1179  1.1613  0.8693
11494TIP3   OH255972   6.813   1.242  15.546  0.6145 -0.2585 -0.1193
11494TIP3    H155973   6.894   1.195  15.565  0.5160 -0.2307  0.3862
11494TIP3    H255974   6.777   1.262  15.632  0.0904 -0.2386 -0.3404
11495TIP3   OH255975   6.224   0.433   1.015  1.0295  0.4685 -0.2632
11495TIP3    H155976   6.136   0.453   1.045  0.9054 -3.3321  2.3825
11495TIP3    H255977   6.279   0.446   1.092  1.8336 -2.6408 -0.2329
11496TIP3   OH255978   1.831   2.942   6.444  0.1361  0.1955 -0.3901
11496TIP3    H155979   1.896   2.872   6.437 -0.5305 -0.2189 -2.8857
11496TIP3    H255980   1.876   3.020   6.414  1.0065  0.9893  2.7915
11497TIP3   OH255981   3.255   5.709   1.105 -0.5459 -0.3409 -0.5776
11497TIP3    H155982   3.177   5.658   1.084 -1.5723  0.4289  1.2307
11497TIP3    H255983   3.306   5.651   1.162  0.3795 -0.9635 -2.0110
11498TIP3   OH255984   4.363   4.976  17.016 -0.0105 -0.1929 -0.0380
11498TIP3    H155985   4.393   5.010  17.101  1.9172  1.2953 -1.2624
11498TIP3    H255986   4.360   5.053  16.960  0.7462 -1.4718 -1.8749
11499TIP3   OH255987   1.706   5.337  12.571  0.1909  0.7420 -0.0256
11499TIP3    H155988   1.742   5.308  12.487 -1.7484  1.0620 -0.9914
11499TIP3    H255989   1.734   5.270  12.633 -2.1838 -1.9836 -1.7630
11500TIP3   OH255990   4.383   1.368  13.282  0.0670  0.1906  0.6331
11500TIP3    H155991   4.354   1.445  13.233 -1.9033  1.2757  3.3996
11500TIP3    H255992   4.411   1.306  13.214  2.2952  3.5192 -1.6332
11501TIP3   OH255993   6.791   3.376  17.277 -0.2287 -0.2907 -0.0682
11501TIP3    H155994   6.708   3.408  17.312  0.3474 -0.2327  1.3021
11501TIP3    H255995   6.780   3.281  17.272 -0.0552 -0.3783  1.0362
11502TIP3   OH255996   3.723   4.928   1.109 -0.3596 -0.1160  0.0992
11502TIP3    H155997   3.732   5.023   1.121  0.8877 -0.1819 -0.2113
11502TIP3    H255998   3.775   4.909   1.032 -1.8981 -0.8441 -0.7752
11503TIP3   OH255999   2.169   3.273  10.897  0.6646  0.1632  0.8887
11503TIP3    H156000   2.109   3.199  10.890 -0.8702  1.2264  2.4217
11503TIP3    H256001   2.162   3.318  10.813  2.7820 -2.2525 -0.6649
11504TIP3   OH256002   4.079   2.456   4.918 -0.4319 -0.1563  0.1680
11504TIP3    H156003   4.118   2.428   4.835 -0.0768 -2.0571  0.9518
11504TIP3    H256004   3.985   2.458   4.901 -0.3623 -0.5186 -0.2703
11505TIP3   OH256005   0.031   0.838   2.607 -0.2618 -0.2401 -0.1980
11505TIP3    H156006   0.016   0.915   2.552  0.7968 -0.2924 -0.5789
11505TIP3    H256007  -0.024   0.770   2.569  0.2379 -0.1898 -1.0266
11506TIP3   OH256008   1.843   5.174  11.379 -0.2350  0.1408 -0.3407
11506TIP3    H156009   1.802   5.224  11.309 -1.0090  0.8201  0.5824
11506TIP3    H256010   1.927   5.146  11.343 -1.2859 -0.8319 -2.0799
11507TIP3   OH256011   4.566   3.603  13.137  0.2260  0.3599  0.0712
11507TIP3    H156012   4.479   3.568  13.157  1.6275 -2.1994  1.9252
11507TIP3    H256013   4.578   3.676  13.198 -0.2542  0.1649  0.3984
11508TIP3   OH256014   2.162   2.572  11.575  0.5224 -0.4480 -0.0954
11508TIP3    H156015   2.191   2.662  11.559  1.5358 -0.4344  1.6886
11508TIP3    H256016   2.181   2.556  11.667 -0.9142 -2.0434 -0.0392
11509TIP3   OH256017   2.906   1.510  14.920 -0.0460 -0.3979 -0.0146
11509TIP3    H156018   2.815   1.494  14.942 -0.0326 -1.2590 -0.5834
11509TIP3    H256019   2.956   1.449  14.974  0.2490  0.6859  0.9521
11510TIP3   OH256020   6.765   6.493   5.924  0.2263  0.7527 -0.1488
11510TIP3    H156021   6.764   6.585   5.949  0.7514  0.3033  1.5450
11510TIP3    H256022   6.714   6.448   5.991  0.9091 -0.3403 -0.3360
11511TIP3   OH256023   5.086   0.380   3.504 -0.2330  0.1310 -0.2818
11511TIP3    H156024   5.073   0.456   3.562  1.7738 -0.0554  0.4372
11511TIP3    H256025   5.007   0.378   3.450 -0.2915  2.7782 -0.3727
11512TIP3   OH256026   1.521   5.355  11.462 -0.6149  0.3912  0.4135
11512TIP3    H156027   1.447   5.410  11.439 -0.2622  0.8023  0.2479
11512TIP3    H256028   1.573   5.351  11.382 -1.1589 -1.0145  0.1263
11513TIP3   OH256029   3.067   4.909   5.321 -0.3348 -0.2837 -0.4862
11513TIP3    H156030   3.017   4.942   5.396  0.2241  0.2419 -0.3361
11513TIP3    H256031   3.100   4.824   5.350  0.2613  0.1181  0.0418
11514TIP3   OH256032   2.152   6.070   4.400 -0.6902  0.1766  0.5649
11514TIP3    H156033   2.064   6.041   4.377 -1.7967  1.9826  2.4492
11514TIP3    H256034   2.152   6.076   4.495  1.1977  1.0016  0.5377
11515TIP3   OH256035   5.758   5.718  12.705  0.1253  0.1836  0.0083
11515TIP3    H156036   5.715   5.645  12.660  0.4274  0.3202 -0.5104
11515TIP3    H256037   5.800   5.768  12.635  0.7678  0.2893  0.4655
11516TIP3   OH256038   4.907   1.936   3.133  0.6766 -0.9072 -0.4558
11516TIP3    H156039   4.998   1.915   3.114  1.0807  0.7490 -0.4388
11516TIP3    H256040   4.911   2.020   3.180 -0.8197 -1.0648 -0.0097
11517TIP3   OH256041   2.508   6.411  17.222 -0.2053 -0.6185 -0.5302
11517TIP3    H156042   2.493   6.322  17.254 -1.1980  0.0292  0.8656
11517TIP3    H256043   2.566   6.451  17.288  0.2950 -0.2402 -1.1869
11518TIP3   OH256044   3.025   5.175   1.615 -0.0311  0.3279 -0.4367
11518TIP3    H156045   3.087   5.199   1.546  0.8437 -0.8137 -0.0663
11518TIP3    H256046   3.038   5.081   1.628 -1.6707  0.1059 -0.1740
11519TIP3   OH256047   0.272   3.436   3.291  0.1697  0.0200  0.1214
11519TIP3    H156048   0.367   3.427   3.295  0.1885  0.4890  0.8058
11519TIP3    H256049   0.254   3.459   3.200  0.8002  0.9186  0.2208
11520TIP3   OH256050   5.316   6.411   2.516  0.0729 -0.1607  0.3237
11520TIP3    H156051   5.378   6.416   2.589  1.6210 -0.0306 -0.9715
11520TIP3    H256052   5.302   6.318   2.503 -0.6692 -0.1758  1.1492
11521TIP3   OH256053   4.253   4.598  13.535 -0.3434 -0.2541 -0.4805
11521TIP3    H156054   4.183   4.567  13.593  1.4452 -0.7110  1.4833
11521TIP3    H256055   4.227   4.687  13.513 -0.8876  0.0740  1.3542
11522TIP3   OH256056   0.283   6.284  16.620  0.3334  0.5330  0.7898
11522TIP3    H156057   0.227   6.359  16.601 -0.0592 -0.0477 -0.3945
11522TIP3    H256058   0.372   6.317  16.608  0.1798  0.9499  0.7924
11523TIP3   OH256059   3.601   3.364   1.143 -0.4067 -0.3347 -0.1307
11523TIP3    H156060   3.652   3.284   1.140 -0.6168 -0.4273 -1.7114
11523TIP3    H256061   3.536   3.354   1.074 -1.4117  0.5463  0.6686
11524TIP3   OH256062   3.968   1.401   5.410  0.0138 -0.5339 -0.8319
11524TIP3    H156063   3.958   1.321   5.462 -0.6482 -0.9228 -1.5434
11524TIP3    H256064   3.898   1.459   5.441 -0.5222 -0.8515 -1.4389
11525TIP3   OH256065   4.853   5.549   2.249 -0.7881 -0.2091  0.1864
11525TIP3    H156066   4.888   5.609   2.184 -2.0151  0.7445  0.3948
11525TIP3    H256067   4.825   5.473   2.199  0.7858 -0.6431 -0.0730
11526TIP3   OH256068   3.514   0.497  14.110  0.3274 -0.2449  0.9060
11526TIP3    H156069   3.608   0.491  14.126  0.0184 -1.0521  2.6255
11526TIP3    H256070   3.475   0.443  14.180 -1.4745  1.3257  1.1463
11527TIP3   OH256071   1.115   0.535  14.730 -0.0559 -0.2720 -0.5543
11527TIP3    H156072   1.080   0.600  14.790 -0.4945 -0.7936 -0.2498
11527TIP3    H256073   1.097   0.570  14.643  1.8568  1.1898 -0.4072
11528TIP3   OH256074   5.858   3.945  14.697 -0.1719  0.2542  0.6053
11528TIP3    H156075   5.834   3.920  14.608  0.7301 -2.3602  1.0513
11528TIP3    H256076   5.796   4.014  14.720 -1.8559 -0.6023 -1.2176
11529TIP3   OH256077   2.264   5.704  16.852 -0.7405 -0.3131 -0.4814
11529TIP3    H156078   2.172   5.695  16.876 -0.9848  0.0249 -1.2664
11529TIP3    H256079   2.274   5.646  16.775 -0.5886  0.5727 -1.1348
11530TIP3   OH256080   4.136   5.535  11.280 -0.0608 -0.0268  0.1793
11530TIP3    H156081   4.087   5.554  11.199 -0.6113 -1.9692  0.0168
11530TIP3    H256082   4.068   5.515  11.345  0.4153  0.4688  0.8306
11531TIP3   OH256083   4.631   2.974  14.778 -0.2171  0.5381  0.4792
11531TIP3    H156084   4.580   3.038  14.828 -1.8135 -0.4664  0.1845
11531TIP3    H256085   4.581   2.961  14.697  1.7627  1.3194 -0.9322
11532TIP3   OH256086   0.303   0.915   2.476  0.9287 -0.7561  0.5135
11532TIP3    H156087   0.272   0.890   2.388  1.4597  0.8679 -0.1577
11532TIP3    H256088   0.245   0.870   2.536  0.1275 -1.3540 -0.6947
11533TIP3   OH256089   4.570   5.071   5.056  0.0412 -0.0611  0.0673
11533TIP3    H156090   4.632   5.051   5.127  3.2364  2.8121 -1.7789
11533TIP3    H256091   4.553   4.986   5.016  2.1733 -1.0568  1.1439
11534TIP3   OH256092   3.075   3.569  15.995 -0.0928  0.1484  0.5064
11534TIP3    H156093   3.169   3.556  16.010 -0.1637 -0.5872  0.3367
11534TIP3    H256094   3.054   3.649  16.044  1.1242  1.7416 -1.4885
11535TIP3   OH256095   6.326   5.520   5.809  0.1186  0.0748  0.0137
11535TIP3    H156096   6.272   5.455   5.764 -0.2395  0.8561 -0.7012
11535TIP3    H256097   6.403   5.471   5.839 -1.1158 -1.1052  1.3058
11536TIP3   OH256098   6.562   3.007   1.021  0.4124  0.1393 -0.3486
11536TIP3    H156099   6.534   3.084   1.071 -0.6553 -0.8919  0.6605
11536TIP3    H256100   6.657   3.017   1.014  0.3750  1.1527  0.4435
11537TIP3   OH256101   2.044   1.280   4.643  0.2589 -0.4169 -0.0098
11537TIP3    H156102   2.098   1.335   4.586  2.3378 -0.7905  1.5281
11537TIP3    H256103   2.070   1.306   4.732 -1.0872 -1.6155  0.7568
11538TIP3   OH256104   3.877   3.312   4.516 -0.0295 -0.1284  0.3906
11538TIP3    H156105   3.782   3.321   4.515  0.0724  1.0492 -0.1423
11538TIP3    H256106   3.895   3.237   4.459 -0.4451  2.0814 -2.7943
11539TIP3   OH256107   3.317   6.206   5.298  0.5363 -0.0442  0.1519
11539TIP3    H156108   3.335   6.247   5.382  1.8507 -1.7806  0.7373
11539TIP3    H256109   3.332   6.275   5.234  3.3228  0.2397  1.0630
11540TIP3   OH256110   2.436   2.367  15.067  0.2594  0.6814  0.6424
11540TIP3    H156111   2.520   2.341  15.105 -0.6995 -4.1550 -0.2072
11540TIP3    H256112   2.370   2.328  15.125 -1.3162  0.4414 -1.2474
11541TIP3   OH256113   0.938   4.958  13.498  0.0920  0.2714  0.1125
11541TIP3    H156114   1.013   4.993  13.544 -0.5807  0.8780  0.7565
11541TIP3    H256115   0.963   4.958  13.405  1.5556 -1.2151  0.4886
11542TIP3   OH256116   4.205   3.002  16.439 -0.4356  0.5849 -0.0884
11542TIP3    H156117   4.113   2.999  16.467  0.8628 -1.2375  4.3727
11542TIP3    H256118   4.231   3.093  16.455 -1.2589  0.9731 -0.8524
11543TIP3   OH256119   1.898   6.757   2.227  0.0164  0.2697 -0.1851
11543TIP3    H156120   1.964   6.727   2.165  0.4796 -0.8225  0.8172
11543TIP3    H256121   1.874   6.679   2.276 -0.1540  1.1604  1.1737
11544TIP3   OH256122   0.423   0.400  15.149 -0.7089  0.1806 -0.0136
11544TIP3    H156123   0.503   0.347  15.140  0.4228  2.1340 -1.8942
11544TIP3    H256124   0.417   0.420  15.242  0.8783 -0.1697  0.1758
11545TIP3   OH256125   4.483   6.479  17.233  0.4126 -0.0978 -0.0456
11545TIP3    H156126   4.409   6.525  17.193  0.0955 -0.3802  0.2029
11545TIP3    H256127   4.552   6.545  17.241  0.6292 -0.1449 -1.4408
11546TIP3   OH256128   1.545   3.827   5.977 -0.1956  0.5255 -0.0635
11546TIP3    H156129   1.551   3.858   6.067  0.8139 -0.3409  0.1825
11546TIP3    H256130   1.481   3.885   5.935 -1.8772 -0.0439  1.6318
11547TIP3   OH256131   5.836   0.866  11.898  0.2130  0.8463  0.3725
11547TIP3    H156132   5.808   0.931  11.834 -0.9748 -0.7837 -0.8005
11547TIP3    H256133   5.763   0.805  11.903  1.6359 -0.8402  0.8598
11548TIP3   OH256134   3.400   5.216   5.268 -0.1656 -0.3506  0.8251
11548TIP3    H156135   3.330   5.159   5.236 -0.1156 -0.6536  1.2553
11548TIP3    H256136   3.454   5.160   5.323 -1.3617  0.6091  3.0651
11549TIP3   OH256137   1.486   0.751   6.511 -0.1269  0.0113  0.0302
11549TIP3    H156138   1.520   0.839   6.495  0.6595 -0.5146 -1.2929
11549TIP3    H256139   1.392   0.764   6.526 -0.2756  0.9350 -1.5707
11550TIP3   OH256140   2.359   4.568   4.385 -0.8420  0.0282 -0.3723
11550TIP3    H156141   2.397   4.495   4.338  0.2582  1.3434 -1.5812
11550TIP3    H256142   2.308   4.528   4.456  1.2732 -1.8287  0.1553
11551TIP3   OH256143   2.810   0.506  17.153 -0.3460  0.2458 -0.2204
11551TIP3    H156144   2.876   0.543  17.093  0.0856 -0.6225 -0.2872
11551TIP3    H256145   2.732   0.495  17.099 -0.2315  0.3040 -0.4000
11552TIP3   OH256146   1.284   2.154  13.132 -0.0856  0.1624 -0.0186
11552TIP3    H156147   1.317   2.151  13.222 -1.3337  0.0347  0.4490
11552TIP3    H256148   1.213   2.218  13.135  0.9516  1.3697 -1.2926
11553TIP3   OH256149   4.381   5.836   2.884  0.2683 -0.2433 -0.3287
11553TIP3    H156150   4.450   5.787   2.929  1.5599  0.0871 -1.9075
11553TIP3    H256151   4.412   5.842   2.794 -1.8434 -0.0772 -1.0482
11554TIP3   OH256152   6.399   4.507  12.244  0.3727 -0.4151  0.4252
11554TIP3    H156153   6.379   4.599  12.261 -0.5645 -0.7093  0.9248
11554TIP3    H256154   6.486   4.493  12.283  0.8000  0.4201 -0.2241
11555TIP3   OH256155   2.985   1.484   2.144 -0.4193 -0.6045  0.1019
11555TIP3    H156156   3.013   1.403   2.186  0.4747 -0.6332 -0.5521
11555TIP3    H256157   3.066   1.526   2.115 -1.0676 -1.1694 -2.6813
11556TIP3   OH256158   6.122   5.240   1.572  0.0367 -0.2782  0.3163
11556TIP3    H156159   6.032   5.272   1.576  0.5433  1.0167  2.2058
11556TIP3    H256160   6.118   5.165   1.513 -1.9824  0.6880 -0.8570
11557TIP3   OH256161   0.726   0.828  16.341 -0.2174 -0.2626  0.5552
11557TIP3    H156162   0.766   0.907  16.376  0.2112  0.0372 -0.5973
11557TIP3    H256163   0.663   0.859  16.276 -1.4271 -0.7893  1.4547
11558TIP3   OH256164   1.444   2.218  13.683  0.2944 -0.1655 -0.0219
11558TIP3    H156165   1.491   2.145  13.725 -0.7572 -0.7846  0.0909
11558TIP3    H256166   1.415   2.273  13.756  0.7982  0.2005 -0.0903
11559TIP3   OH256167   4.155   2.106  12.201  0.1146 -0.0543 -0.8476
11559TIP3    H156168   4.222   2.113  12.269  1.3379 -0.9676 -1.9301
11559TIP3    H256169   4.176   2.176  12.139  1.1371 -1.4081 -2.0742
11560TIP3   OH256170   0.085   5.760   5.584 -0.2552  0.2927  0.2250
11560TIP3    H156171   0.079   5.753   5.679 -0.9126  0.5100  0.1990
11560TIP3    H256172   0.138   5.838   5.569 -0.3327  0.3826  0.4132
11561TIP3   OH256173   1.146   5.508   3.352  0.9018  0.1193 -0.0174
11561TIP3    H156174   1.141   5.531   3.259  0.7495 -0.6228 -0.1918
11561TIP3    H256175   1.229   5.546   3.381  1.4299 -0.5052 -0.6972
11562TIP3   OH256176   5.224   6.716   3.536 -0.4674 -0.3731  0.0601
11562TIP3    H156177   5.265   6.742   3.453  0.8048  0.2068  0.8554
11562TIP3    H256178   5.194   6.798   3.575  0.1908 -0.4876  0.8227
11563TIP3   OH256179   6.508   4.049   5.164 -0.0707  0.0627  0.3740
11563TIP3    H156180   6.496   4.142   5.144 -0.1900 -0.1704 -0.6724
11563TIP3    H256181   6.581   4.047   5.226  0.6390  0.7710 -0.4278
11564TIP3   OH256182   0.133   3.493   1.604 -0.0800 -0.2142  0.3818
11564TIP3    H156183   0.151   3.491   1.698  0.2722  0.1586  0.3209
11564TIP3    H256184   0.193   3.428   1.567 -1.1110 -1.3021  0.5604
11565TIP3   OH256185   0.742   0.045  11.583  0.2113 -0.0144 -0.1080
11565TIP3    H156186   0.813   0.094  11.542 -0.5777  0.1906 -1.2434
11565TIP3    H256187   0.763  -0.047  11.563  0.5728 -0.0089  0.2347
11566TIP3   OH256188   6.000   6.714   4.908 -0.0916  0.4683 -0.0203
11566TIP3    H156189   6.031   6.805   4.907 -1.6865  1.0744  2.0009
11566TIP3    H256190   5.913   6.718   4.869 -0.1045 -0.2175 -0.0625
11567TIP3   OH256191   4.581   1.111   5.278 -0.0302 -0.1704  0.2602
11567TIP3    H156192   4.525   1.160   5.217  1.8695 -1.6628 -2.8387
11567TIP3    H256193   4.669   1.145   5.261  0.9114 -2.5883  0.1717
11568TIP3   OH256194   3.712   3.794   3.710  0.4538  0.4561  0.7566
11568TIP3    H156195   3.718   3.701   3.688 -1.2793  0.3702  0.5875
11568TIP3    H256196   3.623   3.805   3.744  0.9763  1.8615  1.7179
11569TIP3   OH256197   2.312   2.555   0.677  0.0451 -0.4728 -0.2026
11569TIP3    H156198   2.299   2.502   0.599 -1.3314 -0.7683  0.2066
11569TIP3    H256199   2.226   2.595   0.693  0.0394 -1.2290  1.7458
11570TIP3   OH256200   4.622   4.034  13.900  0.6787  0.0081 -0.2962
11570TIP3    H156201   4.670   3.954  13.880 -1.8356 -1.3614 -1.0113
11570TIP3    H256202   4.532   4.006  13.915 -0.1342  2.6232  0.0498
11571TIP3   OH256203   1.356   0.812   2.917 -0.4334  0.4030  0.4472
11571TIP3    H156204   1.329   0.824   3.008  1.4053  2.5437  0.7591
11571TIP3    H256205   1.356   0.717   2.904 -2.7415  0.1445  2.0295
11572TIP3   OH256206   6.475   4.518  16.336 -0.1631 -0.1725 -0.1729
11572TIP3    H156207   6.428   4.599  16.357  2.1809  1.2396 -0.1826
11572TIP3    H256208   6.460   4.506  16.243 -0.5864  0.1896 -0.1568
11573TIP3   OH256209   4.475   3.055   6.004 -0.1285  0.8905 -0.0022
11573TIP3    H156210   4.533   3.039   6.078 -1.2557  1.8813  1.1344
11573TIP3    H256211   4.401   2.996   6.018  0.4999 -0.2565 -1.3597
11574TIP3   OH256212   6.482   6.493  12.544 -0.0199  0.0438 -0.5991
11574TIP3    H156213   6.571   6.458  12.532  0.5590  1.4463 -0.5344
11574TIP3    H256214   6.460   6.531  12.459 -0.3809  0.0935 -0.4829
11575TIP3   OH256215   5.100   1.762  12.829  0.6380 -0.1618  0.1086
11575TIP3    H156216   5.172   1.709  12.862  2.0878  1.9757  0.4911
11575TIP3    H256217   5.050   1.785  12.907  1.7153  1.4620  0.3519
11576TIP3   OH256218   6.704   1.085   6.678 -0.2017 -0.2078  0.2542
11576TIP3    H156219   6.704   1.062   6.771  2.0860 -0.9555  0.1231
11576TIP3    H256220   6.797   1.087   6.654 -0.7320  0.4379 -1.9073
11577TIP3   OH256221   3.716   4.860  16.971  0.0059 -0.7005  0.1164
11577TIP3    H156222   3.800   4.882  17.011 -0.9915  1.5138  1.1087
11577TIP3    H256223   3.651   4.884  17.037 -1.5706  0.6107 -1.8379
11578TIP3   OH256224   1.449   4.637  13.406  0.7788 -0.0041 -0.3308
11578TIP3    H156225   1.414   4.653  13.494 -0.1407 -1.2933 -0.4545
11578TIP3    H256226   1.517   4.570  13.420 -0.0135 -0.8987 -0.7189
11579TIP3   OH256227   3.527   6.511  10.386  0.2075 -0.2919 -0.1234
11579TIP3    H156228   3.522   6.591  10.334 -2.6624  0.1298  0.7110
11579TIP3    H256229   3.613   6.474  10.364  0.8413  2.0548 -1.8840
11580TIP3   OH256230   1.480   3.869  13.898  0.4079 -0.3221 -0.3777
11580TIP3    H156231   1.435   3.870  13.813 -1.0050 -0.3313  0.3643
11580TIP3    H256232   1.488   3.961  13.922 -2.1339 -0.4098  0.9938
11581TIP3   OH256233   6.015   0.852   5.423  0.2190 -0.6124  0.8022
11581TIP3    H156234   6.018   0.802   5.504 -0.4910 -0.6183  0.8204
11581TIP3    H256235   6.101   0.836   5.383  0.6276 -0.4904  1.6152
11582TIP3   OH256236   5.547   4.891   1.332  0.2301 -0.0351  0.1725
11582TIP3    H156237   5.608   4.873   1.260  0.3105  0.8632  0.0136
11582TIP3    H256238   5.604   4.897   1.410  0.4507  1.6148 -0.1005
11583TIP3   OH256239   1.649   3.190   2.208 -0.0170 -0.0183  0.5039
11583TIP3    H156240   1.656   3.266   2.266 -1.5528  0.0229  0.6659
11583TIP3    H256241   1.554   3.177   2.198  0.2137  0.1449 -2.2394
11584TIP3   OH256242   2.231   1.846  11.475 -0.0953  0.1751  0.0459
11584TIP3    H156243   2.219   1.764  11.426 -1.7292  1.3332 -1.5459
11584TIP3    H256244   2.226   1.818  11.567  1.6861 -1.8281 -0.4155
11585TIP3   OH256245   1.455   5.379  17.077 -0.0905  0.0209 -0.1124
11585TIP3    H156246   1.525   5.402  17.138 -0.7309 -0.4971  0.8252
11585TIP3    H256247   1.446   5.284  17.085 -0.0833 -0.0731 -1.1239
11586TIP3   OH256248   5.695   0.968   1.551 -0.0650 -0.1869  0.0482
11586TIP3    H156249   5.696   0.957   1.456  0.2799 -0.1005  0.0380
11586TIP3    H256250   5.748   0.896   1.584 -2.6631 -1.9858  0.3914
11587TIP3   OH256251   4.365   2.801   4.711  0.0019  0.6174 -0.2094
11587TIP3    H156252   4.371   2.810   4.616  1.5232  2.6161  0.0261
11587TIP3    H256253   4.456   2.795   4.740 -0.5058 -2.8234  0.9240
11588TIP3   OH256254   3.460   3.689   5.687  0.4437 -0.1652  0.3466
11588TIP3    H156255   3.435   3.601   5.715  1.2840 -0.5202 -0.0097
11588TIP3    H256256   3.531   3.714   5.746 -0.7748  0.8672  1.3946
11589TIP3   OH256257   6.686   2.207   2.461  0.3819 -0.3645 -0.4311
11589TIP3    H156258   6.597   2.226   2.488  0.0942 -0.9512 -0.9573
11589TIP3    H256259   6.739   2.275   2.503 -0.3826  0.3447 -0.6033
11590TIP3   OH256260   6.172   2.415   6.155 -0.1208 -0.0509 -0.2496
11590TIP3    H156261   6.254   2.443   6.196  0.0891 -0.5089 -0.3458
11590TIP3    H256262   6.112   2.401   6.228  0.3804 -1.2807 -0.0524
11591TIP3   OH256263   5.874   3.983   5.746  0.2177  0.0501  0.1022
11591TIP3    H156264   5.952   3.952   5.699 -0.3696 -2.0544  0.4671
11591TIP3    H256265   5.854   4.067   5.707  2.9048  0.7996  0.2366
11592TIP3   OH256266   3.009   5.455   4.860 -0.2578 -0.4326  0.0837
11592TIP3    H156267   2.919   5.425   4.848 -0.1766  0.2620 -2.7578
11592TIP3    H256268   3.059   5.405   4.795  1.2435 -0.1180  0.9859
11593TIP3   OH256269   6.274   4.704   1.291 -0.0245  0.3065 -0.6116
11593TIP3    H156270   6.364   4.695   1.322 -0.3617 -1.0353  0.0218
11593TIP3    H256271   6.282   4.712   1.196  0.8314  1.5562 -0.4526
11594TIP3   OH256272   0.456   5.929   6.098  0.0652  0.1101 -0.5327
11594TIP3    H156273   0.467   5.999   6.163 -2.0905  0.1503 -0.1423
11594TIP3    H256274   0.472   5.848   6.148  0.9158  0.2450 -0.5789
11595TIP3   OH256275   6.637   6.277   3.847 -0.8336  0.5656  0.2134
11595TIP3    H156276   6.607   6.220   3.776 -1.1726 -1.2578  1.7875
11595TIP3    H256277   6.566   6.340   3.859 -0.6081  1.1256 -1.3123
11596TIP3   OH256278   0.518   2.987   0.905 -0.5083 -0.0206 -0.6885
11596TIP3    H156279   0.532   2.918   0.969 -2.2027 -0.0337 -0.3121
11596TIP3    H256280   0.436   3.029   0.932 -0.8465  0.4623 -2.3884
11597TIP3   OH256281   1.292   2.716   5.946 -0.4867  0.0146  0.1473
11597TIP3    H156282   1.222   2.721   5.881 -0.2532 -0.7697 -0.1668
11597TIP3    H256283   1.255   2.758   6.024 -1.3750 -0.5628  0.0424
11598TIP3   OH256284   0.986   5.552  11.874  0.0605 -0.4689 -0.2903
11598TIP3    H156285   0.926   5.590  11.938  1.3875  0.0709  0.6558
11598TIP3    H256286   0.974   5.605  11.795 -0.8998 -0.5383 -0.1907
11599TIP3   OH256287   4.433   0.146  15.834 -0.0796 -0.4478 -0.0345
11599TIP3    H156288   4.464   0.232  15.864 -0.5784 -0.6514  1.0999
11599TIP3    H256289   4.358   0.127  15.890 -0.0863 -1.5412 -0.4097
11600TIP3   OH256290   2.443   1.818   2.091 -0.3451  0.0509  0.0468
11600TIP3    H156291   2.348   1.818   2.077 -0.3327 -1.5229 -0.0918
11600TIP3    H256292   2.480   1.812   2.003 -0.1425 -1.1928  0.2196
11601TIP3   OH256293   3.245   1.278   4.444  0.3714  0.4577  0.2320
11601TIP3    H156294   3.172   1.220   4.422  0.7411 -0.3822  1.1639
11601TIP3    H256295   3.217   1.322   4.525  1.2062 -0.4403  1.0163
11602TIP3   OH256296   5.845   2.261  14.628 -0.1202  0.4265  0.1266
11602TIP3    H156297   5.792   2.333  14.662  0.7249  0.5945  1.1213
11602TIP3    H256298   5.832   2.189  14.690  1.0841  0.5849  0.5695
11603TIP3   OH256299   2.124   4.277  16.646 -0.2772 -0.1928 -0.1143
11603TIP3    H156300   2.188   4.344  16.671 -0.3171  0.5774 -1.9816
11603TIP3    H256301   2.058   4.280  16.715  0.7172  0.3378  0.8287
11604TIP3   OH256302   5.349   0.429   5.972 -0.0398 -0.0177 -0.3060
11604TIP3    H156303   5.255   0.408   5.970  0.0108 -0.3088  0.2888
11604TIP3    H256304   5.351   0.524   5.976 -0.3584 -0.0789  1.8946
11605TIP3   OH256305   1.347   3.299  12.920  0.6081  0.5735  0.1599
11605TIP3    H156306   1.392   3.228  12.966 -0.1939  0.3417  0.5912
11605TIP3    H256307   1.261   3.304  12.961 -1.2338 -1.5288 -3.1955
11606TIP3   OH256308   0.754   6.293   5.194  0.8659 -0.4662  0.1378
11606TIP3    H156309   0.695   6.367   5.180  0.3377 -0.8617  0.2383
11606TIP3    H256310   0.722   6.225   5.134  1.8029 -0.3537 -0.4954
11607TIP3   OH256311   1.574   1.672   3.573  0.1573  0.4543 -0.2318
11607TIP3    H156312   1.540   1.676   3.484 -2.0732 -1.0049  0.5085
11607TIP3    H256313   1.615   1.586   3.579 -1.9219 -0.4919  0.8772
11608TIP3   OH256314   3.908   6.057  10.823  0.0550 -0.4273  0.3592
11608TIP3    H156315   3.924   5.987  10.886 -1.6666  0.7089  2.1279
11608TIP3    H256316   3.816   6.046  10.798  0.5433 -0.4866 -1.5321
11609TIP3   OH256317   0.885   0.997  12.121 -0.8348 -0.4034  0.0155
11609TIP3    H156318   0.967   1.001  12.073 -0.8248 -0.6371  0.0169
11609TIP3    H256319   0.858   0.906  12.118 -0.5664 -0.5209  0.9028
11610TIP3   OH256320   4.921   3.821  13.726 -0.4169 -0.0208  0.4152
11610TIP3    H156321   4.946   3.817  13.633  0.3968 -3.5901  0.7126
11610TIP3    H256322   4.835   3.780  13.729 -0.3252 -0.1497  1.2653
11611TIP3   OH256323   1.509   2.784  14.057 -0.1749  1.2146  0.0241
11611TIP3    H156324   1.484   2.776  13.965  1.1969  1.1483 -0.3611
11611TIP3    H256325   1.473   2.706  14.099  0.3262  0.5765 -0.7200
11612TIP3   OH256326   2.224   1.455   5.540 -0.3208 -0.0321  0.0071
11612TIP3    H156327   2.297   1.406   5.501  0.9546  0.5564  1.5735
11612TIP3    H256328   2.220   1.537   5.491 -1.2941 -0.9312 -1.4436
11613TIP3   OH256329   0.965   5.257   2.830  0.2899  0.2086  0.2188
11613TIP3    H156330   0.910   5.334   2.841  1.1446  0.7044  1.0743
11613TIP3    H256331   0.976   5.222   2.918  1.6686  0.3620  0.1282
11614TIP3   OH256332   6.308   0.042  12.557 -0.2041  0.1316 -0.1980
11614TIP3    H156333   6.338   0.047  12.466  0.0604  1.8515 -0.0347
11614TIP3    H256334   6.218   0.010  12.551 -0.6212  1.4335 -1.1563
11615TIP3   OH256335   4.470   2.741  16.107  0.4460 -0.0480 -0.2220
11615TIP3    H156336   4.426   2.815  16.149 -0.2590 -0.2732 -0.5393
11615TIP3    H256337   4.492   2.773  16.019  0.8604  0.0437 -0.0824
11616TIP3   OH256338   3.680   5.211   5.501  0.3674 -0.2388 -0.3663
11616TIP3    H156339   3.728   5.193   5.420 -2.6369  0.6790 -2.4307
11616TIP3    H256340   3.674   5.126   5.545  1.4687 -0.8717 -1.4266
11617TIP3   OH256341   0.300   5.231  16.135 -0.4936  0.1468  0.4786
11617TIP3    H156342   0.301   5.239  16.040  0.7358 -0.0379  0.4664
11617TIP3    H256343   0.354   5.304  16.166  0.0982 -0.4892  0.9642
11618TIP3   OH256344   5.162   6.310   3.775 -0.1594  0.0432  0.5229
11618TIP3    H156345   5.245   6.345   3.806 -0.0041 -0.6966  0.9707
11618TIP3    H256346   5.112   6.386   3.746 -0.1824  0.7258  2.3049
11619TIP3   OH256347   4.820   0.734   0.791 -0.3130 -0.2900 -0.1190
11619TIP3    H156348   4.807   0.715   0.884  1.3337  1.2591  0.4487
11619TIP3    H256349   4.753   0.799   0.771 -0.3057 -0.2100  0.1120
11620TIP3   OH256350   4.362   5.415   5.644  0.0749 -0.4196  0.1582
11620TIP3    H156351   4.299   5.487   5.645 -0.6612 -1.0586  0.4201
11620TIP3    H256352   4.308   5.336   5.641  0.8558 -0.9841  0.7261
11621TIP3   OH256353   0.245   0.009   6.396 -0.0384 -0.7981  0.7703
11621TIP3    H156354   0.220   0.092   6.354 -1.5643 -0.9476  1.3559
11621TIP3    H256355   0.277   0.036   6.482  1.5736 -0.6374  0.1447
11622TIP3   OH256356   6.293   1.649  13.968 -0.2192 -0.5787  0.0880
11622TIP3    H156357   6.226   1.704  13.926  0.1892  1.9274  2.5732
11622TIP3    H256358   6.359   1.637  13.899 -1.1839  0.5345 -1.0813
11623TIP3   OH256359   4.653   1.323   5.829 -0.9647  0.2293  0.0623
11623TIP3    H156360   4.658   1.337   5.923 -1.7522  0.8444  0.0193
11623TIP3    H256361   4.578   1.375   5.801  0.9058  2.2633 -1.3352
11624TIP3   OH256362   6.335   4.540   2.050  0.4147 -0.0603 -0.4688
11624TIP3    H156363   6.246   4.510   2.032  0.1436  0.5318 -0.1341
11624TIP3    H256364   6.323   4.629   2.084  1.1898  0.3511 -1.2738
11625TIP3   OH256365   1.544   5.564   1.908 -0.1121  0.7216  0.0270
11625TIP3    H156366   1.519   5.625   1.978  1.8709  0.4456  1.0073
11625TIP3    H256367   1.509   5.479   1.936 -1.5738  1.0807 -0.6175
11626TIP3   OH256368   2.848   3.651  15.823 -0.2618 -0.4124 -0.9357
11626TIP3    H156369   2.929   3.692  15.855 -0.8521  1.1449 -1.3641
11626TIP3    H256370   2.876   3.567  15.788  1.1922  0.1345 -1.1451
11627TIP3   OH256371   1.200   2.036   1.515  0.5487  0.3946  0.3380
11627TIP3    H156372   1.267   2.093   1.552  0.9378 -0.5620  1.1523
11627TIP3    H256373   1.168   1.986   1.590 -0.8534  0.6188 -0.1053
11628TIP3   OH256374   0.007   1.813  17.239 -0.3244 -0.2330  0.2076
11628TIP3    H156375   0.071   1.881  17.261 -1.0011  0.0667  1.3284
11628TIP3    H256376   0.059   1.733  17.227  0.0977 -0.5053  3.3744
11629TIP3   OH256377   5.074   0.677  12.267  0.2805 -0.1004  0.0088
11629TIP3    H156378   5.029   0.652  12.186  1.3699  0.4203 -0.7741
11629TIP3    H256379   5.067   0.773  12.270 -0.3903 -0.1736  0.9110
11630TIP3   OH256380   6.062   6.543  13.227  0.3615 -0.2324  0.4256
11630TIP3    H156381   6.103   6.607  13.168 -1.6643  0.7341  0.0045
11630TIP3    H256382   6.022   6.479  13.168  1.9682 -1.6324  0.8426
11631TIP3   OH256383   6.589   4.884   2.943  0.2601 -0.1186  0.0962
11631TIP3    H156384   6.574   4.796   2.979  0.1075 -0.0539  0.1898
11631TIP3    H256385   6.502   4.917   2.923  0.3988 -0.5403 -1.2675
11632TIP3   OH256386   1.848   5.897   4.756 -0.1705 -0.3953 -0.1335
11632TIP3    H156387   1.848   5.933   4.844  2.4796  0.9152 -0.6215
11632TIP3    H256388   1.789   5.953   4.707  0.1108  0.2752  0.2857
11633TIP3   OH256389   6.455   5.487  12.004  0.1970  0.7053 -0.1117
11633TIP3    H156390   6.475   5.564  11.951  1.2141 -0.2526 -1.1597
11633TIP3    H256391   6.537   5.468  12.049 -0.6581  1.5073  1.8274
11634TIP3   OH256392   3.524   6.442  10.877  0.0706  0.3022 -0.5498
11634TIP3    H156393   3.438   6.415  10.908  0.4575  1.1461  1.3587
11634TIP3    H256394   3.506   6.506  10.808 -0.8494  1.8106  1.0628
11635TIP3   OH256395   0.276   5.640   4.824 -0.3405 -0.1829  0.3500
11635TIP3    H156396   0.191   5.680   4.843 -0.2753 -0.4101  1.1489
11635TIP3    H256397   0.277   5.561   4.878  0.0102 -0.6580 -0.3374
11636TIP3   OH256398   4.361   3.097   1.135  0.4970 -0.1319 -0.5011
11636TIP3    H156399   4.408   3.117   1.216  1.7313 -1.0326 -0.9711
11636TIP3    H256400   4.378   3.171   1.077 -0.8735  0.7891  0.2623
11637TIP3   OH256401   0.827   4.859  11.892  0.1895 -0.0812 -0.0734
11637TIP3    H156402   0.731   4.859  11.881  0.0852 -0.1582  0.7719
11637TIP3    H256403   0.852   4.768  11.877  0.2029  0.0416 -0.8391
11638TIP3   OH256404   0.335   0.245   3.579 -0.6980  0.2452 -0.4631
11638TIP3    H156405   0.258   0.212   3.625  0.5211  0.3543  1.7368
11638TIP3    H256406   0.302   0.313   3.521 -2.2310  0.4754  0.6627
11639TIP3   OH256407   3.297   2.519   0.133  0.5437 -0.8850  0.0156
11639TIP3    H156408   3.221   2.574   0.154  2.3440  1.4481  0.6039
11639TIP3    H256409   3.318   2.474   0.215  2.0541  1.3398  0.8926
11640TIP3   OH256410   3.664   6.086   3.088  0.0702  0.6742 -0.7280
11640TIP3    H156411   3.744   6.042   3.058  1.9209  2.9928  0.6796
11640TIP3    H256412   3.664   6.169   3.041  1.3896  3.0226  3.2155
11641TIP3   OH256413   0.356   2.054  12.957  0.3890 -0.1412 -0.4130
11641TIP3    H156414   0.265   2.064  12.985  0.4914 -1.2481  0.3464
11641TIP3    H256415   0.406   2.108  13.018  0.3928 -0.7811  0.1537
11642TIP3   OH256416   1.468   6.182   5.293  0.5105  0.0201  0.3622
11642TIP3    H156417   1.467   6.090   5.267 -0.0845 -0.1248  0.8944
11642TIP3    H256418   1.417   6.185   5.374  1.3197  0.6675  0.8492
11643TIP3   OH256419   6.744   2.972  15.561  0.4424 -0.3022 -0.6187
11643TIP3    H156420   6.760   2.880  15.581  2.2133  0.4063  1.5366
11643TIP3    H256421   6.708   3.008  15.642  0.8790  1.1302 -1.0327
11644TIP3   OH256422   1.140   0.836   3.529 -0.4937 -0.0559 -0.0036
11644TIP3    H156423   1.146   0.829   3.624  1.1653 -0.9696 -0.1586
11644TIP3    H256424   1.113   0.749   3.501  1.8233 -0.6178 -0.5664
11645TIP3   OH256425   5.362   0.791  10.468  0.1669 -0.5303  0.4433
11645TIP3    H156426   5.370   0.885  10.450  1.2688 -0.3009  1.9500
11645TIP3    H256427   5.444   0.753  10.436 -0.0030 -0.8782  0.4190
11646TIP3   OH256428   1.148   2.123  11.385  0.0498 -0.1605  0.0268
11646TIP3    H156429   1.110   2.159  11.305  0.3311  0.8842  0.3458
11646TIP3    H256430   1.204   2.051  11.356  2.2746  1.9185 -0.9944
11647TIP3   OH256431   3.175   2.767   1.065 -0.8235 -0.5405 -0.3249
11647TIP3    H156432   3.229   2.697   1.101  0.4696  0.2083 -0.7961
11647TIP3    H256433   3.158   2.826   1.139  0.1776 -0.0450 -0.4840
11648TIP3   OH256434   5.168   6.555   4.906  0.5638  0.2932 -0.0238
11648TIP3    H156435   5.075   6.578   4.918 -0.0153 -1.1270 -1.6917
11648TIP3    H256436   5.167   6.481   4.845  2.8105  0.2971 -0.0921
11649TIP3   OH256437   4.188   0.351  16.832 -0.3159  0.0368  0.5379
11649TIP3    H156438   4.205   0.406  16.756 -0.8686 -0.7160 -0.1285
11649TIP3    H256439   4.178   0.263  16.797  2.7822 -0.9198  1.8021
11650TIP3   OH256440   5.044   5.385   3.407 -0.2067  0.0920 -0.1699
11650TIP3    H156441   4.968   5.345   3.363 -0.0254  0.3607 -0.7341
11650TIP3    H256442   5.077   5.316   3.464  1.7823 -1.5979 -3.1859
11651TIP3   OH256443   2.253   3.874  15.284  0.3445 -0.0590  0.0273
11651TIP3    H156444   2.344   3.890  15.310  0.1899 -0.4644  0.8319
11651TIP3    H256445   2.250   3.781  15.264 -0.3693 -0.5075  2.0427
11652TIP3   OH256446   0.366   4.332  17.143  0.3709 -0.0389 -0.0267
11652TIP3    H156447   0.422   4.256  17.156  2.0583  0.9737 -1.1877
11652TIP3    H256448   0.297   4.302  17.084  1.4699 -0.4575 -1.1135
11653TIP3   OH256449   3.995   3.924  14.834  0.5968  0.2360 -0.3678
11653TIP3    H156450   3.956   3.843  14.801  0.5679  0.3202 -0.5366
11653TIP3    H256451   4.032   3.967  14.757 -0.4200  0.9616 -0.4681
11654TIP3   OH256452   2.373   4.070  10.828 -0.2274  0.4224 -0.5414
11654TIP3    H156453   2.339   4.122  10.755 -0.5396  0.1869 -0.5687
11654TIP3    H256454   2.383   3.982  10.791 -1.6086  0.0068  0.0440
11655TIP3   OH256455   1.659   4.016  14.842  0.4089  0.1090  0.4735
11655TIP3    H156456   1.751   4.005  14.818  0.6042  0.6303  0.9605
11655TIP3    H256457   1.654   4.105  14.878 -0.5359  0.5633 -0.7275
11656TIP3   OH256458   2.914   5.647   2.054 -0.5189 -0.4877 -0.0993
11656TIP3    H156459   2.913   5.630   1.960  0.3569  0.1628 -0.2230
11656TIP3    H256460   2.849   5.585   2.090 -0.3993 -1.1714 -1.0483
11657TIP3   OH256461   5.576   5.478  12.598 -0.1759  0.0424  0.1045
11657TIP3    H156462   5.538   5.443  12.518  1.9354  0.4713 -1.1201
11657TIP3    H256463   5.617   5.402  12.640  0.9076  0.2784 -0.5133
11658TIP3   OH256464   1.480   0.299   6.013 -0.2463  0.0163  1.0152
11658TIP3    H156465   1.471   0.378   6.066 -0.1238 -0.8825  2.3879
11658TIP3    H256466   1.509   0.232   6.075  1.0501 -0.7702 -0.4093
11659TIP3   OH256467   3.632   4.775  15.206  0.0412 -0.0251 -0.4604
11659TIP3    H156468   3.555   4.718  15.212  2.5963 -3.3980  2.6986
11659TIP3    H256469   3.617   4.842  15.273  0.4933 -1.5859  1.2448
11660TIP3   OH256470   0.625   1.829   5.247 -0.3909  0.0361 -0.5258
11660TIP3    H156471   0.551   1.867   5.294  0.1425  0.0836  0.2750
11660TIP3    H256472   0.585   1.769   5.184 -1.0321 -1.3165  1.1229
11661TIP3   OH256473   3.633   5.293   3.438 -0.1587 -0.4430 -0.9485
11661TIP3    H156474   3.707   5.274   3.495 -1.7383  0.4032  1.4969
11661TIP3    H256475   3.599   5.207   3.414  2.0018 -0.8545 -2.6918
11662TIP3   OH256476   4.995   0.729  17.141 -0.6835  0.2723 -0.2647
11662TIP3    H156477   5.055   0.726  17.216 -0.5440 -1.7606 -0.4366
11662TIP3    H256478   4.949   0.813  17.150 -0.6008  0.0908  2.0472
11663TIP3   OH256479   2.141   0.581  15.576  0.2146  0.1718  0.3112
11663TIP3    H156480   2.051   0.612  15.563 -0.1129 -0.2182  1.5519
11663TIP3    H256481   2.144   0.557  15.669  1.4577 -0.2827  0.1540
11664TIP3   OH256482   4.913   1.492   5.305 -0.2610  0.3468  0.2888
11664TIP3    H156483   4.911   1.587   5.288 -2.6260  0.2570 -0.1604
11664TIP3    H256484   4.863   1.481   5.386  0.8973 -0.4212  0.9020
11665TIP3   OH256485   2.494   5.455   3.058 -0.0831  0.1691  0.7358
11665TIP3    H156486   2.437   5.486   2.987  1.8135  1.5504 -0.2434
11665TIP3    H256487   2.562   5.405   3.013  0.7584  0.4996  1.6305
11666TIP3   OH256488   5.212   0.213  13.792  0.1877  0.2898  0.5335
11666TIP3    H156489   5.235   0.124  13.817  1.0877  1.0654  2.5756
11666TIP3    H256490   5.148   0.241  13.857 -1.8081  0.3593 -1.4272
11667TIP3   OH256491   2.246   1.696   5.060  0.4034 -0.5225 -0.0478
11667TIP3    H156492   2.245   1.781   5.016  1.1378 -0.5311 -0.0987
11667TIP3    H256493   2.297   1.639   5.002  0.0666 -0.9483  0.0704
11668TIP3   OH256494   5.211   4.189   4.566  0.1735 -0.0400 -0.0262
11668TIP3    H156495   5.129   4.232   4.541 -0.3325 -0.0010  1.6286
11668TIP3    H256496   5.272   4.212   4.497 -1.9481 -2.4107 -2.8172
11669TIP3   OH256497   4.487   3.985  12.056 -0.1892 -0.6431  0.0460
11669TIP3    H156498   4.460   4.058  12.112 -1.5676  0.4308 -1.9588
11669TIP3    H256499   4.578   3.967  12.081 -0.7459 -0.1565  2.5446
11670TIP3   OH256500   0.153   5.797  10.771 -0.2307  0.9265 -0.1287
11670TIP3    H156501   0.208   5.874  10.759  1.5957  0.1847  2.8593
11670TIP3    H256502   0.178   5.739  10.698  3.4858  0.3680  1.4537
11671TIP3   OH256503   3.162   6.033  16.323  0.1108 -0.5557  0.3289
11671TIP3    H156504   3.072   6.011  16.300  0.4768 -1.0933 -0.6399
11671TIP3    H256505   3.215   5.968  16.277  0.9523 -0.7806  1.5873
11672TIP3   OH256506   4.167   0.441  12.438  0.0350 -0.5569  0.1369
11672TIP3    H156507   4.207   0.524  12.464 -1.1115 -0.0308  0.2221
11672TIP3    H256508   4.188   0.433  12.344  0.9514 -0.6370  0.3436
11673TIP3   OH256509   2.028   6.377   0.923 -0.2073  0.0460 -0.3132
11673TIP3    H156510   2.041   6.292   0.966  3.3279 -0.7223 -2.7661
11673TIP3    H256511   2.037   6.359   0.830 -1.7235  2.7713 -1.0449
11674TIP3   OH256512   3.553   0.021   4.428  0.4806  0.1546  0.2588
11674TIP3    H156513   3.596  -0.032   4.361  0.3858  0.6785 -0.2217
11674TIP3    H256514   3.610   0.016   4.504  1.5045  1.0334 -0.4421
11675TIP3   OH256515   6.008   6.604  14.410 -0.0153  0.0815  0.3083
11675TIP3    H156516   5.922   6.642  14.430 -0.3685 -0.2262 -0.5885
11675TIP3    H256517   6.001   6.512  14.434  0.1364  0.1011  0.4332
11676TIP3   OH256518   3.708   4.526  15.620 -0.2266 -0.3740 -0.0955
11676TIP3    H156519   3.803   4.516  15.611 -0.0039  0.6283  1.1187
11676TIP3    H256520   3.672   4.470  15.551  1.2398 -0.7985 -0.5352
11677TIP3   OH256521   1.935   2.860   5.527 -0.2428  0.3823  0.4636
11677TIP3    H156522   1.964   2.920   5.458 -1.2147  2.3541  1.7205
11677TIP3    H256523   2.015   2.840   5.576  0.1447  0.3726 -0.1595
11678TIP3   OH256524   5.756   0.292   4.062  0.0438  0.1036  0.0303
11678TIP3    H156525   5.779   0.224   4.000  0.5880 -0.9412  1.3413
11678TIP3    H256526   5.736   0.245   4.143  0.1653  1.4799  0.8806
11679TIP3   OH256527   1.810   4.939  16.942 -0.0110 -0.7396 -0.6513
11679TIP3    H156528   1.868   4.935  16.866  0.1739 -0.0001 -0.5537
11679TIP3    H256529   1.870   4.945  17.017 -0.1700 -2.3768 -0.3699
11680TIP3   OH256530   1.029   0.260  14.160  0.0392  0.0383  0.5862
11680TIP3    H156531   1.050   0.201  14.233  0.6036  0.4246  0.7338
11680TIP3    H256532   1.021   0.346  14.200  1.9020  0.5215 -0.0284
11681TIP3   OH256533   1.085   6.107   0.591  0.1861 -0.6472 -0.1126
11681TIP3    H156534   1.173   6.145   0.580  0.3236 -0.4808  1.3787
11681TIP3    H256535   1.097   6.014   0.576  0.0031 -0.2547 -3.0105
11682TIP3   OH256536   5.203   6.150   2.474 -0.1591  0.5146  0.1798
11682TIP3    H156537   5.147   6.114   2.542  1.0109  1.0352  1.4425
11682TIP3    H256538   5.264   6.079   2.453 -0.4023  0.4159 -0.2005
11683TIP3   OH256539   1.643   3.649   4.079 -0.6332 -0.1120 -0.0994
11683TIP3    H156540   1.737   3.642   4.097 -0.8663 -1.3884  0.6659
11683TIP3    H256541   1.600   3.628   4.162 -1.5979  1.4646 -0.1688
11684TIP3   OH256542   4.882   5.499   0.050 -0.2557  0.5364  0.0632
11684TIP3    H156543   4.957   5.442   0.031 -0.9006 -0.2521 -0.1532
11684TIP3    H256544   4.885   5.566  -0.018 -0.3288 -0.0857 -0.5608
11685TIP3   OH256545   5.877   3.678   1.289  0.0477  0.4379 -0.1419
11685TIP3    H156546   5.913   3.766   1.293  0.5520  0.3809 -2.5400
11685TIP3    H256547   5.941   3.628   1.238 -1.7103 -0.5497 -1.4420
11686TIP3   OH256548   3.846   5.938   4.045 -0.5284 -0.1731 -0.2063
11686TIP3    H156549   3.924   5.992   4.038 -0.6465  0.1001  0.5251
11686TIP3    H256550   3.809   5.937   3.957  0.0235  0.1032 -0.4430
11687TIP3   OH256551   2.504   3.931  13.250  0.6717 -0.1081 -0.3653
11687TIP3    H156552   2.577   3.870  13.255  1.1363  0.6200  2.4203
11687TIP3    H256553   2.544   4.015  13.227  1.0160  0.7004  2.9706
11688TIP3   OH256554   6.706   3.600   4.044 -0.3650 -0.2073  0.2954
11688TIP3    H156555   6.713   3.692   4.017  0.4908  0.1265  1.5762
11688TIP3    H256556   6.758   3.552   3.980  1.8483  0.5953  1.4283
11689TIP3   OH256557   6.263   2.999  14.023 -0.1660 -0.0333  0.0096
11689TIP3    H156558   6.240   3.090  14.039 -0.9805 -0.4543  1.3949
11689TIP3    H256559   6.191   2.949  14.063  1.0767 -1.3045  0.7078
11690TIP3   OH256560   5.620   4.428  13.796 -0.0529  0.7915  0.2672
11690TIP3    H156561   5.632   4.510  13.844 -1.6332  2.4242 -2.0237
11690TIP3    H256562   5.671   4.439  13.716 -1.1605  0.0075 -0.5682
11691TIP3   OH256563   5.888   0.319  13.464 -0.4681 -1.1068 -0.1508
11691TIP3    H156564   5.868   0.401  13.420 -2.3463 -2.0388 -1.0802
11691TIP3    H256565   5.806   0.270  13.463  0.7843 -3.2726 -0.1846
11692TIP3   OH256566   3.697   3.798   1.195 -0.0931  0.8974  1.0306
11692TIP3    H156567   3.717   3.789   1.288  0.9450  1.2220  0.8394
11692TIP3    H256568   3.618   3.853   1.193 -1.6796 -1.2764  1.8227
11693TIP3   OH256569   5.497   2.506  11.856  0.2090 -0.4620  0.0699
11693TIP3    H156570   5.504   2.478  11.947  0.2662  0.7569  0.4527
11693TIP3    H256571   5.580   2.481  11.816 -0.0041 -1.4297  0.2213
11694TIP3   OH256572   4.715   4.376  12.305  0.3914 -0.3239 -0.1670
11694TIP3    H156573   4.686   4.444  12.366 -0.5998 -0.3345 -0.6143
11694TIP3    H256574   4.695   4.411  12.219 -0.6066 -1.3979 -0.3804
11695TIP3   OH256575   0.943   1.045  12.595 -0.5675 -0.4028 -0.1620
11695TIP3    H156576   0.872   1.003  12.546  0.2781 -0.5957 -1.2568
11695TIP3    H256577   1.015   0.982  12.592  0.0038  0.2273  0.0183
11696TIP3   OH256578   6.567   5.813   3.714 -0.4292  0.6645 -0.3942
11696TIP3    H156579   6.546   5.769   3.631 -3.0945  3.9535 -1.5514
11696TIP3    H256580   6.530   5.756   3.781  0.0675 -1.0628 -1.5399
11697TIP3   OH256581   1.403   0.616  13.610 -0.1111 -0.1497 -0.4335
11697TIP3    H156582   1.366   0.640  13.694 -0.1440  1.2222 -0.8189
11697TIP3    H256583   1.494   0.592  13.629 -0.0716  0.3191 -0.0320
11698TIP3   OH256584   4.401   2.788   3.679 -0.7317 -0.5807 -0.3828
11698TIP3    H156585   4.332   2.724   3.661 -0.0350 -2.0681  1.9040
11698TIP3    H256586   4.361   2.848   3.743 -0.0653 -1.2169  0.6476
11699TIP3   OH256587   0.366   4.385  12.949  0.0871 -0.4079  0.1014
11699TIP3    H156588   0.372   4.328  12.872 -0.8802 -0.8447  0.3428
11699TIP3    H256589   0.330   4.467  12.915 -1.4332 -0.9899  0.2729
11700TIP3   OH256590   2.047   2.705   3.307  0.1923 -0.3146 -0.0741
11700TIP3    H156591   2.019   2.673   3.393 -0.3115  2.0082  0.6642
11700TIP3    H256592   2.143   2.704   3.311  0.1724 -0.3667  0.4673
11701TIP3   OH256593   2.416   3.904  12.390  0.3617 -0.7738  0.3552
11701TIP3    H156594   2.465   3.972  12.345  0.2496 -1.7084 -1.2155
11701TIP3    H256595   2.341   3.949  12.429  0.4320  0.0416 -0.4513
11702TIP3   OH256596   4.584   4.793   0.385 -0.5162 -0.0075 -0.3027
11702TIP3    H156597   4.588   4.889   0.387 -1.8882  0.0577 -0.1244
11702TIP3    H256598   4.658   4.767   0.330  0.6567  1.0858  0.7464
11703TIP3   OH256599   6.360   6.490  12.089 -0.4779 -0.0788  0.6760
11703TIP3    H156600   6.326   6.532  12.168  0.8776  0.6217  0.8888
11703TIP3    H256601   6.403   6.410  12.121  0.7921  0.6244  0.7425
11704TIP3   OH256602   0.704   4.319   1.222 -0.3600 -0.1419  0.2600
11704TIP3    H156603   0.661   4.301   1.306  0.5967  1.0734  1.0275
11704TIP3    H256604   0.795   4.338   1.246  0.1923 -0.9298 -1.1699
11705TIP3   OH256605   3.617   5.601  10.559  0.1029 -0.0765 -0.1281
11705TIP3    H156606   3.597   5.670  10.621 -0.6867 -0.1441 -0.3039
11705TIP3    H256607   3.564   5.526  10.588  0.9275 -0.5991  0.0470
11706TIP3   OH256608   6.599   3.653   5.649  0.0152 -0.8531 -0.3186
11706TIP3    H156609   6.547   3.732   5.634  1.0457 -0.1683 -0.4075
11706TIP3    H256610   6.601   3.609   5.564  0.4443 -0.3374 -0.5807
11707TIP3   OH256611   5.762   2.797  11.489  0.3324  0.0181 -0.6674
11707TIP3    H156612   5.817   2.784  11.566 -0.7690 -1.0539 -0.0501
11707TIP3    H256613   5.722   2.883  11.502 -1.6514 -1.1258  1.1280
11708TIP3   OH256614   6.112   1.722   2.255 -0.1168  0.1653  0.2283
11708TIP3    H156615   6.129   1.693   2.165 -0.2392  0.4726  0.1065
11708TIP3    H256616   6.161   1.803   2.264  2.9045 -1.7530  1.6275
11709TIP3   OH256617   6.603   0.231   2.794  0.2492  0.3305 -0.1122
11709TIP3    H156618   6.635   0.280   2.718 -0.6071  1.2977  0.1358
11709TIP3    H256619   6.673   0.241   2.859  1.2580 -1.0192 -0.9678
11710TIP3   OH256620   1.028   2.825   4.060  0.0976  0.1411 -0.5225
11710TIP3    H156621   1.046   2.906   4.011 -0.8397  0.3972 -0.4632
11710TIP3    H256622   1.047   2.755   3.997 -1.9474  0.4863 -1.5919
11711TIP3   OH256623   5.615   1.310  16.242 -0.5243 -0.1777  0.2598
11711TIP3    H156624   5.643   1.318  16.150  1.3330 -0.4243  0.7847
11711TIP3    H256625   5.580   1.221  16.248  0.8891 -0.7590  0.1726
11712TIP3   OH256626   5.664   4.927   6.070 -0.1373 -0.3823 -0.3723
11712TIP3    H156627   5.694   4.886   6.152 -0.9159  0.2951  0.2625
11712TIP3    H256628   5.687   5.019   6.080  1.7141 -0.6490 -1.8465
11713TIP3   OH256629   5.627   5.144  14.550 -0.4030  0.2599 -0.3911
11713TIP3    H156630   5.694   5.207  14.521  0.1731 -0.2069 -0.0821
11713TIP3    H256631   5.672   5.091  14.616 -0.5483 -1.2238 -1.4766
11714TIP3   OH256632   3.535   5.655   1.243  0.2016 -0.2043  0.0590
11714TIP3    H156633   3.524   5.618   1.156 -1.6151  0.5857 -0.0700
11714TIP3    H256634   3.596   5.595   1.287  1.7565 -0.1607 -1.9850
11715TIP3   OH256635   3.569   3.653   2.985  0.1732  0.3823 -0.1034
11715TIP3    H156636   3.483   3.623   2.957  0.4514  1.3131 -2.0502
11715TIP3    H256637   3.586   3.730   2.931  2.4543 -0.1124 -0.1535
11716TIP3   OH256638   0.230   4.665   1.868 -0.0757  0.5687  0.3325
11716TIP3    H156639   0.191   4.697   1.950  1.2158  1.5745  0.5805
11716TIP3    H256640   0.249   4.745   1.819 -0.4149 -0.0182 -0.7552
11717TIP3   OH256641   5.009   0.243  13.985  0.3741 -0.3628  0.2528
11717TIP3    H156642   5.020   0.318  14.043  0.6407 -0.4422  0.3085
11717TIP3    H256643   4.945   0.271  13.920  0.2018 -0.2146  0.4862
11718TIP3   OH256644   5.339   4.170   3.485  0.1237 -0.3133  0.2422
11718TIP3    H156645   5.282   4.233   3.441  1.6825  1.1280  0.2442
11718TIP3    H256646   5.319   4.086   3.443  0.2331  0.7068 -1.9080
11719TIP3   OH256647   5.486   6.624  16.064  0.8385  0.0693 -0.6049
11719TIP3    H156648   5.478   6.703  16.119  1.6697  1.0002 -1.8041
11719TIP3    H256649   5.433   6.558  16.109  0.1114  1.3259  0.4005
11720TIP3   OH256650   3.062   2.340   2.853  0.2892  0.2353 -0.1705
11720TIP3    H156651   3.017   2.404   2.800  0.0366 -0.2662 -0.5599
11720TIP3    H256652   3.035   2.255   2.818  2.1068 -0.0718 -0.9146
11721TIP3   OH256653   1.967   1.143   2.746  0.1617 -0.3766  0.1344
11721TIP3    H156654   1.914   1.129   2.668  0.1014  1.7500 -0.2548
11721TIP3    H256655   2.030   1.071   2.747 -1.7363 -2.0748 -0.2285
11722TIP3   OH256656   0.046   0.013   5.676 -0.3954 -0.1008  0.1991
11722TIP3    H156657  -0.030   0.044   5.628  0.8877  1.2483 -1.0230
11722TIP3    H256658   0.109   0.085   5.670  0.6179 -0.8010  2.0091
11723TIP3   OH256659   3.679   4.000   0.944 -0.1888  0.5468  0.3456
11723TIP3    H156660   3.696   3.914   0.981 -0.2567  1.4048  2.3977
11723TIP3    H256661   3.762   4.025   0.904  0.7069  0.7569  2.2835
11724TIP3   OH256662   2.906   5.278   1.987  0.4979  0.3070  0.4236
11724TIP3    H156663   2.989   5.310   2.022  1.1981 -0.2063 -0.7417
11724TIP3    H256664   2.871   5.222   2.056  0.2436  1.9508  1.6495
11725TIP3   OH256665   0.996   6.261   6.444 -1.1319  0.4355 -0.5066
11725TIP3    H156666   1.031   6.218   6.366 -1.7156 -0.1633 -0.4381
11725TIP3    H256667   0.912   6.218   6.460  1.0910 -2.7664  3.2385
11726TIP3   OH256668   5.961   0.880   1.613 -0.1206  0.1633 -0.2363
11726TIP3    H156669   5.947   0.970   1.641  0.4027 -0.0717  0.8139
11726TIP3    H256670   6.055   0.873   1.600 -0.1897 -0.1575 -0.5804
11727TIP3   OH256671   6.422   2.836  14.852 -0.0275  0.1624 -0.0917
11727TIP3    H156672   6.409   2.886  14.771  0.0096  0.8381  0.3129
11727TIP3    H256673   6.391   2.748  14.831 -0.4603  0.4516 -0.7009
11728TIP3   OH256674   5.206   3.603  16.153 -0.2391  0.0595  0.6380
11728TIP3    H156675   5.258   3.674  16.192 -2.5781  2.5324 -0.5672
11728TIP3    H256676   5.215   3.530  16.214  1.6708  1.6133  2.2809
11729TIP3   OH256677   3.339   1.413  12.646 -0.0797  0.0422 -0.2108
11729TIP3    H156678   3.359   1.322  12.621 -0.7689  0.4788 -2.4979
11729TIP3    H256679   3.314   1.455  12.564  1.6428  2.6997  0.5585
11730TIP3   OH256680   0.632   4.209   4.937  0.2255  0.4076 -0.5195
11730TIP3    H156681   0.653   4.204   5.030 -1.0005 -1.9783 -0.3255
11730TIP3    H256682   0.658   4.297   4.911  0.3960  1.1768  2.1256
11731TIP3   OH256683   5.863   3.807  16.051 -0.0735  0.5781  0.2881
11731TIP3    H156684   5.795   3.860  16.010  0.0844  1.6320  1.3785
11731TIP3    H256685   5.821   3.722  16.067 -1.0064  1.0899  0.5718
11732TIP3   OH256686   1.529   0.029   4.330 -0.0242  0.4684  0.2482
11732TIP3    H156687   1.524   0.042   4.236 -0.2690  0.9220  0.3206
11732TIP3    H256688   1.462  -0.036   4.349  0.6381 -0.2983 -0.0079
11733TIP3   OH256689   1.113   0.998  11.914 -0.2497 -0.2038  0.3758
11733TIP3    H156690   1.123   0.930  11.848  1.1272 -1.4198  1.7954
11733TIP3    H256691   1.155   1.075  11.877  3.1351 -1.6874  0.9994
11734TIP3   OH256692   6.094   0.893  14.178  0.1286 -0.0310 -0.1305
11734TIP3    H156693   6.152   0.949  14.127  0.4503  0.5656  0.8887
11734TIP3    H256694   6.137   0.808  14.178  0.0308 -0.0933 -1.0067
11735TIP3   OH256695   1.904   1.334   3.311 -0.1128  0.2345 -0.0313
11735TIP3    H156696   1.868   1.259   3.263  0.9999 -1.8546  2.3403
11735TIP3    H256697   1.904   1.404   3.246 -2.3089 -1.4384 -1.9781
11736TIP3   OH256698   6.027   2.005   2.559 -0.5977 -0.4427 -0.6703
11736TIP3    H156699   6.000   2.003   2.651 -2.0796 -1.4795 -1.1168
11736TIP3    H256700   6.047   2.097   2.542 -0.7834 -0.1712  0.5609
11737TIP3   OH256701   4.822   0.783  11.688  0.2881  0.4397 -0.2233
11737TIP3    H156702   4.868   0.698  11.687  1.7313  1.2040 -1.1238
11737TIP3    H256703   4.813   0.804  11.781 -0.9615 -1.1567  0.0359
11738TIP3   OH256704   5.766   4.293   2.316 -0.1959  0.0291  0.2329
11738TIP3    H156705   5.780   4.349   2.240  1.7636 -0.8187 -0.0775
11738TIP3    H256706   5.720   4.347   2.379 -3.4333  0.2343 -2.2053
11739TIP3   OH256707   0.168   1.775  10.832  0.0705  0.1968  0.0203
11739TIP3    H156708   0.262   1.779  10.812  0.1001 -0.2324  0.0638
11739TIP3    H256709   0.130   1.848  10.784  0.0522 -1.2027 -2.1579
11740TIP3   OH256710   6.600   1.438  14.952 -0.6637  0.4863 -0.1807
11740TIP3    H156711   6.656   1.361  14.945 -0.4111  0.8168 -2.1432
11740TIP3    H256712   6.620   1.490  14.874 -1.8929  1.8303  0.3635
11741TIP3   OH256713   0.995   2.919  10.611  0.4968 -0.1067 -0.7922
11741TIP3    H156714   0.985   2.839  10.662  0.9394  0.3403  0.0081
11741TIP3    H256715   1.080   2.910  10.568  1.6818  0.9977  1.2436
11742TIP3   OH256716   5.009   6.320  12.823 -0.2863 -0.1755  0.5171
11742TIP3    H156717   4.938   6.384  12.830 -1.0424 -1.0343  0.7971
11742TIP3    H256718   5.073   6.348  12.889 -1.9864 -1.4081  2.7858
11743TIP3   OH256719   6.582   5.982  13.186  0.0449  0.0297  0.1893
11743TIP3    H156720   6.564   6.069  13.223  1.3851  1.7960 -3.1226
11743TIP3    H256721   6.495   5.945  13.170 -0.5590  1.0446  1.0166
11744TIP3   OH256722   3.936   4.715   0.241  0.4003  0.1053 -0.4320
11744TIP3    H156723   3.946   4.687   0.150  0.5623  0.9560 -0.6765
11744TIP3    H256724   3.874   4.788   0.237  1.6391  1.1863 -0.0482
11745TIP3   OH256725   3.130   5.304   5.085 -0.4312 -0.2006  0.2414
11745TIP3    H156726   3.191   5.253   5.138  1.0235  0.0409 -1.1703
11745TIP3    H256727   3.168   5.392   5.083 -0.5771 -0.1553 -1.0152
11746TIP3   OH256728   6.438   2.622  13.291 -0.2896  0.5324  0.4568
11746TIP3    H156729   6.494   2.624  13.214  0.2181  1.9174  0.8589
11746TIP3    H256730   6.445   2.709  13.329 -1.5865  0.2768  1.3230
11747TIP3   OH256731   2.046   5.445  10.894  0.0787 -0.0177  0.3751
11747TIP3    H156732   2.070   5.355  10.871 -0.9136  0.0558 -0.9810
11747TIP3    H256733   2.110   5.469  10.962  0.6530 -1.5698  0.4250
11748TIP3   OH256734   1.333   6.705   5.289 -0.3815  0.3727 -0.1655
11748TIP3    H156735   1.241   6.721   5.269 -0.6798  0.8650  1.5356
11748TIP3    H256736   1.346   6.743   5.376  0.9330 -1.5313  0.4929
11749TIP3   OH256737   6.076   6.725  11.385 -0.2091  0.1498  0.2076
11749TIP3    H156738   6.099   6.675  11.307  0.7912  0.5304  0.2509
11749TIP3    H256739   6.019   6.795  11.352  0.7861  0.7347 -0.2968
11750TIP3   OH256740   5.687   1.038  14.041 -0.1049 -0.5136  0.3788
11750TIP3    H156741   5.765   0.984  14.035 -0.4595 -0.9579 -0.2174
11750TIP3    H256742   5.656   1.047  13.951  0.8402  2.0081  0.2526
11751TIP3   OH256743   0.016   4.496  14.890  0.1263  0.0505 -0.2510
11751TIP3    H156744  -0.049   4.556  14.852 -1.2888 -1.2380  0.0712
11751TIP3    H256745   0.075   4.552  14.939 -0.1761  1.3589 -1.3659
11752TIP3   OH256746   6.078   0.131  13.623  0.2248  1.0236  0.2272
11752TIP3    H156747   6.013   0.100  13.560  0.6640  0.5539 -0.0011
11752TIP3    H256748   6.133   0.191  13.573 -0.0793  1.4784  0.4399
11753TIP3   OH256749   4.429   1.806  15.595 -0.6477  0.0066 -0.5009
11753TIP3    H156750   4.437   1.747  15.670 -0.7442  1.9592  1.0725
11753TIP3    H256751   4.476   1.885  15.621  0.3580  0.2727 -2.9908
11754TIP3   OH256752   5.813   6.432   4.840 -0.0535  0.4904  0.3395
11754TIP3    H156753   5.908   6.424   4.850  0.0179  0.6965 -0.1762
11754TIP3    H256754   5.784   6.472   4.922  0.3136  0.4999  0.4661
11755TIP3   OH256755   4.200   2.897  16.977  0.1292  0.2569  0.7153
11755TIP3    H156756   4.231   2.808  16.960  1.9166  0.5748  2.2232
11755TIP3    H256757   4.104   2.890  16.972  0.3203 -1.1326 -2.0636
11756TIP3   OH256758   1.227   2.636  11.352 -0.2911  0.9988  0.0861
11756TIP3    H156759   1.168   2.583  11.298  2.0002  0.4425 -1.9889
11756TIP3    H256760   1.240   2.716  11.301 -0.0312  1.5308  0.9858
11757TIP3   OH256761   6.035   2.558  15.273 -0.0330  0.0967  0.1709
11757TIP3    H156762   6.023   2.632  15.333  2.3802 -0.9471  2.0035
11757TIP3    H256763   6.129   2.555  15.257 -0.3018 -1.5741 -1.2150
11758TIP3   OH256764   3.380   5.695   0.591  0.4851  0.3229  0.0408
11758TIP3    H156765   3.433   5.675   0.514  0.4570  2.3663 -0.5351
11758TIP3    H256766   3.398   5.787   0.609 -0.8771  0.3337  1.4053
11759TIP3   OH256767   3.074   2.416   1.642 -0.3577  0.5926 -0.8988
11759TIP3    H156768   3.081   2.334   1.690 -0.9587  1.2960  0.4176
11759TIP3    H256769   3.150   2.416   1.584 -0.5199 -1.0288 -1.1439
11760TIP3   OH256770   1.009   5.946  10.824 -0.0069  0.0232 -0.4328
11760TIP3    H156771   0.942   5.881  10.848  0.2375 -0.0938 -0.0552
11760TIP3    H256772   0.962   6.011  10.772 -0.3623 -0.1902 -0.3794
11761TIP3   OH256773   2.815   4.553  13.809 -0.1470  0.0218 -0.4202
11761TIP3    H156774   2.849   4.473  13.848 -1.4398 -0.2671  0.1509
11761TIP3    H256775   2.738   4.525  13.759  0.5989  0.6086 -1.9426
11762TIP3   OH256776   2.508   4.689   4.044 -0.2955 -0.3408  0.8389
11762TIP3    H156777   2.573   4.679   3.974 -0.1772  0.1677  0.8728
11762TIP3    H256778   2.434   4.634   4.017  0.2801 -1.1882  0.9627
11763TIP3   OH256779   2.075   6.261  10.981 -0.6789 -0.0619  0.0395
11763TIP3    H156780   2.001   6.321  10.989 -1.9923 -1.7553  1.0569
11763TIP3    H256781   2.078   6.239  10.887 -2.1457 -0.7746  0.1397
11764TIP3   OH256782   1.240   0.776   1.096  0.1388  0.1746 -0.3786
11764TIP3    H156783   1.213   0.719   1.168  0.7283 -1.1620 -1.1922
11764TIP3    H256784   1.312   0.828   1.132  0.6388 -0.7085 -0.1032
11765TIP3   OH256785   0.900   2.524   4.052 -0.2259 -0.3476  0.1646
11765TIP3    H156786   0.965   2.491   4.114  0.8215  1.3404  0.0024
11765TIP3    H256787   0.873   2.447   4.002 -1.8605 -1.9739  3.3408
11766TIP3   OH256788   5.777   5.796  16.600 -0.3739 -0.3924 -0.1980
11766TIP3    H156789   5.691   5.813  16.640 -0.5015 -1.2918 -0.0939
11766TIP3    H256790   5.830   5.759  16.671  0.7152  1.9842  0.2828
11767TIP3   OH256791   1.583   0.979   3.921  0.1654  0.6662 -0.1738
11767TIP3    H156792   1.493   1.011   3.920  0.7000  2.2007 -2.1167
11767TIP3    H256793   1.634   1.051   3.956  0.7189  0.0130  0.3774
11768TIP3   OH256794   3.941   1.001  16.041 -0.1933  0.1320  0.2698
11768TIP3    H156795   3.957   0.947  16.119  1.1171  0.3624  0.1642
11768TIP3    H256796   3.863   1.052  16.063  0.6166  0.7600  1.7429
11769TIP3   OH256797   2.378   2.106   0.270 -0.3959  0.5080 -0.3072
11769TIP3    H156798   2.286   2.085   0.256  0.0656 -2.4604  0.7876
11769TIP3    H256799   2.421   2.085   0.187 -0.4036  0.0794 -0.1999
11770TIP3   OH256800   0.859   6.525  12.514 -0.2537  0.8843  0.9005
11770TIP3    H156801   0.953   6.536  12.524 -0.1883 -1.0605  2.9592
11770TIP3    H256802   0.833   6.591  12.451  3.0286 -0.8351 -2.4320
11771TIP3   OH256803   3.025   6.764  11.129 -0.2541  0.3622  0.4586
11771TIP3    H156804   3.016   6.687  11.185 -0.8432  0.5005  0.5561
11771TIP3    H256805   2.969   6.830  11.169  0.5372  0.9698  0.5824
11772TIP3   OH256806   4.244   0.725   6.211 -0.1923  0.5047  0.0323
11772TIP3    H156807   4.152   0.741   6.191 -0.4818  0.9498  1.6326
11772TIP3    H256808   4.243   0.678   6.295  0.8415 -3.9638 -2.3104
11773TIP3   OH256809   2.289   2.469  12.207  0.4687 -0.4777 -0.4211
11773TIP3    H156810   2.210   2.522  12.194  0.1392 -1.0636 -0.9040
11773TIP3    H256811   2.306   2.431  12.121 -0.6574 -2.9775  0.4155
11774TIP3   OH256812   3.859   2.233  10.358 -0.3513 -0.4207 -0.2786
11774TIP3    H156813   3.887   2.212  10.447 -2.4113  2.6910  1.2005
11774TIP3    H256814   3.933   2.282  10.321  0.0219 -0.6543  0.1500
11775TIP3   OH256815   3.397   0.126  15.112  0.2901 -0.0560 -0.2121
11775TIP3    H156816   3.366   0.216  15.120  0.0973 -0.1277 -0.1588
11775TIP3    H256817   3.452   0.113  15.189 -0.5125 -0.3195  0.3234
11776TIP3   OH256818   3.441   2.354  16.545 -0.4416 -0.0465  0.2945
11776TIP3    H156819   3.516   2.356  16.605 -0.5105  2.5466  0.3393
11776TIP3    H256820   3.365   2.347  16.603 -0.4798  1.9868  0.5200
11777TIP3   OH256821   5.548   0.093   3.827  0.0168 -0.1404  0.4394
11777TIP3    H156822   5.634   0.062   3.798  0.0806 -0.2851  0.7713
11777TIP3    H256823   5.516   0.148   3.755  0.1290 -0.5623  0.0646
11778TIP3   OH256824   2.113   6.528   5.032 -0.1843  0.0447 -0.3820
11778TIP3    H156825   2.081   6.579   4.957 -0.8660  0.3858  0.1395
11778TIP3    H256826   2.049   6.457   5.041  0.2625 -0.3812 -0.5325
11779TIP3   OH256827   5.558   0.680  12.662  0.0194 -0.0972 -0.1230
11779TIP3    H156828   5.612   0.603  12.650  0.2447 -0.1172  0.9372
11779TIP3    H256829   5.599   0.748  12.608 -2.1214 -1.5868 -3.8035
11780TIP3   OH256830   4.696   3.872   3.151  0.0942  0.2039 -0.3411
11780TIP3    H156831   4.616   3.854   3.100  0.1702 -1.2142  0.0206
11780TIP3    H256832   4.763   3.817   3.111  0.4935  0.1495  0.3930
11781TIP3   OH256833   4.680   6.101   1.209 -0.3439  0.3217 -0.3661
11781TIP3    H156834   4.649   6.015   1.237  0.1790  0.0429 -0.6343
11781TIP3    H256835   4.622   6.163   1.253 -0.8676 -0.1735 -0.3575
11782TIP3   OH256836   0.542   4.778   3.682 -1.2861  0.1537  0.5037
11782TIP3    H156837   0.530   4.707   3.745  0.6852 -0.2039  0.5332
11782TIP3    H256838   0.527   4.858   3.731 -0.0301 -0.1361  1.3938
11783TIP3   OH256839   4.576   1.791  12.355  0.1902  0.4181  0.7210
11783TIP3    H156840   4.606   1.728  12.289  0.5778  1.5605 -0.2021
11783TIP3    H256841   4.491   1.757  12.384  0.1654 -0.2598 -0.1340
11784TIP3   OH256842   6.004   6.764  17.267 -0.5081  0.6066  0.3931
11784TIP3    H156843   6.027   6.676  17.236  1.9211  1.0599  0.8195
11784TIP3    H256844   6.079   6.818  17.242 -0.7438  1.9968  2.6184
11785TIP3   OH256845   4.192   0.623  17.210 -0.1002  0.0072  1.2580
11785TIP3    H156846   4.102   0.609  17.182 -0.1924 -0.5519  1.8211
11785TIP3    H256847   4.185   0.654  17.300  0.0923  3.8638  0.0151
11786TIP3   OH256848   1.602   2.523  17.030 -0.1535 -0.0382  0.2287
11786TIP3    H156849   1.648   2.448  16.993 -1.2317 -0.4673 -0.2760
11786TIP3    H256850   1.592   2.501  17.122  3.1350  1.3312  0.9775
11787TIP3   OH256851   4.004   0.705  11.474 -0.0633  0.0147  0.0308
11787TIP3    H156852   3.929   0.656  11.440 -0.7309  0.2549  1.1606
11787TIP3    H256853   4.072   0.639  11.486 -0.2648 -0.2910 -0.4676
11788TIP3   OH256854   6.446   3.325   0.955  0.1653 -0.8236 -0.8487
11788TIP3    H156855   6.456   3.301   1.048 -1.5732  0.3907 -0.3434
11788TIP3    H256856   6.396   3.252   0.918 -0.1360 -0.7605 -0.5748
11789TIP3   OH256857   0.686   4.915  12.905 -0.0843 -0.5063 -0.2452
11789TIP3    H156858   0.608   4.901  12.958  0.3100  0.6424  0.6707
11789TIP3    H256859   0.749   4.955  12.965  0.8366 -0.4080 -1.2470
11790TIP3   OH256860   6.807   3.913   5.971 -0.0715 -0.3246 -0.2820
11790TIP3    H156861   6.725   3.956   5.993 -0.0793  1.3731 -3.3700
11790TIP3    H256862   6.781   3.826   5.941 -0.5631 -0.4639  0.5393
11791TIP3   OH256863   0.598   0.832   5.977  0.2566 -0.3843  0.0944
11791TIP3    H156864   0.694   0.834   5.977  0.2732 -1.2701 -1.0601
11791TIP3    H256865   0.574   0.855   6.067  1.4826  2.3782 -0.2441
11792TIP3   OH256866   2.260   2.337  11.070  0.2824 -0.3304 -0.3440
11792TIP3    H156867   2.168   2.361  11.072  0.2964 -0.1281 -1.5210
11792TIP3    H256868   2.293   2.374  10.988  1.4649 -0.2066  0.1690
11793TIP3   OH256869   3.338   4.891   5.848 -0.1439  0.5366  0.2978
11793TIP3    H156870   3.379   4.828   5.788 -0.7976 -0.8651  1.3070
11793TIP3    H256871   3.361   4.977   5.811  1.0849 -0.2682 -0.8779
11794TIP3   OH256872   0.610   4.469   2.611  0.1629 -0.0100 -0.7075
11794TIP3    H156873   0.667   4.500   2.540  0.6494  2.6752  0.8184
11794TIP3    H256874   0.555   4.544   2.633 -2.3060 -1.8173 -0.4437
11795TIP3   OH256875   6.505   1.298   2.340  0.3702  0.0907  0.3443
11795TIP3    H156876   6.461   1.360   2.282  1.3275 -0.7233 -1.3131
11795TIP3    H256877   6.435   1.262   2.395 -0.8279 -0.1990 -1.3199
11796TIP3   OH256878   1.855   0.336   5.542  0.1629  0.7507  0.4590
11796TIP3    H156879   1.920   0.342   5.473 -0.4040  0.8421 -0.0675
11796TIP3    H256880   1.775   0.308   5.498 -0.4602  1.7722  0.9270
11797TIP3   OH256881   2.388   5.792   0.650 -0.4819  0.3310 -0.2305
11797TIP3    H156882   2.420   5.882   0.656 -1.3923  0.7448 -1.4871
11797TIP3    H256883   2.361   5.770   0.739 -0.1952  1.2685  0.0966
11798TIP3   OH256884   3.032   2.568   4.839  0.8922 -0.8191  0.8526
11798TIP3    H156885   2.943   2.535   4.852  0.0667  1.7148  1.9689
11798TIP3    H256886   3.030   2.611   4.753  1.5459 -2.3122  0.0768
11799TIP3   OH256887   5.744   2.661  12.309 -0.1110 -0.2706  0.5459
11799TIP3    H156888   5.733   2.592  12.244 -1.0640  0.2903  0.1001
11799TIP3    H256889   5.728   2.619  12.393  0.8702 -0.9408  0.4106
11800TIP3   OH256890   2.443   5.705   3.909 -0.1790 -0.9056  0.6381
11800TIP3    H156891   2.488   5.646   3.848  2.5674  2.8225 -1.1401
11800TIP3    H256892   2.506   5.775   3.926 -3.2024  1.4471  2.8199
11801TIP3   OH256893   0.946   6.071  12.591 -0.6918  0.0085 -0.4226
11801TIP3    H156894   0.874   6.109  12.642 -1.0099 -0.1985 -0.7132
11801TIP3    H256895   0.990   6.147  12.552 -1.1855  0.0937 -0.8145
11802TIP3   OH256896   0.490   0.622  12.568 -0.2637 -0.1784 -0.1355
11802TIP3    H156897   0.421   0.563  12.536 -1.8385  1.2959  0.4242
11802TIP3    H256898   0.542   0.643  12.491 -2.3620  1.1556 -1.2361
11803TIP3   OH256899   1.324   5.306  15.249 -0.3774 -0.2304  0.1115
11803TIP3    H156900   1.316   5.228  15.193  0.9734 -0.4378  0.1979
11803TIP3    H256901   1.411   5.340  15.231 -0.2160  0.1452  1.5234
11804TIP3   OH256902   0.408   2.336  16.272  0.1343  0.4846 -0.3210
11804TIP3    H156903   0.445   2.380  16.348 -0.4601  1.8767 -0.8274
11804TIP3    H256904   0.346   2.399  16.235 -1.6790 -1.2625 -0.3221
11805TIP3   OH256905   1.924   0.874   0.095  0.2367 -0.5834 -0.2359
11805TIP3    H156906   1.884   0.938   0.155 -1.2464 -1.8664  0.1804
11805TIP3    H256907   1.982   0.822   0.151  1.6425  0.5452 -0.6239
11806TIP3   OH256908   1.644   4.908   4.116  0.4053  0.0210  0.6956
11806TIP3    H156909   1.566   4.915   4.170  1.2643 -3.3093  2.5214
11806TIP3    H256910   1.708   4.864   4.173  3.0865  1.2639 -1.2653
11807TIP3   OH256911   3.409   2.092   1.164  0.0820  0.0168  0.3906
11807TIP3    H156912   3.463   2.014   1.177 -1.3828 -1.4023 -1.7549
11807TIP3    H256913   3.320   2.062   1.185 -0.6708  0.7450 -1.6528
11808TIP3   OH256914   0.791   6.025   6.144  0.7539 -0.7986 -0.5301
11808TIP3    H156915   0.829   6.092   6.088  1.8297 -0.6674  0.3346
11808TIP3    H256916   0.837   5.945   6.121 -0.3323 -1.1956 -1.3622
11809TIP3   OH256917   0.032   2.585  16.863  0.3534  0.0246  0.1798
11809TIP3    H156918   0.021   2.669  16.819  1.2929 -0.2086 -0.5052
11809TIP3    H256919   0.079   2.606  16.943 -0.5797  0.3282  0.6567
11810TIP3   OH256920   4.851   4.403   0.789 -0.2417  0.2018 -0.0528
11810TIP3    H156921   4.760   4.427   0.805 -0.8408 -1.6433 -0.6356
11810TIP3    H256922   4.858   4.394   0.694  0.0250 -1.6605  0.1322
11811TIP3   OH256923   1.145   3.070   2.975 -0.2372  0.0680 -0.2645
11811TIP3    H156924   1.124   2.979   2.953  0.3939 -0.4543  1.2907
11811TIP3    H256925   1.162   3.111   2.890 -0.7043 -1.2076 -0.9959
11812TIP3   OH256926   1.772   3.758   0.435 -0.4980 -0.8124  0.0631
11812TIP3    H156927   1.852   3.749   0.384  0.4903 -0.1303  1.4806
11812TIP3    H256928   1.751   3.668   0.462  1.3952 -0.6907  2.0828
11813TIP3   OH256929   5.384   4.708  11.345 -0.4277  0.1225  0.2671
11813TIP3    H156930   5.299   4.712  11.302  0.3561  0.3085 -1.2974
11813TIP3    H256931   5.440   4.662  11.283  0.7032  0.2835  1.1520
11814TIP3   OH256932   4.828   5.125  15.303  0.0572  0.3007 -0.2325
11814TIP3    H156933   4.859   5.186  15.370 -1.7080  0.2285  0.6889
11814TIP3    H256934   4.881   5.144  15.226  1.0931  1.4229  0.7482
11815TIP3   OH256935   4.164   3.947  17.131  0.1570 -0.0638 -0.3947
11815TIP3    H156936   4.120   4.014  17.078  1.5390  2.7017  1.8094
11815TIP3    H256937   4.096   3.917  17.192 -0.3711 -0.4180 -1.1465
11816TIP3   OH256938   4.564   3.153  13.248  0.1443  0.3466  0.1091
11816TIP3    H156939   4.635   3.153  13.184 -2.6664 -0.3512 -3.1280
11816TIP3    H256940   4.566   3.064  13.285  0.2534 -0.0308 -0.7912
11817TIP3   OH256941   0.647   4.945  16.583  0.2533  0.2658 -0.5849
11817TIP3    H156942   0.602   4.932  16.666  1.9675  1.4961  0.5707
11817TIP3    H256943   0.599   4.890  16.521 -1.8411  0.3149  0.9259
11818TIP3   OH256944   2.614   4.452  10.867  0.0865 -0.6889  0.4267
11818TIP3    H156945   2.687   4.507  10.894  1.3499 -1.7956 -0.6765
11818TIP3    H256946   2.548   4.513  10.835  0.7268  0.2834  0.9309
11819TIP3   OH256947   6.208   4.398   3.877 -0.8781 -0.5313 -0.0347
11819TIP3    H156948   6.271   4.343   3.829  0.0535 -0.5063  1.1330
11819TIP3    H256949   6.253   4.418   3.959 -1.8569  0.6697  0.2058
11820TIP3   OH256950   5.096   1.838  16.019 -0.0098  0.3470 -0.3554
11820TIP3    H156951   5.014   1.828  16.066 -0.1167  0.8837 -0.4292
11820TIP3    H256952   5.146   1.759  16.041  0.2208  0.9233  1.2030
11821TIP3   OH256953   2.869   3.824   2.977 -0.3377 -0.3160  0.5821
11821TIP3    H156954   2.964   3.817   2.973 -0.2283 -2.2269  4.5302
11821TIP3    H256955   2.837   3.749   2.927  0.2875 -1.2451  1.5705
11822TIP3   OH256956   3.056   2.970  17.232 -0.4279 -0.1590  0.4289
11822TIP3    H156957   3.022   3.020  17.307 -2.5255  1.3607 -1.4502
11822TIP3    H256958   3.119   3.029  17.191 -0.7626 -0.1982 -0.1431
11823TIP3   OH256959   5.002   5.295   5.916  0.1912 -0.1084 -0.6016
11823TIP3    H156960   5.046   5.300   6.001  0.4498 -0.7672 -0.6967
11823TIP3    H256961   5.066   5.329   5.854  1.1270 -2.3605 -0.9389
11824TIP3   OH256962   3.973   0.308   1.015 -0.0318 -0.5106  0.2895
11824TIP3    H156963   3.935   0.395   1.026  0.7064 -0.1786  0.2439
11824TIP3    H256964   3.916   0.265   0.951  1.3991  1.0399 -2.0770
11825TIP3   OH256965   4.476   5.089  15.863 -0.2112 -0.1850 -0.5367
11825TIP3    H156966   4.475   5.013  15.805 -1.0131  0.9772 -2.0774
11825TIP3    H256967   4.519   5.158  15.812  1.2209  0.2037  1.1244
11826TIP3   OH256968   3.810   2.674   0.328 -0.0280  0.7551  0.4003
11826TIP3    H156969   3.835   2.679   0.421  1.3994 -0.4475  0.0853
11826TIP3    H256970   3.738   2.611   0.326  1.0659 -0.5114  0.4721
11827TIP3   OH256971   6.633   2.485   1.485 -0.2389  0.1727 -0.2671
11827TIP3    H156972   6.697   2.540   1.440 -2.2915  1.3569 -1.7813
11827TIP3    H256973   6.659   2.395   1.464  0.7272  0.6490 -1.1130
11828TIP3   OH256974   3.401   2.980  13.199  0.6328  0.1614 -0.1593
11828TIP3    H156975   3.481   2.964  13.248  1.5594 -0.3814 -1.8204
11828TIP3    H256976   3.343   3.023  13.261  2.2916  0.7799  0.9795
11829TIP3   OH256977   0.524   2.097   5.348  0.1270  0.9030 -0.0648
11829TIP3    H156978   0.464   2.108   5.422 -0.2253  0.8025 -0.3341
11829TIP3    H256979   0.608   2.077   5.389  0.1455  1.7706  0.3420
11830TIP3   OH256980   5.007   4.006   3.610 -0.1682 -0.8464  0.4275
11830TIP3    H156981   5.032   4.014   3.701 -0.9916  1.5881  0.4906
11830TIP3    H256982   4.964   3.920   3.604  1.0842 -1.5968  2.0073
11831TIP3   OH256983   4.820   4.559  11.582  0.0023 -0.1180  0.9663
11831TIP3    H156984   4.792   4.589  11.495  0.1699 -1.1503  0.5435
11831TIP3    H256985   4.783   4.471  11.589  1.5559 -0.7682  1.1639
11832TIP3   OH256986   2.089   4.861   6.088 -0.1136  0.0854  0.0813
11832TIP3    H156987   2.166   4.908   6.118 -0.0325 -1.2169  2.0011
11832TIP3    H256988   2.069   4.799   6.159 -0.8545 -1.9962 -1.8891
11833TIP3   OH256989   0.132   2.240  16.964 -0.1907 -0.4027 -0.5221
11833TIP3    H156990   0.150   2.308  17.029  1.8132 -1.2367 -0.1898
11833TIP3    H256991   0.044   2.209  16.986 -0.5350  1.0416  0.2307
11834TIP3   OH256992   3.909   0.715  11.747 -0.5270  0.2447 -0.1901
11834TIP3    H156993   4.004   0.719  11.759 -0.6534  0.3261  0.7896
11834TIP3    H256994   3.897   0.711  11.652  0.4888 -0.7461 -0.2774
11835TIP3   OH256995   5.207   2.909   2.425  0.2355  0.4932 -0.2436
11835TIP3    H156996   5.248   2.897   2.510  0.0963  0.7093 -0.1447
11835TIP3    H256997   5.140   2.976   2.440 -1.0176 -0.7632 -0.1230
11836TIP3   OH256998   0.804   4.106   3.426  0.3849 -0.3217  0.7366
11836TIP3    H156999   0.757   4.187   3.445  1.1664  0.2132  0.3990
11836TIP3    H257000   0.738   4.050   3.383  0.5810  1.1993 -1.6556
11837TIP3   OH257001   2.199   4.357   3.654 -0.0193 -0.1862 -0.3205
11837TIP3    H157002   2.209   4.357   3.749 -0.3522 -0.8910 -0.2832
11837TIP3    H257003   2.211   4.449   3.629  2.1759 -0.3153  0.1610
11838TIP3   OH257004   4.315   4.196  14.254  0.1089 -0.8200  0.4221
11838TIP3    H157005   4.331   4.267  14.193 -0.4831 -1.5781 -0.6402
11838TIP3    H257006   4.394   4.142  14.251 -1.0711 -2.4867 -1.9508
11839TIP3   OH257007   5.147   1.606  11.883 -0.2760 -0.0299  0.4435
11839TIP3    H157008   5.236   1.584  11.854 -0.1931  1.3047 -0.3712
11839TIP3    H257009   5.107   1.647  11.807 -1.5491 -0.4590  0.8674
11840TIP3   OH257010   3.973   3.670  10.590  0.5656  0.3382 -0.4009
11840TIP3    H157011   3.933   3.635  10.511 -0.1680  1.6889 -0.6446
11840TIP3    H257012   3.972   3.765  10.577  1.1268  0.5301  0.9021
11841TIP3   OH257013   0.792   2.693   2.606  0.8441 -0.3206 -0.6488
11841TIP3    H157014   0.867   2.752   2.610  0.3784  0.2597 -0.2525
11841TIP3    H257015   0.820   2.615   2.654  1.7977 -0.8119 -1.9810
11842TIP3   OH257016   0.508   2.608  17.062  0.3773  0.0274  0.7607
11842TIP3    H157017   0.463   2.627  16.980 -0.7991 -0.1529  1.3597
11842TIP3    H257018   0.509   2.692  17.109  1.3950  0.2240  0.4106
11843TIP3   OH257019   4.489   4.234  15.308  0.2445  0.0211  0.2433
11843TIP3    H157020   4.528   4.180  15.376  0.1351 -1.2168 -0.6583
11843TIP3    H257021   4.451   4.171  15.246 -1.9151  1.1724  0.3700
11844TIP3   OH257022   5.190   5.777  14.008 -0.0331 -0.3476 -0.3086
11844TIP3    H157023   5.119   5.784  13.945 -0.9321 -0.2135  0.7115
11844TIP3    H257024   5.247   5.708  13.973 -0.0049  0.4156 -1.7667
11845TIP3   OH257025   1.889   6.764   4.087  0.0754 -0.0615  0.0353
11845TIP3    H157026   1.953   6.712   4.037 -0.1787 -1.6495  1.3294
11845TIP3    H257027   1.939   6.797   4.162 -0.0489  0.6507 -0.1916
11846TIP3   OH257028   6.336   6.090  11.175 -0.2959  0.0461 -0.0881
11846TIP3    H157029   6.351   6.159  11.111 -0.2740 -1.4710 -1.7408
11846TIP3    H257030   6.424   6.060  11.199 -0.2647  1.2177  1.3704
11847TIP3   OH257031   2.821   5.883   0.520 -0.7163 -0.0860  0.2079
11847TIP3    H157032   2.761   5.810   0.530 -1.9732  1.2147  2.5495
11847TIP3    H257033   2.840   5.911   0.610  0.4739  1.8626 -0.6195
11848TIP3   OH257034   3.075   6.087  11.072 -0.1622  0.0783  0.2376
11848TIP3    H157035   3.052   6.119  11.160 -0.1741  0.3365  0.1394
11848TIP3    H257036   2.992   6.061  11.033 -0.4380  1.9812 -0.5076
11849TIP3   OH257037   0.481   0.218  16.199 -0.0484 -0.4049 -0.2519
11849TIP3    H157038   0.523   0.257  16.276 -0.2122 -0.0753 -0.3294
11849TIP3    H257039   0.550   0.167  16.158 -0.2148 -1.3730  0.6526
11850TIP3   OH257040   3.963   4.865   0.932  0.4901 -0.0596  0.2458
11850TIP3    H157041   4.035   4.910   0.976 -0.0896  0.8626  0.2739
11850TIP3    H257042   3.986   4.772   0.937  1.0737  0.1344  1.3281
11851TIP3   OH257043   4.292   6.774   0.989 -0.8892  0.6726  0.8914
11851TIP3    H157044   4.322   6.770   0.898 -1.7196  0.4404  0.6252
11851TIP3    H257045   4.344   6.708   1.034 -0.0456  1.2032  0.7133
11852TIP3   OH257046   4.602   2.338   5.258  0.3612 -0.2953  0.0754
11852TIP3    H157047   4.664   2.285   5.207  1.4990  1.5087 -0.4336
11852TIP3    H257048   4.527   2.349   5.200 -0.6662 -2.8567  0.8546
11853TIP3   OH257049   0.620   4.127  12.527  0.1414  0.4472  0.2537
11853TIP3    H157050   0.626   4.166  12.440  0.2393  1.7018  0.8153
11853TIP3    H257051   0.528   4.105  12.537 -0.2630  2.2877  0.6770
11854TIP3   OH257052   4.415   0.279   3.368  0.2787 -0.2997 -0.2403
11854TIP3    H157053   4.441   0.187   3.365 -0.8813 -0.6420 -0.0054
11854TIP3    H257054   4.332   0.282   3.320  0.5687  0.7136 -0.6874
11855TIP3   OH257055   2.028   5.578   6.311  0.2703 -0.2910  0.1558
11855TIP3    H157056   2.109   5.549   6.354  0.6198  0.9083  0.3255
11855TIP3    H257057   2.057   5.615   6.228 -0.2704 -1.3198 -0.5031
11856TIP3   OH257058   3.358   2.331  13.730 -0.0946  0.5069  0.2540
11856TIP3    H157059   3.426   2.368  13.786 -0.8295  1.4558  0.5490
11856TIP3    H257060   3.405   2.293  13.656  0.7300  1.4770  0.2674
11857TIP3   OH257061   3.251   5.302  16.279 -0.5740  0.2804  0.6235
11857TIP3    H157062   3.207   5.236  16.226  2.2569 -1.5380  0.4209
11857TIP3    H257063   3.298   5.252  16.346  0.4295  2.1896  1.3888
11858TIP3   OH257064   1.972   4.770   5.166  0.7695  0.6046 -0.2492
11858TIP3    H157065   1.966   4.802   5.256 -0.6947  0.0727 -0.1491
11858TIP3    H257066   2.063   4.741   5.157  0.8445  0.3597  1.1503
11859TIP3   OH257067   6.604   0.334   4.554 -0.1014  0.0047 -0.7378
11859TIP3    H157068   6.697   0.331   4.530  0.6243 -1.3169  2.0256
11859TIP3    H257069   6.600   0.392   4.631 -1.5350 -0.1366 -0.6824
11860TIP3   OH257070   3.836   4.952  15.791 -0.0589  0.6349  0.2293
11860TIP3    H157071   3.893   4.927  15.864  0.7036 -1.3638 -1.0011
11860TIP3    H257072   3.897   4.984  15.724 -0.4184 -0.7899 -0.8086
11861TIP3   OH257073   6.149   2.249  11.308 -0.4511 -0.0282  0.1754
11861TIP3    H157074   6.210   2.319  11.283 -0.3192  0.1226  0.9092
11861TIP3    H257075   6.205   2.173  11.324 -0.4848  0.0261  0.5508
11862TIP3   OH257076   5.532   6.655  12.050  0.0468  0.4048 -0.8000
11862TIP3    H157077   5.600   6.629  12.112 -1.1795 -2.8246 -0.7521
11862TIP3    H257078   5.565   6.625  11.965 -0.5111  0.4246 -1.0227
11863TIP3   OH257079   5.422   4.657  12.743  0.4565  0.1822  0.3985
11863TIP3    H157080   5.476   4.641  12.821 -2.2187  1.0067  2.4928
11863TIP3    H257081   5.416   4.571  12.701  1.2010 -0.4785  1.6039
11864TIP3   OH257082   1.007   0.406   2.019  0.4725 -0.1040  0.2182
11864TIP3    H157083   1.067   0.473   1.987  0.5019 -1.3450 -2.4211
11864TIP3    H257084   0.927   0.454   2.040 -0.0824  0.5901 -3.2210
11865TIP3   OH257085   1.050   2.530  11.592 -0.6055  0.2415 -0.1283
11865TIP3    H157086   1.106   2.453  11.588  0.6607  1.0744  0.9303
11865TIP3    H257087   1.107   2.603  11.569 -0.8562  1.2768  2.2936
11866TIP3   OH257088   2.197   1.436   4.443  0.3330  0.1446  0.2245
11866TIP3    H157089   2.277   1.411   4.399  1.2291  2.7160  0.3231
11866TIP3    H257090   2.135   1.455   4.373 -0.1928 -1.7358  0.1492
11867TIP3   OH257091   0.576   0.518   1.510  0.3674  0.0176 -0.0603
11867TIP3    H157092   0.596   0.597   1.460 -2.0952 -0.2897 -1.6644
11867TIP3    H257093   0.596   0.446   1.449  0.8913 -0.5240  0.7450
11868TIP3   OH257094   6.566   1.010  14.027 -0.2002  0.2922 -0.1046
11868TIP3    H157095   6.554   0.957  14.105 -0.7894  0.3679 -0.1424
11868TIP3    H257096   6.560   1.101  14.057 -0.5203  0.3208 -0.2539
11869TIP3   OH257097   2.222   6.227  13.265  0.0612 -0.2073  0.3362
11869TIP3    H157098   2.286   6.291  13.296 -0.7935  0.7391  0.1929
11869TIP3    H257099   2.163   6.277  13.208 -1.8619 -0.6310  1.8700
11870TIP3   OH257100   4.366   3.435   6.382  0.1478 -0.1725 -0.7183
11870TIP3    H157101   4.310   3.500   6.339  1.2515  0.2379 -1.5678
11870TIP3    H257102   4.414   3.484   6.448  0.1961 -0.3454 -0.6231
11871TIP3   OH257103   1.837   0.388  16.908 -0.1683  0.1686  0.0102
11871TIP3    H157104   1.775   0.401  16.980 -0.2117 -1.0735  0.2112
11871TIP3    H257105   1.875   0.302  16.925 -0.5750 -0.3820 -1.7338
11872TIP3   OH257106   3.056   4.154  15.813  0.6916 -0.3325  0.5554
11872TIP3    H157107   3.061   4.083  15.876  1.1555 -1.0221 -0.2417
11872TIP3    H257108   3.013   4.225  15.860  1.6288 -0.5969  1.8475
11873TIP3   OH257109   2.992   3.497   4.951  0.3517 -0.4029  0.0415
11873TIP3    H157110   2.925   3.448   4.998  0.5157 -1.3501 -0.6948
11873TIP3    H257111   3.009   3.574   5.006 -0.4454 -0.7874  0.8342
11874TIP3   OH257112   5.935   3.553   1.574 -0.2893 -0.2565 -0.4725
11874TIP3    H157113   5.942   3.627   1.514 -0.9132  1.4510  1.5102
11874TIP3    H257114   5.846   3.558   1.609  0.2906 -0.8065  1.1158
11875TIP3   OH257115   5.718   3.895  12.734  0.3172 -0.0699 -0.6345
11875TIP3    H157116   5.741   3.847  12.814  0.8201 -1.1038 -1.4012
11875TIP3    H257117   5.623   3.902  12.737  0.4356  1.2085  0.8061
11876TIP3   OH257118   4.906   1.189   5.712  0.3515 -0.6906 -0.0263
11876TIP3    H157119   4.876   1.134   5.639  1.4595 -0.4898 -0.6490
11876TIP3    H257120   4.871   1.276   5.692  1.1847 -0.4950 -0.6604
11877TIP3   OH257121   0.783   0.017  13.723 -0.3761 -0.0531 -0.4215
11877TIP3    H157122   0.858   0.058  13.767 -0.7272  0.7130 -0.5245
11877TIP3    H257123   0.778   0.061  13.638  0.9910 -2.3048 -1.7334
11878TIP3   OH257124   1.112   1.827   0.437  0.6672 -0.4005  0.2982
11878TIP3    H157125   1.167   1.863   0.507 -1.8292  0.0989  2.0952
11878TIP3    H257126   1.131   1.733   0.438  3.2017  0.0593 -0.7271
11879TIP3   OH257127   2.133   1.042  11.260  0.0432  0.8173  0.6055
11879TIP3    H157128   2.144   1.131  11.228 -0.4421  0.0342 -1.8467
11879TIP3    H257129   2.096   0.994  11.186 -0.0509 -1.3411  1.9983
11880TIP3   OH257130   5.287   5.466  14.648 -0.1911  0.4410 -0.2826
11880TIP3    H157131   5.354   5.535  14.646 -0.2912  0.5602  0.2408
11880TIP3    H257132   5.294   5.423  14.563 -0.1450  1.1232 -0.6331
11881TIP3   OH257133   4.510   3.643   0.374  0.1175 -0.3358 -0.1498
11881TIP3    H157134   4.542   3.556   0.400 -2.2697 -0.6490  1.9580
11881TIP3    H257135   4.587   3.699   0.378  1.6188 -2.2567 -1.1340
11882TIP3   OH257136   1.634   0.659  11.469  0.1688 -0.0597 -0.6959
11882TIP3    H157137   1.655   0.752  11.467 -2.0612  0.4371 -2.2486
11882TIP3    H257138   1.640   0.635  11.562  1.0188  1.5370 -0.3246
11883TIP3   OH257139   0.007   4.773  12.910  0.3187 -0.4965 -0.0665
11883TIP3    H157140   0.054   4.838  12.963  0.8996 -1.8860  1.1777
11883TIP3    H257141  -0.063   4.742  12.968 -0.1588 -0.7283 -0.7650
11884TIP3   OH257142   2.018   1.865   3.771 -0.0447  0.3622 -0.1716
11884TIP3    H157143   2.036   1.958   3.785 -1.0215  0.3439  1.3583
11884TIP3    H257144   2.079   1.819   3.829 -2.7469  0.2233  2.7212
11885TIP3   OH257145   1.691   0.420   3.151  0.0860 -0.1816  0.1955
11885TIP3    H157146   1.700   0.381   3.065 -0.7807  1.6790 -0.7750
11885TIP3    H257147   1.756   0.375   3.205  2.0040 -0.0408 -1.9084
11886TIP3   OH257148   2.298   6.008  15.012  0.5824  0.2296  0.3529
11886TIP3    H157149   2.389   6.035  15.020  0.7984 -0.2779 -0.3129
11886TIP3    H257150   2.259   6.073  14.954  0.7428 -0.0615 -0.0828
11887TIP3   OH257151   6.107   2.908  13.224 -0.7269 -0.1339 -0.7270
11887TIP3    H157152   6.066   2.837  13.174  1.6446 -0.2750 -2.5530
11887TIP3    H257153   6.170   2.865  13.281 -0.1871  0.4069 -0.9119
11888TIP3   OH257154   1.421   4.597  16.170  0.1674 -0.5124  0.2891
11888TIP3    H157155   1.455   4.678  16.132  1.6071 -1.4383 -0.4209
11888TIP3    H257156   1.407   4.540  16.094 -2.9945 -0.1685  0.5511
11889TIP3   OH257157   5.556   4.663  12.260 -1.1016 -0.1620  0.0750
11889TIP3    H157158   5.594   4.615  12.187  0.0834 -1.3606  1.4615
11889TIP3    H257159   5.462   4.648  12.253 -1.0112 -0.1370 -1.2807
11890TIP3   OH257160   1.908   2.332  14.274 -0.3033  0.3153  1.2143
11890TIP3    H157161   1.824   2.286  14.281 -0.0088 -0.6115 -0.9333
11890TIP3    H257162   1.885   2.425  14.282 -1.5233  0.0523  0.9351
11891TIP3   OH257163   1.143   6.746   3.986 -0.2955 -0.3238 -0.1920
11891TIP3    H157164   1.080   6.816   4.003 -0.7093 -0.5148 -0.9279
11891TIP3    H257165   1.099   6.667   4.017  0.7705 -0.0716  2.0311
11892TIP3   OH257166   6.185   6.043  14.592 -1.2574  0.4555 -0.4445
11892TIP3    H157167   6.102   6.063  14.636 -0.6480  1.2347  0.3709
11892TIP3    H257168   6.185   5.948  14.584 -1.7535  0.3659  0.5088
11893TIP3   OH257169   3.081   1.930  13.057 -0.4183  0.3346 -0.5694
11893TIP3    H157170   3.124   1.846  13.069  0.2718  0.8478  0.6914
11893TIP3    H257171   2.998   1.923  13.105 -0.9961 -0.0750 -1.5984
11894TIP3   OH257172   0.020   3.611  16.398 -0.2251 -0.3246 -0.2044
11894TIP3    H157173   0.052   3.675  16.462  0.4168 -2.5108  1.7121
11894TIP3    H257174  -0.070   3.638  16.380 -0.3426  0.4325  1.4593
11895TIP3   OH257175   3.478   2.292   1.316 -0.0476  0.4127  0.1035
11895TIP3    H157176   3.449   2.226   1.253  2.1866  0.8619 -1.4491
11895TIP3    H257177   3.435   2.373   1.287  1.9572  0.8889 -1.6617
11896TIP3   OH257178   3.392   4.471   4.552 -0.2802 -0.1275  0.0661
11896TIP3    H157179   3.320   4.519   4.512 -0.6294  1.0082  1.9876
11896TIP3    H257180   3.426   4.531   4.619  3.4886  0.0090 -1.8523
11897TIP3   OH257181   0.475   1.667  16.584  0.3104 -0.0438 -0.6704
11897TIP3    H157182   0.546   1.681  16.647  0.7053 -0.5354 -1.0057
11897TIP3    H257183   0.427   1.750  16.584  0.4729  0.0602  0.0665
11898TIP3   OH257184   1.821   6.172   5.721  0.2068 -0.0617 -0.4080
11898TIP3    H157185   1.729   6.157   5.741  0.6884  0.1095  2.0406
11898TIP3    H257186   1.823   6.261   5.684 -0.6433 -0.2203 -0.8414
11899TIP3   OH257187   4.253   1.795   1.168 -0.3224  0.3213  0.1830
11899TIP3    H157188   4.273   1.866   1.229  0.6919  0.6966 -0.5637
11899TIP3    H257189   4.163   1.809   1.142 -0.6900  0.3003  1.3982
11900TIP3   OH257190   1.344   4.435  11.714 -0.0956  0.0228 -0.4216
11900TIP3    H157191   1.329   4.400  11.626  2.8585 -0.1822 -0.9166
11900TIP3    H257192   1.333   4.529  11.705 -1.3096 -0.1379 -0.6572
11901TIP3   OH257193   5.774   6.584  10.808  0.6308 -0.1460  0.1757
11901TIP3    H157194   5.694   6.636  10.816  0.0419 -1.0412  0.1279
11901TIP3    H257195   5.744   6.496  10.787  1.6280 -0.5080  0.2300
11902TIP3   OH257196   4.973   3.385   0.938 -0.5428 -0.3987 -0.0329
11902TIP3    H157197   4.969   3.301   0.893 -0.2716 -0.0660 -0.6960
11902TIP3    H257198   4.976   3.450   0.867  0.4539  0.1041  0.4508
11903TIP3   OH257199   3.407   3.165  13.653  0.3466  0.1482 -0.4467
11903TIP3    H157200   3.327   3.180  13.603  0.7705 -0.9260 -1.4704
11903TIP3    H257201   3.383   3.183  13.744 -0.9706  0.1087 -0.7830
11904TIP3   OH257202   5.165   4.786  13.732  0.1552  0.0672 -0.4943
11904TIP3    H157203   5.256   4.813  13.724  0.8727 -2.0327  0.3815
11904TIP3    H257204   5.115   4.866  13.714  2.2169  2.5413  4.1360
11905TIP3   OH257205   2.789   5.225  14.038 -0.0784  0.2167  0.2065
11905TIP3    H157206   2.709   5.206  13.989  0.4653  1.3958 -1.1774
11905TIP3    H257207   2.847   5.153  14.018 -0.2877  0.0875  0.0616
11906TIP3   OH257208   5.407   4.988  11.734 -0.5064  0.0949 -0.2902
11906TIP3    H157209   5.321   5.010  11.771  0.1590  0.2897  1.1401
11906TIP3    H257210   5.393   4.906  11.688 -1.3536 -0.1266  0.3533
11907TIP3   OH257211   2.173   6.507  15.312  0.4777  0.1527 -0.3913
11907TIP3    H157212   2.241   6.548  15.365  1.0400 -0.4275 -0.6522
11907TIP3    H257213   2.198   6.415  15.309 -1.7710 -0.5681  1.7066
11908TIP3   OH257214   5.435   1.088   4.630  0.5856 -0.3406  0.6503
11908TIP3    H157215   5.513   1.061   4.583 -0.1249 -1.1421 -0.0884
11908TIP3    H257216   5.395   1.006   4.660  0.6561  0.1211  2.0442
11909TIP3   OH257217   5.888   6.100  11.896 -0.0383 -0.0411 -0.0928
11909TIP3    H157218   5.947   6.096  11.971 -1.7361 -1.4922  1.2049
11909TIP3    H257219   5.902   6.017  11.850  0.4763  0.5318 -0.9655
11910TIP3   OH257220   2.070   6.774  11.254 -0.5802 -0.4374  0.3028
11910TIP3    H157221   1.983   6.814  11.254 -1.3125 -1.9615  0.1954
11910TIP3    H257222   2.097   6.776  11.346 -0.0473  1.4406  0.1164
11911TIP3   OH257223   1.720   1.876   3.711 -0.0264  0.4772  0.2610
11911TIP3    H157224   1.681   1.800   3.669 -1.1125  1.5732 -0.7755
11911TIP3    H257225   1.811   1.850   3.730 -0.2200 -0.8548 -0.5960
11912TIP3   OH257226   1.129   4.292  12.879  0.0283  0.4990  0.3034
11912TIP3    H157227   1.134   4.372  12.931  0.4662  1.6210 -1.4262
11912TIP3    H257228   1.129   4.322  12.788 -1.1847 -1.4047 -0.3500
11913TIP3   OH257229   3.257   3.151  17.200  0.5254 -0.0785  0.5625
11913TIP3    H157230   3.247   3.203  17.280 -0.4312  1.0996 -0.3145
11913TIP3    H257231   3.323   3.198  17.149 -1.7070  1.3261 -1.0667
11914TIP3   OH257232   5.832   4.969  16.114 -0.2534  0.2086  0.1394
11914TIP3    H157233   5.829   5.057  16.076 -0.0528 -0.0878 -0.5624
11914TIP3    H257234   5.907   4.927  16.072  0.7998  0.3185  1.8390
11915TIP3   OH257235   6.173   2.608   3.924  0.3403 -0.2837  0.1527
11915TIP3    H157236   6.261   2.587   3.893  0.3954 -0.2282  0.2680
11915TIP3    H257237   6.186   2.684   3.981  0.3810 -0.9857  1.0901
11916TIP3   OH257238   6.527   5.719   3.465  0.3955 -0.2509  0.4807
11916TIP3    H157239   6.466   5.740   3.395 -0.1221 -0.0691  0.9755
11916TIP3    H257240   6.582   5.649   3.429  0.4682  0.1938 -0.2762
11917TIP3   OH257241   2.323   2.552  17.288  0.1811 -0.3691  0.2940
11917TIP3    H157242   2.260   2.502  17.236  0.7173 -2.0303  1.2134
11917TIP3    H257243   2.328   2.637  17.244 -2.9873 -0.0543  0.4328
11918TIP3   OH257244   6.148   1.378  13.919 -0.0735  0.2782 -0.5210
11918TIP3    H157245   6.192   1.323  13.854  1.2232 -0.4239  0.9072
11918TIP3    H257246   6.218   1.404  13.979 -1.1811  1.2226  0.3681
11919TIP3   OH257247   6.006   0.452  11.208 -0.3267  0.4399  0.4865
11919TIP3    H157248   6.041   0.496  11.130 -1.3940 -0.3519 -0.4687
11919TIP3    H257249   5.942   0.390  11.173 -1.5969  0.8142  2.0823
11920TIP3   OH257250   1.494   2.584   4.210  0.5921 -0.2137 -0.2545
11920TIP3    H157251   1.446   2.665   4.228 -0.7355 -1.2383  0.9022
11920TIP3    H257252   1.518   2.590   4.117 -0.0647  1.1963 -0.3380
11921TIP3   OH257253   3.391   0.318   2.289  0.8971  0.1325  0.2612
11921TIP3    H157254   3.357   0.398   2.329  1.9966  0.6200  0.2575
11921TIP3    H257255   3.436   0.349   2.210  0.6489 -0.5768 -0.1604
11922TIP3   OH257256   5.580   5.680  12.344  0.2389 -0.3998  0.0473
11922TIP3    H157257   5.595   5.590  12.374 -0.3926 -0.8228 -0.8817
11922TIP3    H257258   5.649   5.731  12.386  0.3233 -1.2373  0.9573
11923TIP3   OH257259   2.437   4.131  16.293 -0.0933 -0.7110  0.5347
11923TIP3    H157260   2.423   4.173  16.378  1.8019 -0.4131  0.7098
11923TIP3    H257261   2.474   4.045  16.314  1.3093 -0.2540 -0.0078
11924TIP3   OH257262   2.647   5.705   0.598 -0.1573  0.8182 -0.6530
11924TIP3    H157263   2.689   5.707   0.685  1.7412  1.5763 -1.5546
11924TIP3    H257264   2.556   5.730   0.615  0.1730  0.9145  1.1302
11925TIP3   OH257265   2.249   4.747  12.434  0.8129  0.3466 -0.1364
11925TIP3    H157266   2.228   4.717  12.522 -2.1735  0.8978 -0.6294
11925TIP3    H257267   2.167   4.782  12.400  2.4817  2.3385 -2.2692
11926TIP3   OH257268   2.016   3.483   1.162 -0.4541 -0.2475  0.3422
11926TIP3    H157269   1.975   3.434   1.091 -1.1026  0.0794  0.4877
11926TIP3    H257270   2.014   3.574   1.134 -0.6458 -0.1245  0.7481
11927TIP3   OH257271   1.423   4.105  12.733 -0.1151  0.1375  0.5097
11927TIP3    H157272   1.406   4.011  12.726  0.5813  0.0322  0.1297
11927TIP3    H257273   1.343   4.142  12.769 -1.2588 -0.2698 -1.5702
11928TIP3   OH257274   6.594   5.352   2.823  0.1661  0.4511  0.2373
11928TIP3    H157275   6.588   5.446   2.839 -0.8963  0.3398  0.4892
11928TIP3    H257276   6.540   5.337   2.746 -0.1870 -0.0520  0.5799
11929TIP3   OH257277   4.161   4.173  12.201  0.1038  0.0733  0.0758
11929TIP3    H157278   4.137   4.097  12.148  1.8162  0.1127 -0.7843
11929TIP3    H257279   4.207   4.136  12.277  2.3991  0.3298 -1.1677
11930TIP3   OH257280   5.830   2.404   0.693 -0.5673  0.2017  0.1123
11930TIP3    H157281   5.850   2.331   0.752  1.1144  0.0848 -0.5880
11930TIP3    H257282   5.829   2.366   0.606 -1.0383  0.7609 -0.1302
11931TIP3   OH257283   5.896   0.078   6.769  0.2879  0.2012  0.4264
11931TIP3    H157284   5.846   0.154   6.741 -1.5441 -1.0013  0.3058
11931TIP3    H257285   5.864   0.006   6.714  1.6622 -0.7545  0.8223
11932TIP3   OH257286   4.096   3.970  12.033 -0.3331  0.4844  0.3826
11932TIP3    H157287   4.010   3.970  11.991 -0.4330 -1.5564  0.5602
11932TIP3    H257288   4.105   3.882  12.070  0.4653  1.6843  3.1684
11933TIP3   OH257289   0.773   2.977   4.035  0.1642  0.8333  0.0045
11933TIP3    H157290   0.780   2.893   4.080  0.7325 -0.5343 -2.5053
11933TIP3    H257291   0.859   2.992   3.997 -0.4830  1.5623 -1.2239
11934TIP3   OH257292   5.905   6.374  14.519  0.6805  0.8163  0.1134
11934TIP3    H157293   5.916   6.390  14.613  1.4283  0.9499  0.0094
11934TIP3    H257294   5.883   6.281  14.513 -4.4169  1.8135  0.7756
11935TIP3   OH257295   2.606   2.745  16.387 -0.2157 -0.6450 -0.2781
11935TIP3    H157296   2.548   2.748  16.463 -0.9330  1.5977 -0.8683
11935TIP3    H257297   2.573   2.813  16.329  0.6007 -2.0227 -2.4136
11936TIP3   OH257298   5.611   5.301   4.354 -0.2591 -0.0037  0.1064
11936TIP3    H157299   5.636   5.306   4.261  0.8231  1.2193  0.4417
11936TIP3    H257300   5.552   5.226   4.359 -0.9553  0.3887 -1.7167
11937TIP3   OH257301   4.140   5.848   0.580  0.0263  0.3272 -0.2693
11937TIP3    H157302   4.099   5.762   0.588  0.6326  0.0011 -0.6384
11937TIP3    H257303   4.077   5.900   0.529 -0.0184 -0.1075 -0.6555
11938TIP3   OH257304   1.941   4.875   5.416  0.7754 -0.0992 -0.0171
11938TIP3    H157305   2.010   4.814   5.443  2.3753  1.5235 -0.3411
11938TIP3    H257306   1.956   4.953   5.470 -2.2265 -0.5225  1.5516
11939TIP3   OH257307   0.259   3.533   0.243 -0.5061  0.2709  0.3801
11939TIP3    H157308   0.302   3.459   0.285  0.1556  1.0104  1.0084
11939TIP3    H257309   0.227   3.587   0.315 -1.3973  0.3659 -0.0768
11940TIP3   OH257310   2.000   1.412  11.917 -0.1242 -0.2908  0.5808
11940TIP3    H157311   2.075   1.354  11.932  0.3598  0.1438 -0.1565
11940TIP3    H257312   1.960   1.380  11.837 -0.3823 -0.1537  0.6537
11941TIP3   OH257313   6.168   6.319  11.099  0.0427  0.7593 -0.1468
11941TIP3    H157314   6.088   6.276  11.070  0.0445 -1.8411  3.3213
11941TIP3    H257315   6.235   6.291  11.037 -0.8678 -0.6532 -0.5133
11942TIP3   OH257316   5.643   5.753   3.832 -0.3620 -0.0440 -0.5717
11942TIP3    H157317   5.633   5.698   3.910  1.3017  2.0795  1.2283
11942TIP3    H257318   5.731   5.733   3.800 -0.1470  0.7825 -0.5085
11943TIP3   OH257319   1.838   4.236   0.210 -0.1049 -0.0068 -0.1600
11943TIP3    H157320   1.920   4.238   0.160  0.8775  0.7823  1.4282
11943TIP3    H257321   1.823   4.144   0.226  1.4536 -0.0692  1.0754
11944TIP3   OH257322   4.021   5.453  14.167  0.4742 -0.5245  0.1305
11944TIP3    H157323   4.103   5.502  14.178  1.6307 -2.0652 -1.4000
11944TIP3    H257324   4.018   5.431  14.074 -0.9194 -1.8373  0.4658
11945TIP3   OH257325   0.072   0.678   1.431 -0.2025  0.1941  0.0193
11945TIP3    H157326   0.062   0.584   1.415  2.5012 -0.2219  0.4103
11945TIP3    H257327   0.018   0.720   1.364 -1.2961 -1.6325 -0.2715
11946TIP3   OH257328   3.557   3.284   5.603 -0.2294 -0.6778 -0.6928
11946TIP3    H157329   3.470   3.271   5.564 -0.6621  0.0522 -0.0053
11946TIP3    H257330   3.547   3.363   5.657  0.5047 -1.3426  0.4421
11947TIP3   OH257331   4.441   6.318  11.660 -0.2779 -0.2127 -1.0188
11947TIP3    H157332   4.376   6.384  11.633  0.4544  1.0214  0.1199
11947TIP3    H257333   4.401   6.277  11.737  0.6116  1.1564  0.2219
11948TIP3   OH257334   3.773   3.873  16.587 -0.8321  0.0383  0.1399
11948TIP3    H157335   3.750   3.903  16.499  0.3349  0.4296 -0.0376
11948TIP3    H257336   3.719   3.926  16.645 -0.3005  1.0474 -0.2703
11949TIP3   OH257337   6.665   5.470   0.960  0.4670  0.7283  0.4482
11949TIP3    H157338   6.601   5.404   0.985 -0.4962  0.7047 -1.9640
11949TIP3    H257339   6.636   5.550   1.005 -1.4826  0.8053 -0.8980
11950TIP3   OH257340   5.979   4.611  13.271  0.1500 -0.7887  0.1883
11950TIP3    H157341   5.968   4.683  13.209  1.9349 -0.0595  0.6939
11950TIP3    H257342   5.916   4.629  13.340 -0.2154 -0.3551 -0.2540
11951TIP3   OH257343   3.880   3.724   1.447  0.2805  0.4661  0.3775
11951TIP3    H157344   3.968   3.756   1.466 -0.1752  3.0580 -1.6225
11951TIP3    H257345   3.893   3.648   1.391  1.2793  0.4125  0.6798
11952TIP3   OH257346   1.869   5.306   3.168  0.1059 -0.0751 -0.1329
11952TIP3    H157347   1.861   5.305   3.264  0.3901  1.6866 -0.0791
11952TIP3    H257348   1.861   5.398   3.144 -0.9311 -0.6002 -1.9102
11953TIP3   OH257349   1.429   3.368   5.926 -0.5758 -0.1208  0.4674
11953TIP3    H157350   1.357   3.334   5.979 -0.4900 -0.7741  0.1694
11953TIP3    H257351   1.482   3.418   5.987 -2.0213  1.5249  0.4168
11954TIP3   OH257352   5.969   2.593  16.226  0.4370  0.3504  0.2418
11954TIP3    H157353   5.909   2.559  16.292  1.9819 -1.7971  0.5826
11954TIP3    H257354   5.979   2.685  16.249  0.6328 -0.2566  2.7915
11955TIP3   OH257355   1.878   5.973   5.023  0.2157  0.2642 -0.3440
11955TIP3    H157356   1.825   5.933   5.092 -0.9855  1.2443 -0.6874
11955TIP3    H257357   1.900   6.060   5.058  2.7024 -0.5777  0.3507
11956TIP3   OH257358   5.394   4.889  16.937 -0.5751 -0.3268  0.0613
11956TIP3    H157359   5.311   4.912  16.980 -0.2916  1.2660 -0.2344
11956TIP3    H257360   5.368   4.860  16.850 -0.7828  0.6088 -0.1886
11957TIP3   OH257361   6.184   6.143   5.002  0.0499 -0.1377  0.4402
11957TIP3    H157362   6.216   6.230   4.978  2.6986 -1.1965 -0.1142
11957TIP3    H257363   6.197   6.091   4.923 -2.2783 -0.8748  0.5015
11958TIP3   OH257364   1.788   5.481   5.415  0.1407 -0.1693 -0.0202
11958TIP3    H157365   1.873   5.455   5.450 -0.0520 -2.2462 -1.0312
11958TIP3    H257366   1.737   5.399   5.411 -1.0623  0.6286 -1.7161
11959TIP3   OH257367   3.552   2.874  11.115  0.9151 -0.0242 -0.0333
11959TIP3    H157368   3.513   2.815  11.050  1.6839 -0.0309 -0.5064
11959TIP3    H257369   3.646   2.866  11.100  1.1107 -0.1844  1.2298
11960TIP3   OH257370   2.967   6.691   0.409 -0.4608  0.0080 -0.3982
11960TIP3    H157371   2.943   6.627   0.476 -0.9858  0.7596  0.1363
11960TIP3    H257372   3.040   6.739   0.446 -0.3902  0.0505 -0.5916
11961TIP3   OH257373   6.720   5.791  12.258  0.0064  0.0342 -0.5326
11961TIP3    H157374   6.681   5.721  12.205  0.6248  0.7195 -1.9127
11961TIP3    H257375   6.814   5.783  12.241  0.1251  0.8596 -0.2562
11962TIP3   OH257376   4.317   1.372  14.456 -0.1142 -0.0336 -0.2595
11962TIP3    H157377   4.242   1.358  14.398 -0.9562 -1.1161  1.0589
11962TIP3    H257378   4.390   1.327  14.413 -0.3231  0.6399 -1.3257
11963TIP3   OH257379   3.105   5.283  11.671  0.0168  0.3721  0.0611
11963TIP3    H157380   3.058   5.253  11.593  0.3317 -0.1555  0.0658
11963TIP3    H257381   3.116   5.203  11.724 -1.8016  1.0380  1.5147
11964TIP3   OH257382   1.930   3.703  15.502 -0.0744 -0.1709 -0.1064
11964TIP3    H157383   1.892   3.639  15.443 -1.0217 -0.6532  1.0113
11964TIP3    H257384   1.968   3.651  15.573  0.2818  0.4417  0.1569
11965TIP3   OH257385   5.293   3.988   1.554  0.0656 -0.1985  0.3216
11965TIP3    H157386   5.253   3.917   1.504  0.5870  0.7433 -1.4757
11965TIP3    H257387   5.243   3.991   1.636  0.1458 -2.7222  0.5101
11966TIP3   OH257388   5.018   3.195   3.657  0.0811 -0.1756  0.3385
11966TIP3    H157389   4.944   3.143   3.625  0.6385 -0.4090 -0.5995
11966TIP3    H257390   5.095   3.156   3.614  0.7899 -0.1897  1.6131
11967TIP3   OH257391   4.116   2.566   0.891  0.7235  0.3822 -0.0670
11967TIP3    H157392   4.064   2.594   0.967  0.9077  2.4688 -0.6865
11967TIP3    H257393   4.070   2.489   0.858 -0.6054  0.7696  0.8439
11968TIP3   OH257394   1.990   4.963  14.158 -0.3843  0.1667  0.6448
11968TIP3    H157395   2.071   4.926  14.125 -0.5839  0.3107 -0.0055
11968TIP3    H257396   1.946   4.891  14.202  0.7771  0.4285  2.2926
11969TIP3   OH257397   0.858   2.499  10.906  0.5215  0.3294 -0.7594
11969TIP3    H157398   0.877   2.407  10.927  0.2073  0.5320  0.4815
11969TIP3    H257399   0.779   2.519  10.957  0.5563  1.2719 -1.0717
11970TIP3   OH257400   4.188   2.301  14.767 -0.1850  0.0454 -0.2228
11970TIP3    H157401   4.104   2.328  14.730 -0.2363  0.2021  0.0116
11970TIP3    H257402   4.168   2.275  14.857  0.0232  0.1143 -0.1555
11971TIP3   OH257403   3.087   0.619  11.416 -0.0824 -0.6583  0.3278
11971TIP3    H157404   3.129   0.626  11.330  0.3022 -3.1879  0.2539
11971TIP3    H257405   3.007   0.569  11.399 -0.6133 -0.1416  1.2704
11972TIP3   OH257406   2.678   0.020   1.205 -0.2011 -0.1710  0.3593
11972TIP3    H157407   2.764   0.055   1.228 -0.8385 -0.3592  3.2814
11972TIP3    H257408   2.683  -0.073   1.225 -0.4868 -0.5461 -1.2967
11973TIP3   OH257409   5.780   1.620   1.014  0.5557 -0.2608 -0.1689
11973TIP3    H157410   5.741   1.551   0.961 -1.1425 -0.7478  1.6481
11973TIP3    H257411   5.836   1.668   0.954  0.6101 -2.3167 -1.8005
11974TIP3   OH257412   4.264   4.084  12.423 -0.7674 -0.4330 -0.0621
11974TIP3    H157413   4.351   4.094  12.461 -0.2255 -0.0006 -1.3882
11974TIP3    H257414   4.205   4.090  12.498  0.4103 -2.5541  1.1019
11975TIP3   OH257415   3.830   4.442  12.891  0.4804  0.3381  0.2536
11975TIP3    H157416   3.923   4.418  12.889  0.7327  1.1449  1.6590
11975TIP3    H257417   3.823   4.513  12.826  0.3281 -1.3838 -1.6753
11976TIP3   OH257418   3.984   1.221  12.005 -0.0580  0.2027 -0.1697
11976TIP3    H157419   3.906   1.210  12.059 -0.7326  0.6080 -1.0512
11976TIP3    H257420   3.993   1.137  11.960 -0.2257  0.2974 -0.3801
11977TIP3   OH257421   5.902   0.520   4.046  0.1213  0.1428  0.7011
11977TIP3    H157422   5.847   0.442   4.050 -1.0403  0.9686  1.5240
11977TIP3    H257423   5.991   0.489   4.064 -0.2266 -1.0829  0.3053
11978TIP3   OH257424   4.972   4.660  16.043  0.2259  0.0243  0.4980
11978TIP3    H157425   4.897   4.719  16.050 -0.0247 -0.1167 -0.8959
11978TIP3    H257426   4.934   4.573  16.034  0.5714 -0.1290  0.5087
11979TIP3   OH257427   3.789   6.132   0.798 -0.6038 -0.2509 -0.3508
11979TIP3    H157428   3.714   6.139   0.739 -0.4298 -1.8391 -0.7993
11979TIP3    H257429   3.750   6.132   0.885 -0.9941  0.5191 -0.5198
11980TIP3   OH257430   1.516   0.281  12.561 -0.1890  0.0197 -0.4049
11980TIP3    H157431   1.462   0.277  12.483 -0.8943  0.5194  0.0491
11980TIP3    H257432   1.604   0.303  12.529 -0.6557  1.0672 -0.9769
11981TIP3   OH257433   3.914   6.318   6.034 -0.0321  0.3702  0.0536
11981TIP3    H157434   4.001   6.302   6.070  1.0351 -0.5130 -2.8404
11981TIP3    H257435   3.890   6.236   5.991 -2.3011  0.6132  0.7932
11982TIP3   OH257436   4.231   1.188   5.535  0.6005 -0.1297 -0.3283
11982TIP3    H157437   4.201   1.126   5.601 -0.9155  0.1757 -0.7201
11982TIP3    H257438   4.223   1.141   5.452  0.9941  0.0351 -0.4618
11983TIP3   OH257439   4.561   0.006  13.807  0.1653  0.1937  0.5894
11983TIP3    H157440   4.490   0.067  13.787  0.2445  0.0891 -0.0172
11983TIP3    H257441   4.641   0.053  13.785  0.1274 -0.9938 -2.2629
11984TIP3   OH257442   6.636   0.682   1.657  0.3721 -0.0421 -0.1678
11984TIP3    H157443   6.574   0.629   1.707  1.8408  0.1294  1.9113
11984TIP3    H257444   6.589   0.764   1.641 -0.6627 -0.6659 -0.3645
11985TIP3   OH257445   3.592   3.810   2.520 -0.7127 -0.3754  0.4997
11985TIP3    H157446   3.589   3.895   2.477 -0.6611 -0.0438  1.1563
11985TIP3    H257447   3.528   3.757   2.472 -0.8300  0.0644  0.1670
11986TIP3   OH257448   1.893   5.760  16.006 -0.2204  0.3214 -0.4348
11986TIP3    H157449   1.915   5.793  15.919 -0.8312  0.5924 -0.4873
11986TIP3    H257450   1.811   5.803  16.028  0.8462  1.6630  1.0498
11987TIP3   OH257451   0.018   6.364  14.682 -0.2571  0.3145  0.9063
11987TIP3    H157452  -0.003   6.379  14.774 -1.8220 -0.1110  0.6288
11987TIP3    H257453  -0.043   6.419  14.633  0.7737  0.7912  0.1179
11988TIP3   OH257454   3.385   3.859  12.161 -0.3778  0.1537 -0.2502
11988TIP3    H157455   3.437   3.906  12.226 -0.0267  0.5786 -0.8287
11988TIP3    H257456   3.420   3.770  12.162  0.1066  0.3396 -0.3590
11989TIP3   OH257457   3.048   1.068  12.114  0.5173 -0.0397 -0.1919
11989TIP3    H157458   3.057   1.033  12.025  0.6921 -0.3118 -0.0659
11989TIP3    H257459   3.058   0.991  12.171 -0.2469  0.0263  0.0340
11990TIP3   OH257460   2.125   6.710   3.331  0.0081  0.4314  0.1819
11990TIP3    H157461   2.035   6.683   3.351 -0.0860  1.1314  0.7075
11990TIP3    H257462   2.173   6.696   3.412  0.1949  0.8386  0.1427
11991TIP3   OH257463   3.895   3.368   2.885  0.4961  0.0350  0.5197
11991TIP3    H157464   3.953   3.295   2.907  0.4598 -0.2831 -0.4338
11991TIP3    H257465   3.907   3.431   2.957  0.7128 -0.7922  1.2150
11992TIP3   OH257466   1.722   2.000  14.037 -0.2307 -0.2010 -0.3210
11992TIP3    H157467   1.744   2.050  14.116  2.7098  1.3756 -2.0350
11992TIP3    H257468   1.806   1.974  14.001 -1.5254 -1.0759 -2.8247
11993TIP3   OH257469   4.745   6.501   1.514  0.1170 -0.3319 -0.3834
11993TIP3    H157470   4.688   6.427   1.493 -1.3762  1.1810 -1.7864
11993TIP3    H257471   4.691   6.557   1.570  1.0561 -0.0361  0.2272
11994TIP3   OH257472   0.149   6.208  11.422 -0.2701  0.1795 -0.2988
11994TIP3    H157473   0.083   6.237  11.359  0.4486 -1.0640 -1.6571
11994TIP3    H257474   0.228   6.255  11.396  0.6706 -2.2128 -1.9455
11995TIP3   OH257475   6.343   4.288  13.283 -0.8119 -0.3115  0.1552
11995TIP3    H157476   6.390   4.324  13.358 -1.9646  0.6962  0.4249
11995TIP3    H257477   6.295   4.363  13.248 -2.2595 -1.3162 -0.0443
11996TIP3   OH257478   1.451   4.294   6.405  0.0065  0.2273 -0.0520
11996TIP3    H157479   1.361   4.268   6.388  0.3310 -0.7050 -0.4061
11996TIP3    H257480   1.504   4.229   6.358  0.8652  0.3684  0.7019
11997TIP3   OH257481   1.404   6.742   0.001 -0.1649 -0.0659  0.3971
11997TIP3    H157482   1.348   6.694   0.062  1.1265 -2.5130 -0.2726
11997TIP3    H257483   1.367   6.725  -0.085 -0.1307  0.7835  0.2086
11998TIP3   OH257484   0.939   1.604  12.116 -0.1198 -0.4430 -0.0215
11998TIP3    H157485   0.922   1.568  12.029  0.2273  0.4115 -0.4510
11998TIP3    H257486   0.938   1.528  12.174  0.0789 -1.0758 -0.8302
11999TIP3   OH257487   5.103   5.234   2.702  0.2123  0.2122  0.4194
11999TIP3    H157488   5.009   5.219   2.709  0.0902  1.3252  1.3587
11999TIP3    H257489   5.120   5.237   2.608 -0.8192  0.7022  0.2360
12000TIP3   OH257490   0.364   5.940  13.309  0.3962  0.1488 -0.0813
12000TIP3    H157491   0.323   5.962  13.392 -0.1889  1.6638 -0.7455
12000TIP3    H257492   0.315   5.864  13.277 -0.4870  0.6063  0.1701
12001TIP3   OH257493   0.296   2.590  12.454 -0.0265  0.2349  0.1096
12001TIP3    H157494   0.278   2.538  12.533 -1.6749  0.6955  0.0644
12001TIP3    H257495   0.285   2.528  12.382  0.6429  0.0120  0.2019
12002TIP3   OH257496   3.923   0.307  16.308 -0.0965  0.6709 -0.2465
12002TIP3    H157497   3.951   0.276  16.222 -1.1855  0.2612 -0.4583
12002TIP3    H257498   3.930   0.230  16.365  2.9881  1.5102  0.6342
12003TIP3   OH257499   3.516   5.812  13.225 -0.2771 -0.0746 -0.2333
12003TIP3    H157500   3.537   5.734  13.277 -0.0935  0.3472  0.3197
12003TIP3    H257501   3.471   5.870  13.286 -2.1873 -0.5539 -1.1447
12004TIP3   OH257502   0.390   2.879   3.720 -0.0351 -0.5195 -0.1124
12004TIP3    H157503   0.396   2.917   3.807  0.0504  1.2019 -0.8415
12004TIP3    H257504   0.416   2.951   3.661  2.3949 -2.3628 -1.3913
12005TIP3   OH257505   0.275   5.524  14.225 -0.4504 -0.3467  0.4134
12005TIP3    H157506   0.247   5.592  14.163  0.6248 -0.5361 -0.2964
12005TIP3    H257507   0.370   5.524  14.219 -0.3906 -1.0952  1.2994
12006TIP3   OH257508   4.155   0.853  11.299  0.1830  0.4463 -0.2788
12006TIP3    H157509   4.136   0.797  11.375  1.3214 -1.8833 -1.6720
12006TIP3    H257510   4.068   0.876  11.265 -0.2941 -1.0821 -0.1298
12007TIP3   OH257511   4.625   1.973   1.544 -0.8583  0.6031 -0.5210
12007TIP3    H157512   4.693   1.926   1.592 -0.4529 -1.1675 -2.7466
12007TIP3    H257513   4.672   2.043   1.498 -0.4630 -0.7757 -2.2596
12008TIP3   OH257514   6.503   1.559   2.817  0.1219  0.0613 -0.1098
12008TIP3    H157515   6.487   1.538   2.725  1.1384 -0.9781 -0.0654
12008TIP3    H257516   6.590   1.525   2.834 -0.8496 -1.6025  1.7630
12009TIP3   OH257517   0.485   6.016   2.482 -0.3917  0.6915  0.6362
12009TIP3    H157518   0.492   5.967   2.564 -3.2215  2.9147  2.3085
12009TIP3    H257519   0.401   5.990   2.445  0.1711  0.8688 -0.8210
12010TIP3   OH257520   2.456   4.637  16.297 -0.0917  0.2242  0.0604
12010TIP3    H157521   2.412   4.717  16.327 -1.4285  0.3922 -2.2256
12010TIP3    H257522   2.503   4.663  16.218 -0.4973 -1.2290 -0.6812
12011TIP3   OH257523   6.155   6.418   5.161 -0.4284 -0.2599  0.9505
12011TIP3    H157524   6.097   6.493   5.164  0.3368  0.4553 -1.0234
12011TIP3    H257525   6.241   6.453   5.184 -0.4518 -0.9651  2.1468
12012TIP3   OH257526   3.019   3.794  16.505  0.3598 -0.2220  0.0892
12012TIP3    H157527   2.944   3.847  16.532  0.9742  0.8007 -0.1896
12012TIP3    H257528   3.073   3.786  16.584 -0.3635 -1.5208  0.4675
12013TIP3   OH257529   2.725   5.702   1.725 -0.4901  0.2365 -0.3783
12013TIP3    H157530   2.699   5.789   1.695  0.2271  0.5749 -0.0226
12013TIP3    H257531   2.656   5.676   1.786 -0.3728  0.8315  0.0114
12014TIP3   OH257532   5.615   3.750   1.280 -0.2443 -0.2379 -0.5703
12014TIP3    H157533   5.590   3.668   1.237  0.0559 -0.3911 -0.4533
12014TIP3    H257534   5.705   3.736   1.309 -0.5266 -0.2387  0.3431
12015TIP3   OH257535   6.701   6.426  14.917  0.2967 -0.0880  0.2338
12015TIP3    H157536   6.674   6.518  14.917  0.5323  0.0112 -1.7169
12015TIP3    H257537   6.621   6.377  14.931 -0.0313  0.3939  0.0556
12016TIP3   OH257538   4.382   3.656   1.517  0.1312 -0.2970  0.4772
12016TIP3    H157539   4.355   3.564   1.515 -0.6873 -0.0454 -0.5538
12016TIP3    H257540   4.301   3.704   1.534 -0.1597  0.4748 -2.7287
12017TIP3   OH257541   2.433   4.215   3.581 -0.2753 -0.1193  0.0179
12017TIP3    H157542   2.366   4.243   3.643 -0.4201  1.0853 -0.6568
12017TIP3    H257543   2.456   4.295   3.533  1.8722 -0.4373  0.4529
12018TIP3   OH257544   2.437   4.316   0.680  0.4930  0.1334 -0.1672
12018TIP3    H157545   2.451   4.232   0.636 -0.6147  0.0761 -0.4301
12018TIP3    H257546   2.469   4.382   0.618 -0.7833  0.0357 -0.9390
12019TIP3   OH257547   3.757   2.756   4.854  0.2786  0.8201 -0.0802
12019TIP3    H157548   3.824   2.809   4.897  0.3701 -0.2890  1.1631
12019TIP3    H257549   3.678   2.809   4.858  0.8059  1.6520 -0.5342
12020TIP3   OH257550   1.659   1.397  14.302  0.1998 -0.3292  0.0667
12020TIP3    H157551   1.695   1.353  14.379  0.1008 -0.6081 -0.0459
12020TIP3    H257552   1.699   1.352  14.228 -1.4864 -1.6135 -0.0931
12021TIP3   OH257553   6.229   4.997  13.138 -0.1357 -0.4138 -0.1740
12021TIP3    H157554   6.143   5.006  13.097  0.0604 -0.0354 -0.5064
12021TIP3    H257555   6.289   4.984  13.065  0.1632 -0.1328  0.0171
12022TIP3   OH257556   1.813   0.967   2.916 -0.1889  0.0317  0.2707
12022TIP3    H157557   1.808   0.999   3.005  0.7329  1.7736 -0.2794
12022TIP3    H257558   1.812   1.046   2.862 -1.3270 -1.0168 -1.2916
12023TIP3   OH257559   1.226   0.022  14.944 -0.2638 -0.4454 -0.2395
12023TIP3    H157560   1.155   0.085  14.955 -1.1244 -1.6669  1.2349
12023TIP3    H257561   1.268   0.048  14.862  1.9070  4.5040  2.2581
12024TIP3   OH257562   2.304   2.281   5.490 -0.2925  0.1704  0.1994
12024TIP3    H157563   2.298   2.191   5.459  2.3697  0.2158 -0.5465
12024TIP3    H257564   2.267   2.279   5.578 -1.8287 -1.2995 -0.4613
12025TIP3   OH257565   1.343   1.085  12.673 -0.2631  0.1496 -0.3681
12025TIP3    H157566   1.301   1.038  12.602  1.4308  0.6330 -1.7374
12025TIP3    H257567   1.406   1.143  12.630 -0.0689  1.3495  1.4511
12026TIP3   OH257568   2.558   4.029   1.756 -0.2017  0.4508 -0.0292
12026TIP3    H157569   2.502   4.096   1.717 -0.0202  1.1643  0.9291
12026TIP3    H257570   2.519   4.013   1.842 -0.5526 -1.0566 -0.4469
12027TIP3   OH257571   4.019   2.355  12.770  0.0980 -0.1811  0.0346
12027TIP3    H157572   3.953   2.301  12.728 -0.5366 -0.0178  0.8033
12027TIP3    H257573   4.018   2.437  12.720  0.2555 -0.4582 -0.4232
12028TIP3   OH257574   2.798   1.949  14.270  0.2005  0.5800 -0.3878
12028TIP3    H157575   2.851   1.942  14.190  0.4167  0.5717 -0.2459
12028TIP3    H257576   2.753   2.033  14.261  0.6621  0.8449 -0.2581
12029TIP3   OH257577   5.945   6.183   2.591 -0.3798 -0.3407  0.1214
12029TIP3    H157578   5.926   6.277   2.597 -1.2739 -0.5245  0.3367
12029TIP3    H257579   6.006   6.167   2.663  1.8404  0.5531 -1.5205
12030TIP3   OH257580   5.238   1.633   0.214 -0.0104  0.1521  0.0656
12030TIP3    H157581   5.181   1.632   0.291  0.4626 -0.2608  0.4057
12030TIP3    H257582   5.323   1.603   0.246 -0.4642 -2.6135 -1.1241
12031TIP3   OH257583   5.659   6.532  17.205 -0.0147  0.5332  0.2337
12031TIP3    H157584   5.675   6.553  17.297 -0.7621 -0.4996  0.6028
12031TIP3    H257585   5.604   6.454  17.207 -0.9202  1.1237 -1.0766
12032TIP3   OH257586   4.835   5.408  12.392  0.1691  0.4375  0.0442
12032TIP3    H157587   4.927   5.381  12.395 -0.1787 -0.7389  0.3753
12032TIP3    H257588   4.787   5.326  12.382 -0.7185  1.2493 -2.8504
12033TIP3   OH257589   4.203   3.389  17.169  0.0502 -0.2422  0.7828
12033TIP3    H157590   4.208   3.328  17.095 -1.9973  2.3940 -1.6463
12033TIP3    H257591   4.286   3.436  17.167  0.9052 -1.6818  1.5731
12034TIP3   OH257592   5.629   6.188  11.494  0.6268  0.4291 -0.1478
12034TIP3    H157593   5.557   6.246  11.519  2.8302  3.4483 -0.5269
12034TIP3    H257594   5.640   6.201  11.400  0.7816 -1.0629 -0.3528
12035TIP3   OH257595   3.439   3.162  14.864 -0.0382  0.2235 -0.2029
12035TIP3    H157596   3.452   3.104  14.938 -0.0372  1.0431  0.4464
12035TIP3    H257597   3.345   3.178  14.861  0.0252  0.6171 -0.0561
12036TIP3   OH257598   6.714   1.499   4.969 -0.4913  0.6917 -0.4031
12036TIP3    H157599   6.719   1.474   5.062 -2.0714  1.2768 -0.1436
12036TIP3    H257600   6.799   1.540   4.951 -0.7402  2.0354  1.2421
12037TIP3   OH257601   4.348   2.042   3.806 -0.1656  0.4067 -0.0371
12037TIP3    H157602   4.301   1.959   3.794  0.1373 -0.0203  1.6093
12037TIP3    H257603   4.435   2.026   3.770  0.5940 -0.7127  2.2010
12038TIP3   OH257604   0.714   2.656  13.610  0.0643 -0.1371 -0.2272
12038TIP3    H157605   0.738   2.745  13.581 -1.4858  0.3715  0.0041
12038TIP3    H257606   0.619   2.659  13.617  0.1862 -1.1149  2.1536
12039TIP3   OH257607   1.129   3.911  14.328  0.4196  0.7061 -0.0338
12039TIP3    H157608   1.191   3.886  14.260 -0.0291  2.0196 -0.9453
12039TIP3    H257609   1.165   3.992  14.365  0.5869  0.0846  1.2025
12040TIP3   OH257610   2.585   3.727  15.026  0.0391 -0.6282  0.4862
12040TIP3    H157611   2.666   3.736  14.976  0.3066 -0.9723  0.8524
12040TIP3    H257612   2.570   3.814  15.062  0.2811 -0.5770  0.4676
12041TIP3   OH257613   0.360   3.965  13.152 -0.1995 -0.5097  0.2744
12041TIP3    H157614   0.397   4.022  13.219 -3.3701  1.8285  0.1708
12041TIP3    H257615   0.294   3.914  13.197  0.0940 -1.4737 -0.3766
12042TIP3   OH257616   1.574   4.151  13.437 -0.0456  0.4123 -0.6329
12042TIP3    H157617   1.503   4.087  13.443  0.9860 -0.6498  0.7252
12042TIP3    H257618   1.578   4.190  13.525  0.5889  0.9524 -0.9040
12043TIP3   OH257619   3.671   6.628  12.186 -0.4698 -0.0670  0.1472
12043TIP3    H157620   3.651   6.554  12.244  0.6834  0.4296  1.2044
12043TIP3    H257621   3.699   6.698  12.246 -0.4328  0.8534 -0.9320
12044TIP3   OH257622   1.842   6.392  10.831 -0.5197  0.2325  0.1349
12044TIP3    H157623   1.796   6.308  10.820  2.0490 -1.6636  3.1074
12044TIP3    H257624   1.789   6.440  10.894 -0.3642 -0.4221  0.7683
12045TIP3   OH257625   0.118   1.911   3.569 -0.3561 -0.2572  0.1092
12045TIP3    H157626   0.105   1.827   3.526 -1.4441 -0.7817  1.4273
12045TIP3    H257627   0.210   1.912   3.593 -0.6194 -1.6437  1.2399
12046TIP3   OH257628   3.106   6.003  13.399 -0.0368  0.1448 -0.2323
12046TIP3    H157629   3.072   6.073  13.343  0.0621  0.1279 -0.3138
12046TIP3    H257630   3.052   5.927  13.378  1.5597 -0.5220 -2.0929
12047TIP3   OH257631   3.271   5.238  14.045  0.1419  1.0898  0.0819
12047TIP3    H157632   3.347   5.235  14.103  0.3388  4.2870  0.0656
12047TIP3    H257633   3.304   5.279  13.965 -0.8212 -0.5901 -1.1885
12048TIP3   OH257634   4.419   1.280  14.752  0.0814  0.6841  0.6691
12048TIP3    H157635   4.418   1.196  14.707 -0.6051  0.1465  1.6482
12048TIP3    H257636   4.476   1.335  14.700  0.1571 -0.2487 -0.2504
12049TIP3   OH257637   6.484   5.084  14.492  0.1860  0.3081 -0.2875
12049TIP3    H157638   6.526   5.029  14.425 -0.9727 -0.3489 -0.4836
12049TIP3    H257639   6.537   5.163  14.493  0.9366 -0.1589 -1.1375
12050TIP3   OH257640   6.539   2.276  15.882  0.4920  0.0154 -0.5043
12050TIP3    H157641   6.581   2.247  15.963  1.5742  1.0591 -0.6727
12050TIP3    H257642   6.606   2.267  15.815  0.8957  2.7821 -0.5638
12051TIP3   OH257643   2.816   2.905  16.729  0.4268  0.0113 -0.0092
12051TIP3    H157644   2.899   2.930  16.688  0.4138  2.6135  1.4272
12051TIP3    H257645   2.770   2.988  16.744 -2.1993 -1.3393 -0.2542
12052TIP3   OH257646   3.380   4.676   4.860 -0.1832  0.1559  0.1361
12052TIP3    H157647   3.315   4.614   4.828 -0.5211 -0.0735  1.2418
12052TIP3    H257648   3.331   4.735   4.917  0.7013 -0.4813  1.5755
12053TIP3   OH257649   6.247   5.648   6.668 -0.3628 -0.1829  0.7984
12053TIP3    H157650   6.255   5.685   6.580  2.6228 -0.4933  0.8875
12053TIP3    H257651   6.279   5.559   6.660  3.5966  0.9383  2.9181
12054TIP3   OH257652   1.071   2.210   2.717 -0.2086  0.1795 -0.4409
12054TIP3    H157653   1.159   2.240   2.690 -0.4427  1.1626 -0.1179
12054TIP3    H257654   1.084   2.175   2.805 -0.2710  0.9790 -0.1096
12055TIP3   OH257655   5.531   3.265   6.122  0.1625 -0.2014  0.5635
12055TIP3    H157656   5.553   3.344   6.173  2.2219  0.6305 -1.5539
12055TIP3    H257657   5.594   3.199   6.152 -0.3128 -0.4970  0.9320
12056TIP3   OH257658   0.151   5.951   5.144  0.2067  0.2556  0.0188
12056TIP3    H157659   0.155   5.869   5.194  0.3344 -0.4662 -1.1570
12056TIP3    H257660   0.139   5.923   5.053 -2.4281  1.5917 -0.1092
12057TIP3   OH257661   3.965   6.047  12.330 -0.2153  0.0677 -0.4602
12057TIP3    H157662   4.022   5.998  12.389 -0.6449  2.9754  2.4540
12057TIP3    H257663   3.884   5.997  12.327  0.0175 -0.3945  0.9498
12058TIP3   OH257664   1.343   4.230   1.926  0.4430 -0.1449  0.2956
12058TIP3    H157665   1.394   4.270   1.996 -0.2338 -1.5503  1.6430
12058TIP3    H257666   1.407   4.187   1.870  0.7541 -2.6507  2.4618
12059TIP3   OH257667   4.776   2.386   0.053 -0.0549  0.9077  0.5375
12059TIP3    H157668   4.771   2.299   0.093 -0.4591  1.3988  1.5741
12059TIP3    H257669   4.752   2.446   0.124 -1.3577  1.7580 -0.5875
12060TIP3   OH257670   3.593   1.457   2.561  0.2314  0.0514 -1.0319
12060TIP3    H157671   3.649   1.508   2.620  1.2828 -1.0448 -1.0785
12060TIP3    H257672   3.643   1.378   2.542  0.1391  0.6384 -3.8796
12061TIP3   OH257673   2.043   0.810   1.523  0.2721  0.2301  0.0014
12061TIP3    H157674   2.110   0.766   1.471 -1.9258 -0.2352 -2.5731
12061TIP3    H257675   2.045   0.901   1.491 -0.5509  0.1253 -0.3596
12062TIP3   OH257676   3.028   6.809  15.396  0.0292 -0.6398 -0.4396
12062TIP3    H157677   2.991   6.898  15.397  0.1082 -0.6159  0.4260
12062TIP3    H257678   2.980   6.762  15.464  2.0063 -0.4373  1.1437
12063TIP3   OH257679   1.583   1.190  13.234  0.4370  0.2393  0.0038
12063TIP3    H157680   1.613   1.190  13.143  2.7273  0.6328  0.7255
12063TIP3    H257681   1.635   1.121  13.276 -0.0464  0.5929  1.1880
12064TIP3   OH257682   5.444   0.235   3.621  0.3001  0.2757 -0.0139
12064TIP3    H157683   5.349   0.246   3.613  0.1510  0.3330  1.5825
12064TIP3    H257684   5.467   0.175   3.551 -0.8809  0.4738 -0.5861
12065TIP3   OH257685   3.343   3.374   0.597 -0.0739 -0.4864 -0.0207
12065TIP3    H157686   3.415   3.406   0.542  0.6058 -1.1107  0.4935
12065TIP3    H257687   3.320   3.449   0.652  2.0592 -1.0672  1.7479
12066TIP3   OH257688   5.300   3.092  16.798 -0.4863  0.0905 -0.7421
12066TIP3    H157689   5.230   3.141  16.755 -0.9665  0.7481  0.7762
12066TIP3    H257690   5.259   3.054  16.876  0.6204 -0.2528 -0.3201
12067TIP3   OH257691   0.475   4.361   0.610 -0.0920  0.0449 -0.1104
12067TIP3    H157692   0.438   4.400   0.532  1.7669  3.4201  0.6037
12067TIP3    H257693   0.560   4.326   0.582 -1.3042 -2.7475 -0.5142
12068TIP3   OH257694   5.091   3.834  13.120  0.4540  0.0913  0.2947
12068TIP3    H157695   5.123   3.857  13.033  0.3203  0.4369  0.3401
12068TIP3    H257696   5.171   3.819  13.171  0.5327  0.0766  0.1654
12069TIP3   OH257697   6.697   4.030   4.575  0.2059 -0.3790  0.0020
12069TIP3    H157698   6.787   4.051   4.602  0.8617 -2.6227 -0.3704
12069TIP3    H257699   6.701   4.027   4.480 -0.3712 -0.0908 -0.0323
12070TIP3   OH257700   5.321   1.405  15.756 -0.3993 -0.1317  0.0695
12070TIP3    H157701   5.345   1.360  15.836 -1.6828  1.5291  1.4403
12070TIP3    H257702   5.264   1.344  15.709 -0.8623 -0.5478  1.1554
12071TIP3   OH257703   3.399   5.283  15.693  0.4044  0.1783  0.3809
12071TIP3    H157704   3.478   5.232  15.708  2.4552  3.4159  1.0325
12071TIP3    H257705   3.374   5.316  15.779 -0.7734  0.4374 -0.0373
12072TIP3   OH257706   1.706   5.471  12.815 -0.3871  0.5194 -0.6229
12072TIP3    H157707   1.779   5.424  12.857  1.2802  3.2125 -0.3876
12072TIP3    H257708   1.709   5.442  12.724  0.5214  0.0545 -0.4603
12073TIP3   OH257709   6.563   1.631   5.405  0.7738 -0.1644 -0.4350
12073TIP3    H157710   6.511   1.635   5.485 -2.1001 -0.4616 -2.2276
12073TIP3    H257711   6.577   1.723   5.381 -0.0438 -0.0834 -0.6255
12074TIP3   OH257712   6.766   3.270   4.032  0.5030  0.7183  0.2711
12074TIP3    H157713   6.775   3.177   4.014  0.1337  1.1073 -1.9560
12074TIP3    H257714   6.852   3.296   4.067  1.1928 -0.0540 -0.8430
12075TIP3   OH257715   3.021   3.621   1.024 -0.4476  0.3535 -0.7672
12075TIP3    H157716   2.946   3.576   0.984 -0.2421 -0.7596  0.0765
12075TIP3    H257717   3.093   3.559   1.017 -0.1352  0.5753  0.3477
12076TIP3   OH257718   1.712   2.914   6.683  0.5075 -0.2855  0.2006
12076TIP3    H157719   1.745   2.935   6.596 -2.0780  1.9287 -0.3041
12076TIP3    H257720   1.677   2.825   6.674 -0.6124  0.2839 -1.3008
12077TIP3   OH257721   6.540   4.510  11.952  0.2063  0.1611  0.4158
12077TIP3    H157722   6.612   4.510  12.015  0.5883  0.9704 -0.0174
12077TIP3    H257723   6.474   4.567  11.991 -0.5354 -1.1986  1.1816
12078TIP3   OH257724   5.854   3.174   4.809  0.2216  0.6030  0.1104
12078TIP3    H157725   5.923   3.159   4.744 -0.5741 -1.2143 -0.3448
12078TIP3    H257726   5.895   3.152   4.893  0.2308 -0.3621 -0.1456
12079TIP3   OH257727   4.515   4.832   1.371  0.0548  0.2555  0.3308
12079TIP3    H157728   4.532   4.918   1.410 -1.5371  0.9038 -0.3293
12079TIP3    H257729   4.538   4.844   1.278  0.0275 -0.0909  0.2808
12080TIP3   OH257730   3.018   4.224  13.031 -0.4286 -0.6145  0.4115
12080TIP3    H157731   2.961   4.151  13.053 -2.3418  0.2565 -1.4615
12080TIP3    H257732   3.067   4.194  12.954  0.3411 -0.6973  0.9273
12081TIP3   OH257733   2.727   5.082   2.116  0.2536  0.6974 -0.5848
12081TIP3    H157734   2.674   5.154   2.150  0.3197  0.9503 -1.0191
12081TIP3    H257735   2.770   5.045   2.194 -0.1744  0.8038 -0.3003
12082TIP3   OH257736   0.050   2.276  14.604  0.4184 -0.3527  0.0965
12082TIP3    H157737  -0.001   2.308  14.678  0.5949 -0.6532  0.3495
12082TIP3    H257738   0.058   2.182  14.619  0.1179 -0.4776 -0.5118
12083TIP3   OH257739   1.252   0.413   4.506  0.1297 -0.0371  0.0647
12083TIP3    H157740   1.297   0.435   4.587 -1.9875  1.2403  0.9480
12083TIP3    H257741   1.321   0.384   4.446  2.0659  1.7303  1.4017
12084TIP3   OH257742   2.558   3.417  15.868  0.0392 -0.1175  0.3073
12084TIP3    H157743   2.609   3.370  15.934  1.0147 -0.7958 -0.9070
12084TIP3    H257744   2.609   3.408  15.787 -0.9840  0.9502 -0.4797
12085TIP3   OH257745   0.438   4.985   2.608 -0.1461  0.1328  0.1539
12085TIP3    H157746   0.378   4.986   2.683  0.8627  2.6077  0.9906
12085TIP3    H257747   0.429   5.072   2.569  0.1969 -0.7379 -1.9190
12086TIP3   OH257748   2.891   1.409  16.111  0.1171 -0.7258 -0.9027
12086TIP3    H157749   2.811   1.428  16.160  0.1342 -2.2178 -0.2586
12086TIP3    H257750   2.917   1.493  16.074 -1.3856 -0.0932 -0.5773
12087TIP3   OH257751   1.008   2.904  11.610  0.4443 -0.3292  0.7315
12087TIP3    H157752   0.936   2.966  11.622  1.2721  0.8670 -0.3657
12087TIP3    H257753   1.084   2.949  11.648  1.1406 -0.4728 -0.4783
12088TIP3   OH257754   3.294   4.305  13.724 -0.2376 -0.6392  0.2691
12088TIP3    H157755   3.378   4.312  13.680 -0.9663  0.7503 -0.9465
12088TIP3    H257756   3.315   4.305  13.817  1.1024 -0.3999 -0.0271
12089TIP3   OH257757   5.410   5.921   1.027 -0.5086  0.4210 -0.8847
12089TIP3    H157758   5.391   5.980   0.954 -2.1088 -0.2884 -1.0552
12089TIP3    H257759   5.506   5.914   1.028 -0.4536  0.8144 -2.6063
12090TIP3   OH257760   4.077   3.553   2.648 -0.3708 -0.2731 -1.0031
12090TIP3    H157761   4.002   3.551   2.589 -0.2756  1.2786 -1.1804
12090TIP3    H257762   4.047   3.604   2.723 -1.2902 -4.1403  1.4166
12091TIP3   OH257763   4.827   0.170   1.781  0.4299  0.3918 -0.3179
12091TIP3    H157764   4.839   0.106   1.710 -0.5908 -1.2080  0.9123
12091TIP3    H257765   4.863   0.126   1.858 -2.9208  0.0762  1.1509
12092TIP3   OH257766   3.472   0.741  11.719  0.1066 -0.5013 -0.4785
12092TIP3    H157767   3.403   0.796  11.683 -0.4468 -1.2111 -0.5310
12092TIP3    H257768   3.448   0.732  11.812 -1.3437 -2.8680 -1.0297
12093TIP3   OH257769   2.662   6.764   5.545  0.3902  0.0429 -0.8831
12093TIP3    H157770   2.724   6.743   5.475  0.4215  0.1781 -0.8964
12093TIP3    H257771   2.576   6.741   5.509  0.3934  0.2387 -1.0164
12094TIP3   OH257772   2.020   0.988  16.657 -0.3052 -0.5044 -0.6647
12094TIP3    H157773   2.051   1.079  16.657  1.0384 -0.9385 -1.2854
12094TIP3    H257774   2.017   0.964  16.749 -1.4420  0.4149 -0.4480
12095TIP3   OH257775   5.531   0.042   2.362  0.2069  0.3967  0.5140
12095TIP3    H157776   5.469  -0.029   2.344 -0.3575  0.7626  0.9544
12095TIP3    H257777   5.552   0.079   2.277  1.1510 -0.8297  0.2028
12096TIP3   OH257778   2.498   2.135   1.862 -0.2627  0.0283  0.8022
12096TIP3    H157779   2.433   2.100   1.802 -0.5205 -0.4784  1.3708
12096TIP3    H257780   2.582   2.114   1.822 -0.4447  0.8029  0.0000
12097TIP3   OH257781   1.619   3.298   3.016  0.0820 -0.1229  0.2824
12097TIP3    H157782   1.570   3.242   2.956 -1.0125  0.7496  0.3380
12097TIP3    H257783   1.565   3.377   3.025  0.9792  0.4067  1.1993
12098TIP3   OH257784   4.183   1.968   0.542  0.3365 -0.6143  0.6695
12098TIP3    H157785   4.242   1.962   0.617  1.0497 -0.1949  0.1513
12098TIP3    H257786   4.127   2.044   0.562  1.0568 -0.0147  0.4072
12099TIP3   OH257787   4.972   5.454  12.735 -0.3752  0.1221 -0.1660
12099TIP3    H157788   5.058   5.415  12.721 -0.3494 -0.2200  0.8554
12099TIP3    H257789   4.915   5.409  12.674 -0.0245 -0.3872 -0.1227
12100TIP3   OH257790   5.197   0.087   4.361  0.8514 -0.3474 -0.4903
12100TIP3    H157791   5.261   0.119   4.424  0.2874 -0.3808  0.1121
12100TIP3    H257792   5.115   0.129   4.386  0.7672  0.2049 -1.6581
12101TIP3   OH257793   6.131   0.803  12.371 -0.3412 -0.0693  0.3181
12101TIP3    H157794   6.222   0.827  12.354 -0.1928  1.0241  2.5709
12101TIP3    H257795   6.082   0.851  12.304  0.6724 -0.3943 -0.6939
12102TIP3   OH257796   2.216   4.000  11.766 -0.0482  0.8061 -0.9817
12102TIP3    H157797   2.190   4.066  11.701  0.9216  0.4740 -1.7152
12102TIP3    H257798   2.178   3.919  11.733 -1.0222  0.9331 -0.2128
12103TIP3   OH257799   0.503   0.927  12.497  0.2625 -0.1567 -0.2138
12103TIP3    H157800   0.543   0.845  12.527  2.4092 -0.1451 -2.8407
12103TIP3    H257801   0.412   0.904  12.477 -0.1345 -1.0324  2.4980
12104TIP3   OH257802   1.850   1.161  14.957  0.1756 -0.0323 -0.0054
12104TIP3    H157803   1.762   1.179  14.991 -0.7428 -1.4619 -1.5386
12104TIP3    H257804   1.896   1.121  15.031 -0.9784 -0.7433  0.3527
12105TIP3   OH257805   4.071   5.373   4.191  0.5172 -0.3336 -0.2599
12105TIP3    H157806   4.164   5.397   4.183  0.2326 -0.0392 -3.1400
12105TIP3    H257807   4.026   5.457   4.203  0.4559 -0.3300 -0.5190
12106TIP3   OH257808   3.595   5.262   4.274  0.2177  0.3780  0.1300
12106TIP3    H157809   3.661   5.269   4.205  0.7277 -1.5355  0.3875
12106TIP3    H257810   3.542   5.187   4.249 -0.6485  0.7080  0.9457
12107TIP3   OH257811   4.055   6.011  14.656 -0.3749 -0.5166  0.0032
12107TIP3    H157812   4.106   6.091  14.657 -1.1244 -0.0401  1.5496
12107TIP3    H257813   4.117   5.943  14.632  1.0428  0.0315  2.0065
12108TIP3   OH257814   3.254   0.262   5.379  0.3813  0.8308  0.4495
12108TIP3    H157815   3.311   0.202   5.331  0.4606  1.4406 -0.2277
12108TIP3    H257816   3.311   0.303   5.445  0.7890  1.6252 -0.3907
12109TIP3   OH257817   6.155   1.044   2.356 -0.3358  0.2537 -0.3643
12109TIP3    H157818   6.088   1.025   2.422  0.1731 -2.1264 -0.4736
12109TIP3    H257819   6.228   1.081   2.405  0.0903 -1.6252  0.4717
12110TIP3   OH257820   0.834   3.185   0.363 -0.0131  0.1073  0.2428
12110TIP3    H157821   0.798   3.106   0.323  0.0130  1.0372 -1.6624
12110TIP3    H257822   0.916   3.156   0.403 -0.4966 -1.0271  0.4451
12111TIP3   OH257823   3.727   2.038  10.697  0.2493  0.5270  0.4149
12111TIP3    H157824   3.681   2.120  10.715  1.7699  0.9612  2.5882
12111TIP3    H257825   3.755   2.007  10.784  1.3547 -1.2956 -0.5616
12112TIP3   OH257826   4.893   4.875   2.916  0.0126 -0.5796  0.4505
12112TIP3    H157827   4.910   4.793   2.962  1.6889  0.8237  2.4657
12112TIP3    H257828   4.962   4.880   2.850 -1.2047 -1.6524 -0.9247
12113TIP3   OH257829   5.814   6.426  11.058  0.2748  0.2742 -0.0338
12113TIP3    H157830   5.843   6.357  10.997  1.4642  0.7927 -0.0799
12113TIP3    H257831   5.766   6.488  11.003  0.5639  0.2786 -0.2859
12114TIP3   OH257832   0.340   5.378  12.932 -0.0902  0.4777 -0.7033
12114TIP3    H157833   0.340   5.420  13.018  0.4792  2.5161 -1.6629
12114TIP3    H257834   0.380   5.292  12.946  0.9565  1.2087  0.8789
12115TIP3   OH257835   6.191   1.430  15.264 -0.1475 -0.5742 -0.4540
12115TIP3    H157836   6.127   1.497  15.239  0.9691  1.1749  1.3129
12115TIP3    H257837   6.267   1.448  15.210  0.5203  0.2121  0.7450
12116TIP3   OH257838   5.850   2.110  13.437  0.7141  0.1669 -0.0568
12116TIP3    H157839   5.830   2.047  13.506  0.4771  0.3429  0.0380
12116TIP3    H257840   5.785   2.179  13.448  0.3581 -0.0533 -0.7877
12117TIP3   OH257841   4.265   3.349  13.601 -0.6499  1.1267  0.7377
12117TIP3    H157842   4.239   3.321  13.689 -0.7887 -0.6178  0.1735
12117TIP3    H257843   4.326   3.281  13.572  0.4098  2.3860 -0.0067
12118TIP3   OH257844   5.010   5.615  12.958 -0.2333 -0.0539 -0.1314
12118TIP3    H157845   4.988   5.546  12.895 -0.3056  0.3329 -0.5342
12118TIP3    H257846   4.936   5.676  12.952  0.5391  0.8198 -0.8648
12119TIP3   OH257847   4.486   6.130   5.705 -0.1857 -0.2452 -0.1125
12119TIP3    H157848   4.510   6.043   5.737 -2.0897 -1.3208 -1.5352
12119TIP3    H257849   4.556   6.187   5.737  1.6783 -2.4692 -0.0836
12120TIP3   OH257850   2.216   5.043  13.250 -0.1929 -0.1943 -0.8000
12120TIP3    H157851   2.280   4.980  13.216  1.3707  1.0544 -0.2030
12120TIP3    H257852   2.136   4.991  13.262  1.6157 -2.5783  1.6183
12121TIP3   OH257853   2.407   3.608   4.767 -0.6034 -0.0169 -0.2020
12121TIP3    H157854   2.439   3.588   4.856 -0.2845 -0.4456 -0.4127
12121TIP3    H257855   2.486   3.609   4.713 -0.7438  0.6855 -0.4071
12122TIP3   OH257856   3.640   3.182  11.513  0.7158  0.2412 -0.0170
12122TIP3    H157857   3.592   3.261  11.486 -2.3165 -1.8185 -0.9084
12122TIP3    H257858   3.698   3.165  11.439  1.3784  1.6055  0.1644
12123TIP3   OH257859   3.474   6.081  16.085  0.0368 -0.5314  0.1424
12123TIP3    H157860   3.417   6.020  16.132 -0.9652  0.0981 -0.2341
12123TIP3    H257861   3.559   6.037  16.082 -0.8536 -2.2758 -0.8025
12124TIP3   OH257862   1.370   3.560  11.966 -0.3420  0.2509 -0.0489
12124TIP3    H157863   1.276   3.547  11.958 -0.5298  1.3027  0.2807
12124TIP3    H257864   1.409   3.475  11.946 -1.3620 -0.1848 -0.1801
12125TIP3   OH257865   0.885   3.048   2.378 -0.0661  0.1935 -0.1053
12125TIP3    H157866   0.884   3.105   2.455 -0.4545  0.0935 -0.0371
12125TIP3    H257867   0.929   2.968   2.409 -0.0653  0.2209 -0.0346
12126TIP3   OH257868   0.033   4.590  13.871 -0.1323 -0.3718  0.1958
12126TIP3    H157869   0.076   4.545  13.798  1.4458 -0.6641  1.2899
12126TIP3    H257870  -0.030   4.525  13.904 -0.4096 -0.4651 -0.4971
12127TIP3   OH257871   5.217   2.646  11.830 -0.1793 -0.7060  0.0081
12127TIP3    H157872   5.311   2.629  11.815 -0.2397  0.2768 -1.5549
12127TIP3    H257873   5.174   2.567  11.798 -0.0255 -0.2419 -1.3853
12128TIP3   OH257874   6.226   0.323  13.463 -0.6161 -0.1560  0.0335
12128TIP3    H157875   6.264   0.263  13.399 -0.9314 -0.0362 -0.2683
12128TIP3    H257876   6.146   0.355  13.421 -0.3514  0.6216  0.1190
12129TIP3   OH257877   6.447   0.017  14.708 -0.4566 -0.6119 -0.1212
12129TIP3    H157878   6.470  -0.027  14.626  0.6174 -0.0183 -0.1431
12129TIP3    H257879   6.355   0.043  14.696  0.0818  0.6901 -1.7014
12130TIP3   OH257880   1.311   4.553  12.121  0.3566  0.2584  0.0208
12130TIP3    H157881   1.302   4.534  12.214 -1.1929  0.6312 -0.0415
12130TIP3    H257882   1.372   4.627  12.118 -0.3819  0.9171  0.8174
12131TIP3   OH257883   4.796   4.262  13.023 -0.2843 -0.2031 -0.0044
12131TIP3    H157884   4.710   4.250  13.064 -1.1792 -1.3646 -2.1256
12131TIP3    H257885   4.851   4.194  13.062 -2.0756 -3.6484 -3.1107
12132TIP3   OH257886   2.621   6.815   4.391 -0.0134 -0.1353  0.3102
12132TIP3    H157887   2.710   6.780   4.391  0.2989  0.6496 -0.2581
12132TIP3    H257888   2.621   6.881   4.322 -0.7750  0.5291  0.9289
12133TIP3   OH257889   1.753   2.043   1.216 -0.3162  0.5887 -0.0633
12133TIP3    H157890   1.673   2.014   1.260  1.2265 -0.5374  2.0860
12133TIP3    H257891   1.815   2.058   1.287  0.5256  4.3319 -1.4616
12134TIP3   OH257892   4.539   4.071   4.090  0.0178  0.6272  0.1562
12134TIP3    H157893   4.622   4.100   4.053  0.7737 -1.7761 -0.1051
12134TIP3    H257894   4.563   4.009   4.158 -1.5488  0.5750  0.6882
12135TIP3   OH257895   4.143   5.889  12.029 -0.3723 -0.6388 -0.4016
12135TIP3    H157896   4.173   5.849  12.111  0.6926  1.3801  0.2479
12135TIP3    H257897   4.215   5.873  11.967 -1.4102 -2.6330 -1.1188
12136TIP3   OH257898   2.917   6.064   2.877  0.4224  0.9632  0.1651
12136TIP3    H157899   3.001   6.087   2.838  1.1712 -1.7957  0.0556
12136TIP3    H257900   2.853   6.121   2.832  1.9491  1.6153 -1.2325
12137TIP3   OH257901   4.882   5.061  13.856  0.2694 -0.4774 -0.2008
12137TIP3    H157902   4.892   4.980  13.806  0.3072 -0.7428  0.2346
12137TIP3    H257903   4.836   5.035  13.936 -2.6176  0.4544 -1.4948
12138TIP3   OH257904   4.351   1.164  11.621  0.0164 -0.1857  0.0397
12138TIP3    H157905   4.341   1.078  11.663  0.3319 -0.7809 -1.1009
12138TIP3    H257906   4.415   1.210  11.675  0.4327 -0.9576  0.1992
12139TIP3   OH257907   1.477   5.847  14.373 -0.0657 -0.0286 -0.3988
12139TIP3    H157908   1.424   5.927  14.380 -1.3303 -0.7048 -1.9035
12139TIP3    H257909   1.481   5.829  14.279  1.3998 -0.9655 -0.1744
12140TIP3   OH257910   1.194   4.941  16.817  0.2086 -0.5843 -0.3496
12140TIP3    H157911   1.219   4.942  16.910  1.3218  0.5656 -0.6496
12140TIP3    H257912   1.109   4.897  16.816 -0.7703  1.1498  1.4570
12141TIP3   OH257913   2.054   1.978  14.696 -0.3800 -0.0557 -0.1738
12141TIP3    H157914   2.058   2.051  14.634 -0.6673  0.8175  0.8205
12141TIP3    H257915   2.137   1.931  14.682 -0.1453  0.5142 -0.7453
12142TIP3   OH257916   1.500   3.575  11.242 -0.0496 -0.2974 -0.0580
12142TIP3    H157917   1.423   3.572  11.185  0.6181  0.1960 -1.0024
12142TIP3    H257918   1.573   3.592  11.182  0.6620  0.2031  0.9487
12143TIP3   OH257919   5.196   1.678  17.216  0.3694  0.5059  0.7353
12143TIP3    H157920   5.168   1.699  17.305  0.0265  1.1072  0.4917
12143TIP3    H257921   5.196   1.762  17.171  0.3514  0.1769  0.1156
12144TIP3   OH257922   3.600   4.827   5.773  0.2046  0.0054  0.4375
12144TIP3    H157923   3.656   4.760   5.813 -0.8144 -0.9911  0.2283
12144TIP3    H257924   3.660   4.884   5.726  1.0300 -1.1725  0.0457
12145TIP3   OH257925   5.508   5.136  15.148  0.0157 -0.1540  0.1149
12145TIP3    H157926   5.437   5.080  15.180  0.9585 -0.5013  1.6768
12145TIP3    H257927   5.587   5.085  15.165  0.7407  0.8850 -0.1561
12146TIP3   OH257928   2.152   1.957  15.451 -0.0116  0.4228  0.0499
12146TIP3    H157929   2.068   1.947  15.494  1.0695  1.5780  2.5537
12146TIP3    H257930   2.194   1.872  15.459 -0.8542 -0.1117 -1.0711
12147TIP3   OH257931   6.058   1.325   1.556  0.5304 -0.1774 -0.1553
12147TIP3    H157932   5.981   1.349   1.607 -0.3958 -1.7861 -0.7773
12147TIP3    H257933   6.080   1.404   1.507  0.6815  1.0088  1.7570
12148TIP3   OH257934   5.172   5.960  14.427 -0.2754 -0.1930  0.2266
12148TIP3    H157935   5.212   5.942  14.512  1.1135  1.0117 -0.1555
12148TIP3    H257936   5.078   5.967  14.447 -0.1110 -1.1289  1.4445
12149TIP3   OH257937   0.275   0.524   1.558  0.5674  0.0154  0.2440
12149TIP3    H157938   0.256   0.566   1.474  0.5902  1.6225  1.0325
12149TIP3    H257939   0.370   0.534   1.569  0.2938  1.4621  1.3336
12150TIP3   OH257940   3.899   5.188  14.030 -0.0188  0.3073 -0.3358
12150TIP3    H157941   3.943   5.262  13.989  0.4115  0.4559  0.3887
12150TIP3    H257942   3.969   5.137  14.070 -0.2642 -0.6998 -1.1334
12151TIP3   OH257943   1.498   0.887  12.828 -0.3473  0.0034  0.2286
12151TIP3    H157944   1.474   0.978  12.814 -0.5814  0.0194  0.7311
12151TIP3    H257945   1.415   0.839  12.826 -0.0072 -0.5343 -2.5147
12152TIP3   OH257946   4.851   2.335  14.161 -0.2464 -0.1615 -1.0581
12152TIP3    H157947   4.859   2.424  14.127  0.2328  0.6348  1.0876
12152TIP3    H257948   4.938   2.297  14.149  0.3288  0.6099  0.6017
12153TIP3   OH257949   4.288   5.844  13.645 -0.0830  0.1948  0.3720
12153TIP3    H157950   4.320   5.923  13.603  2.3975 -1.6124 -1.3220
12153TIP3    H257951   4.301   5.859  13.739  0.0691  1.9049  0.0781
12154TIP3   OH257952   1.058   0.429   6.168 -0.0573 -0.4426 -0.2337
12154TIP3    H157953   1.043   0.354   6.226 -1.4956 -0.4957 -0.6421
12154TIP3    H257954   1.141   0.466   6.196 -0.5981 -0.6525  1.6620
12155TIP3   OH257955   4.717   3.766   0.188  0.3716  0.2130  0.4216
12155TIP3    H157956   4.772   3.726   0.255  1.4695  0.1024 -0.5250
12155TIP3    H257957   4.761   3.848   0.167 -1.6981  1.8344  2.1331
12156TIP3   OH257958   2.266   6.656  16.892 -0.1157  0.4896  0.2795
12156TIP3    H157959   2.325   6.663  16.966  0.2438 -0.3686  0.0793
12156TIP3    H257960   2.189   6.707  16.917 -0.4858 -0.7567  1.7254
12157TIP3   OH257961   1.286   4.847   1.742 -0.2953  0.1728  0.0483
12157TIP3    H157962   1.290   4.942   1.735 -0.1654  0.2107  0.6315
12157TIP3    H257963   1.217   4.830   1.807  0.4685 -0.0966  0.7924
12158TIP3   OH257964   2.314   5.291   0.211 -0.3707  0.2095  0.2085
12158TIP3    H157965   2.219   5.281   0.209 -0.4420  0.7037  1.0381
12158TIP3    H257966   2.344   5.241   0.135 -1.0760 -2.1732  1.4326
12159TIP3   OH257967   6.551   0.421  15.759  0.4208  0.2339 -0.5445
12159TIP3    H157968   6.478   0.360  15.771  2.0126 -1.8079 -0.9724
12159TIP3    H257969   6.573   0.414  15.666  1.3042  0.6907 -0.3692
12160TIP3   OH257970   0.894   3.456   5.151  0.5137  0.6420  1.0026
12160TIP3    H157971   0.973   3.413   5.121  0.5600  1.7980 -0.5698
12160TIP3    H257972   0.828   3.386   5.152  1.1879 -0.0042  0.9063
12161TIP3   OH257973   1.673   5.924   3.335  0.2003  1.0227  0.5297
12161TIP3    H157974   1.669   5.859   3.265 -1.1477  2.5503 -0.8458
12161TIP3    H257975   1.711   6.002   3.293 -0.2219  1.8135  1.6143
12162TIP3   OH257976   6.081   6.332  16.786 -0.0861 -0.4804 -0.0289
12162TIP3    H157977   6.135   6.279  16.844 -1.8403 -1.5578  0.6722
12162TIP3    H257978   6.016   6.373  16.843  0.4741  1.4723 -0.7323
12163TIP3   OH257979   3.924   4.191  15.974  0.1622 -0.5959  0.1050
12163TIP3    H157980   3.918   4.265  15.913  1.3117 -1.2196 -0.7825
12163TIP3    H257981   3.988   4.132  15.935  0.1185 -1.5290  1.3847
12164TIP3   OH257982   1.172   5.801   4.179 -0.4400  0.4414 -0.5527
12164TIP3    H157983   1.105   5.860   4.144 -0.6349  0.6353  0.1284
12164TIP3    H257984   1.186   5.832   4.269 -0.2309 -0.2809 -0.3322
12165TIP3   OH257985   5.228   1.973   4.672 -0.0593  0.0991  0.5488
12165TIP3    H157986   5.178   2.042   4.628  0.0326 -0.9247 -1.2035
12165TIP3    H257987   5.173   1.895   4.663  0.2855 -0.2736  1.6587
12166TIP3   OH257988   3.416   2.971   0.539 -0.4823 -0.0762 -0.4724
12166TIP3    H157989   3.407   2.997   0.448  0.5984  1.3506 -0.1864
12166TIP3    H257990   3.484   2.903   0.538  2.6544  2.9207 -0.2601
12167TIP3   OH257991   4.317   0.213  13.982 -0.5557 -0.0490 -0.0249
12167TIP3    H157992   4.380   0.146  14.009  0.9515  1.1815 -0.3872
12167TIP3    H257993   4.299   0.192  13.890 -1.5316 -1.0378  0.3746
12168TIP3   OH257994   2.182   4.628  14.760  0.6029  0.0531  0.6205
12168TIP3    H157995   2.150   4.684  14.830  0.1039 -0.8978  1.1680
12168TIP3    H257996   2.104   4.583  14.728  0.9336 -0.0169 -0.0871
12169TIP3   OH257997   1.873   1.871   5.712 -0.3245 -0.2142 -0.6564
12169TIP3    H157998   1.817   1.794   5.710  0.4218 -0.7529 -1.6227
12169TIP3    H257999   1.831   1.933   5.652 -2.6444  1.4082  2.4930
12170TIP3   OH258000   0.306   2.072   7.234 -0.4930  0.1992 -0.3535
12170TIP3    H158001   0.214   2.093   7.215 -0.0872  0.7405 -1.7401
12170TIP3    H258002   0.325   1.997   7.178  0.3601  1.0426 -1.2010
12171TIP3   OH258003   3.970   4.286   4.874 -0.3504  0.5516  0.0525
12171TIP3    H158004   4.062   4.310   4.888 -0.7258  1.6506  0.6884
12171TIP3    H258005   3.949   4.320   4.787 -0.1068  0.1177 -0.1799
12172TIP3   OH258006   0.794   2.057  15.929 -0.1075  0.1379  0.3868
12172TIP3    H158007   0.793   2.098  16.016  2.5092  0.7980  0.1430
12172TIP3    H258008   0.768   1.966  15.946  2.0996 -0.2102  2.1639
12173TIP3   OH258009   1.017   5.318   1.635  0.3997  0.6704 -0.3032
12173TIP3    H158010   0.978   5.348   1.553  0.7559  1.7576 -0.0881
12173TIP3    H258011   1.088   5.260   1.608  1.1564  1.8003 -0.8092
12174TIP3   OH258012   0.589   3.353  15.478 -0.0868 -0.1055  0.2389
12174TIP3    H158013   0.569   3.324  15.567  1.0316 -1.8062 -0.0480
12174TIP3    H258014   0.676   3.318  15.460 -0.3759  0.0728 -1.5979
12175TIP3   OH258015   2.926   5.523  14.776 -0.3368  0.1885  0.4923
12175TIP3    H158016   2.890   5.611  14.775 -0.2732  0.2239 -2.1952
12175TIP3    H258017   3.004   5.529  14.720 -0.0539 -1.4484  0.6967
12176TIP3   OH258018   2.593   2.223  10.655 -0.0492  0.2542  0.2426
12176TIP3    H158019   2.642   2.240  10.574 -0.8161 -0.2222 -0.3340
12176TIP3    H258020   2.593   2.306  10.701  0.3051  0.5564 -0.2977
12177TIP3   OH258021   0.381   0.499  16.877  0.0306 -0.0927  0.5899
12177TIP3    H158022   0.369   0.550  16.797  2.3600 -1.4043 -0.6633
12177TIP3    H258023   0.293   0.465  16.897 -0.9730  1.9734 -0.1902
12178TIP3   OH258024   6.580   3.245  15.106  0.2358  0.3809 -0.2808
12178TIP3    H158025   6.569   3.151  15.098  0.0654  0.3867 -0.1094
12178TIP3    H258026   6.637   3.269  15.033 -0.3250  0.2508 -0.7644
12179TIP3   OH258027   4.839   4.707   1.966  0.0188  0.1016 -0.1719
12179TIP3    H158028   4.782   4.646   1.918 -1.9219  1.1019  0.7909
12179TIP3    H258029   4.895   4.651   2.019  0.4430 -0.9315 -1.6612
12180TIP3   OH258030   6.559   0.185   0.813 -0.7188  0.0757 -0.4119
12180TIP3    H158031   6.501   0.137   0.873 -0.0080  0.5230  0.6463
12180TIP3    H258032   6.524   0.166   0.726 -1.0885 -1.5088  0.0624
12181TIP3   OH258033   4.793   2.185  11.132 -0.4350  0.1347 -0.0496
12181TIP3    H158034   4.849   2.115  11.096  1.1280  0.4188  1.7221
12181TIP3    H258035   4.771   2.239  11.056  0.5432 -0.8031 -1.0297
12182TIP3   OH258036   6.250   5.591  13.474 -0.0913  0.4940  0.0829
12182TIP3    H158037   6.300   5.616  13.552 -0.4498  2.2979 -0.2278
12182TIP3    H258038   6.317   5.568  13.410  0.1901 -1.7045  1.1287
12183TIP3   OH258039   6.533   5.742  11.835 -0.1228  0.0581 -0.2611
12183TIP3    H158040   6.496   5.785  11.758 -0.2533  1.1505  0.4070
12183TIP3    H258041   6.532   5.809  11.903  3.1146  0.1325 -0.2082
12184TIP3   OH258042   3.492   1.078   2.614  0.0520  0.0345  0.2096
12184TIP3    H158043   3.452   1.026   2.545 -0.1261 -0.3826  0.6277
12184TIP3    H258044   3.426   1.143   2.636  0.6286  1.0396 -0.9642
12185TIP3   OH258045   2.379   6.450   4.907  0.5456  0.1063  0.0127
12185TIP3    H158046   2.288   6.479   4.901  0.6438  0.0133 -2.1536
12185TIP3    H258047   2.425   6.522   4.950 -0.3649  0.5550  0.2345
12186TIP3   OH258048   2.255   2.522  13.063 -0.5292 -0.2937 -0.2431
12186TIP3    H158049   2.337   2.492  13.102  1.3910  1.2635 -2.9038
12186TIP3    H258050   2.191   2.455  13.087  1.6130 -1.8074  1.4575
12187TIP3   OH258051   2.113   2.682  14.291  0.4947  0.4542  0.7261
12187TIP3    H158052   2.150   2.678  14.203  0.6673  0.9812  0.7695
12187TIP3    H258053   2.165   2.620  14.342  1.6833  1.5793  0.9120
12188TIP3   OH258054   1.868   1.607   2.705 -0.4119  0.1942 -0.2160
12188TIP3    H158055   1.834   1.696   2.694  1.5004  0.7505 -1.9470
12188TIP3    H258056   1.803   1.551   2.663 -0.3496  1.0282 -1.4532
12189TIP3   OH258057   3.680   3.539   3.960  0.0103 -0.2500  0.0359
12189TIP3    H158058   3.689   3.635   3.960  1.7120 -0.3627  1.4369
12189TIP3    H258059   3.587   3.524   3.976 -0.5055  1.1572 -1.4486
12190TIP3   OH258060   2.166   4.200   1.842  0.3433  0.2007 -0.0933
12190TIP3    H158061   2.116   4.121   1.862  0.3014  0.0566 -0.7627
12190TIP3    H258062   2.099   4.268   1.830  0.3224  0.0598 -0.7589
12191TIP3   OH258063   1.812   5.144  12.231  0.4929 -0.0140  0.5703
12191TIP3    H158064   1.728   5.189  12.231  0.4664 -0.0650  0.4710
12191TIP3    H258065   1.794   5.059  12.270  0.2159 -0.5626 -0.7339
12192TIP3   OH258066   1.242   0.548  14.439  0.0817 -0.4579 -0.1717
12192TIP3    H158067   1.286   0.632  14.436 -0.0479 -0.4268 -1.5355
12192TIP3    H258068   1.312   0.483  14.446  0.3698 -0.4066 -2.2795
12193TIP3   OH258069   2.875   2.065   3.004  0.0949  0.1201  0.1671
12193TIP3    H158070   2.812   2.008   3.047  1.1596 -1.1295  0.1121
12193TIP3    H258071   2.945   2.077   3.069 -0.8745  2.7234  0.7986
12194TIP3   OH258072   4.343   3.621  12.451 -0.0029 -0.9035 -0.0148
12194TIP3    H158073   4.315   3.530  12.448 -1.8776 -0.3252 -0.5512
12194TIP3    H258074   4.326   3.655  12.363 -0.2807  0.2366  0.4685
12195TIP3   OH258075   3.837   0.007   6.060  0.1022 -0.1099 -0.0430
12195TIP3    H158076   3.901  -0.059   6.083 -0.8567 -0.6771  1.0276
12195TIP3    H258077   3.880   0.091   6.077  0.9519 -0.4628 -0.4379
12196TIP3   OH258078   4.313   2.714   3.281 -0.4138  0.1823 -0.1012
12196TIP3    H158079   4.255   2.767   3.226 -0.3851  0.7059  0.3731
12196TIP3    H258080   4.401   2.744   3.257 -0.3818  0.0675 -0.1251
12197TIP3   OH258081   1.470   2.403  12.926 -0.2101 -0.1904 -0.9499
12197TIP3    H158082   1.436   2.321  12.892  0.9325 -0.6064 -1.1068
12197TIP3    H258083   1.563   2.402  12.903 -0.5539  1.9893 -2.6076
12198TIP3   OH258084   4.827   4.211   0.325  0.1305  0.3404 -0.0615
12198TIP3    H158085   4.821   4.162   0.243 -0.5476  0.6987 -0.2335
12198TIP3    H258086   4.838   4.302   0.298 -0.0379  0.4517  0.2406
12199TIP3   OH258087   2.767   6.463   6.082 -0.1586  0.4228  0.0944
12199TIP3    H158088   2.796   6.414   6.159 -2.6431 -0.1291  0.7509
12199TIP3    H258089   2.807   6.549   6.091  3.1607 -1.0289 -0.3496
12200TIP3   OH258090   3.943   4.104   1.441 -0.0462 -0.4885 -1.1751
12200TIP3    H158091   3.956   4.032   1.503  1.2995  0.1035 -0.7396
12200TIP3    H258092   3.862   4.083   1.395 -0.5595 -1.4032  0.1497
12201TIP3   OH258093   2.330   0.758   1.078  0.3534 -0.5265  0.2211
12201TIP3    H158094   2.422   0.761   1.050 -0.1021 -2.3801 -1.5628
12201TIP3    H258095   2.321   0.676   1.126 -0.1637  0.0666  1.1438
12202TIP3   OH258096   4.337   4.538   4.535  0.3086  0.2378  0.1407
12202TIP3    H158097   4.305   4.605   4.474  0.7044 -0.6697 -1.0733
12202TIP3    H258098   4.267   4.472   4.537 -0.5778  1.1935  2.1826
12203TIP3   OH258099   6.788   1.666  16.113  0.0243 -0.0843 -0.6435
12203TIP3    H158100   6.703   1.696  16.145 -0.0705  1.2139 -2.0269
12203TIP3    H258101   6.816   1.601  16.177 -1.2117  0.7302  0.7787
12204TIP3   OH258102   1.150   2.717  10.914  0.4721 -0.6455  0.2052
12204TIP3    H158103   1.158   2.647  10.979  0.6076  0.2602  1.1815
12204TIP3    H258104   1.119   2.673  10.835  1.3610 -1.9304  0.5677
12205TIP3   OH258105   3.781   3.735  13.301  0.1926 -0.1105 -0.3162
12205TIP3    H158106   3.763   3.666  13.237 -1.2865 -1.6583  1.7031
12205TIP3    H258107   3.865   3.710  13.339  0.6537  0.3382 -1.0287
12206TIP3   OH258108   4.269   3.994  14.869  0.3636 -0.0680 -0.2503
12206TIP3    H158109   4.229   3.975  14.784 -0.9008  2.0947 -0.1823
12206TIP3    H258110   4.360   3.966  14.860 -0.5424 -2.8372 -1.2186
12207TIP3   OH258111   1.101   3.913  15.169 -0.4193 -0.1639 -0.3111
12207TIP3    H158112   1.090   3.840  15.108  1.1559  0.6560 -1.6042
12207TIP3    H258113   1.063   3.988  15.124  1.0513  0.5154 -0.4302
12208TIP3   OH258114   6.631   4.327   1.803  0.2354 -0.5440 -0.4240
12208TIP3    H158115   6.720   4.295   1.819 -0.1435 -1.2279  0.3328
12208TIP3    H258116   6.586   4.315   1.886  0.0722  1.9468 -0.1272
12209TIP3   OH258117   1.134   3.568  14.256 -0.8819  0.4658  0.2970
12209TIP3    H158118   1.049   3.593  14.220 -0.7003  0.0815 -0.4145
12209TIP3    H258119   1.197   3.622  14.208 -0.5098 -1.1264 -1.0706
12210TIP3   OH258120   3.111   6.665   2.326 -0.1137  0.2635  0.2350
12210TIP3    H158121   3.039   6.721   2.297 -0.7245 -0.2161  0.8014
12210TIP3    H258122   3.180   6.680   2.262 -1.5733 -1.0788 -1.7470
12211TIP3   OH258123   4.361   4.148  11.210 -0.0957 -0.1504 -0.4516
12211TIP3    H158124   4.406   4.220  11.255  2.2576 -0.5866 -2.0502
12211TIP3    H258125   4.326   4.188  11.131  0.7975 -0.6442 -1.1025
12212TIP3   OH258126   2.071   1.777  13.383 -0.1043  0.1186 -0.1630
12212TIP3    H158127   2.059   1.775  13.288 -1.8592 -1.1270  0.0701
12212TIP3    H258128   2.101   1.867  13.401 -2.0404  1.1000 -1.6288
12213TIP3   OH258129   2.361   1.462  10.675  0.3940 -0.2462 -0.2002
12213TIP3    H158130   2.318   1.439  10.593 -1.3428 -1.2873  0.9512
12213TIP3    H258131   2.291   1.501  10.728  1.8199  1.8084  0.2575
12214TIP3   OH258132   4.033   1.200  14.500  0.0674 -0.3096  0.2458
12214TIP3    H158133   3.994   1.272  14.450 -0.7644 -0.3972  0.7655
12214TIP3    H258134   4.071   1.241  14.577 -0.0064 -0.3679  0.3149
12215TIP3   OH258135   2.601   3.379   4.205  0.0028 -0.1358 -0.4501
12215TIP3    H158136   2.643   3.381   4.291 -1.1878 -0.1730  0.1415
12215TIP3    H258137   2.511   3.406   4.222 -0.1527  0.1714 -1.7438
12216TIP3   OH258138   4.496   3.004  14.567 -0.2464 -0.3175 -0.1520
12216TIP3    H158139   4.410   2.988  14.527 -0.4817  0.6919 -0.0523
12216TIP3    H258140   4.534   3.074  14.514 -0.4122  0.7784  1.1620
12217TIP3   OH258141   0.696   6.308   0.481  0.0321 -0.0517  0.0121
12217TIP3    H158142   0.681   6.223   0.522  0.1309  1.0697  2.4427
12217TIP3    H258143   0.786   6.303   0.448 -0.3636 -1.2954 -0.9212
12218TIP3   OH258144   1.021   2.182   1.981 -0.0643 -0.2227  0.0169
12218TIP3    H158145   0.927   2.198   1.985 -0.3080 -1.6096  0.2162
12218TIP3    H258146   1.034   2.137   1.898  0.3120 -0.6980  0.3306
12219TIP3   OH258147   0.700   0.051  16.063  0.1335  0.0676 -0.0635
12219TIP3    H158148   0.768   0.025  16.126 -1.3764  0.7491  1.9211
12219TIP3    H258149   0.644  -0.026  16.054  0.7079 -0.2346 -1.0698
12220TIP3   OH258150   4.383   6.116   5.454 -0.5823  0.1671  0.1995
12220TIP3    H158151   4.385   6.100   5.548  0.0582 -1.0383 -0.0079
12220TIP3    H258152   4.364   6.031   5.415  2.3873 -0.0576 -0.9284
12221TIP3   OH258153   6.419   4.478  16.639 -1.0236 -0.1529 -0.0347
12221TIP3    H158154   6.431   4.536  16.714 -0.2840 -2.3178  1.5663
12221TIP3    H258155   6.324   4.475  16.627 -1.3114 -1.4283  2.1984
12222TIP3   OH258156   1.423   3.096  16.658  0.4562 -0.2932  0.3826
12222TIP3    H158157   1.475   3.016  16.647  0.5595  0.0549 -2.0271
12222TIP3    H258158   1.336   3.066  16.683  1.4655 -0.9492  3.1950
12223TIP3   OH258159   3.805   2.877   1.749 -0.1646  0.7105  0.1198
12223TIP3    H158160   3.812   2.783   1.729 -1.2711  0.8539 -0.9988
12223TIP3    H258161   3.711   2.893   1.756 -0.0020  1.8372 -0.1878
12224TIP3   OH258162   3.976   2.884   2.797 -0.2458 -0.0270  0.5725
12224TIP3    H158163   4.015   2.796   2.795  0.2031  0.1081  2.1957
12224TIP3    H258164   3.908   2.878   2.865  1.9246  1.6999  3.0116
12225TIP3   OH258165   2.164   5.794  15.625 -0.3016  0.8223  0.3196
12225TIP3    H158166   2.094   5.858  15.613  0.0064  1.0541 -0.2332
12225TIP3    H258167   2.210   5.791  15.541  0.5100  0.8596  0.7550
12226TIP3   OH258168   2.927   0.252  13.948  0.3109  0.4835  0.5212
12226TIP3    H158169   2.858   0.304  13.989 -0.2935 -0.4014  0.6307
12226TIP3    H258170   2.989   0.317  13.915 -0.7731  1.2940  0.0581
12227TIP3   OH258171   3.879   6.200  10.557  0.1720 -0.0696  0.0556
12227TIP3    H158172   3.908   6.171  10.644  0.2661 -0.3336 -0.0642
12227TIP3    H258173   3.885   6.122  10.502 -0.2114  0.0117 -0.1104
12228TIP3   OH258174   0.756   6.535   6.444  0.0167 -0.2072  0.1488
12228TIP3    H158175   0.837   6.497   6.479 -0.1072 -1.1008 -0.5248
12228TIP3    H258176   0.759   6.516   6.350 -1.0146 -0.2980  0.1301
12229TIP3   OH258177   6.009   1.172  12.767  0.1318 -0.2053 -0.3783
12229TIP3    H158178   5.963   1.105  12.817  0.9082 -1.0294 -0.7723
12229TIP3    H258179   6.087   1.192  12.819 -1.5115  2.5143  1.2266
12230TIP3   OH258180   1.004   2.789  15.794 -0.2318 -0.3425  0.0067
12230TIP3    H158181   0.998   2.854  15.864 -1.0122  1.0051 -1.2831
12230TIP3    H258182   0.963   2.831  15.718  0.6647 -1.7446 -1.2878
12231TIP3   OH258183   2.914   3.257  16.847  0.2159 -0.0125 -0.9922
12231TIP3    H158184   2.981   3.194  16.874  0.2812  1.4646  2.6433
12231TIP3    H258185   2.961   3.324  16.798  1.0121 -0.2413 -0.5405
12232TIP3   OH258186   6.597   4.514  13.182  0.3194  0.0172  0.2489
12232TIP3    H158187   6.602   4.598  13.136  0.3532 -0.9471 -1.5715
12232TIP3    H258188   6.580   4.450  13.113 -0.9549 -1.3287  1.7623
12233TIP3   OH258189   4.133   0.413  13.661  0.1654 -0.0105  0.0100
12233TIP3    H158190   4.083   0.362  13.597 -0.2536  0.3352  0.0602
12233TIP3    H258191   4.221   0.420  13.622  0.4356 -1.4031  0.3479
12234TIP3   OH258192   1.128   0.772   5.046 -0.0234  0.2919  0.1248
12234TIP3    H158193   1.218   0.777   5.079 -0.4712 -2.4736  1.9686
12234TIP3    H258194   1.135   0.715   4.969 -0.3423 -1.0081  1.0321
12235TIP3   OH258195   3.806   2.941  10.843 -0.0111 -0.2259 -0.0665
12235TIP3    H158196   3.892   2.950  10.802  0.8068 -1.4157  1.3537
12235TIP3    H258197   3.765   2.868  10.796  0.4884 -0.8709  0.4989
12236TIP3   OH258198   6.541   2.465  12.995  0.0728 -0.8408 -0.6875
12236TIP3    H158199   6.470   2.422  12.947 -0.5548 -0.6882  0.1032
12236TIP3    H258200   6.556   2.546  12.947 -0.8051 -0.5146 -0.4180
12237TIP3   OH258201   3.790   4.293  13.530 -0.4731  0.0022 -0.1003
12237TIP3    H158202   3.877   4.274  13.496 -0.3359 -0.5162  0.5280
12237TIP3    H258203   3.797   4.380  13.568 -0.4542  0.3099 -0.8058
12238TIP3   OH258204   2.795   5.980   5.567  0.0654 -0.2197  0.0317
12238TIP3    H158205   2.738   5.904   5.570  0.3393 -0.4220  0.0897
12238TIP3    H258206   2.883   5.946   5.583  0.2538  0.0368 -0.4291
12239TIP3   OH258207   4.573   4.135   5.857 -0.1457  0.3538  0.1591
12239TIP3    H158208   4.552   4.183   5.936  0.7251  0.6154  0.2417
12239TIP3    H258209   4.580   4.044   5.885 -2.2565  0.0998 -0.0863
12240TIP3   OH258210   4.067   6.080   2.591 -0.4400  0.1729  0.3612
12240TIP3    H158211   4.088   6.006   2.533 -0.3730  1.6881 -1.5806
12240TIP3    H258212   3.971   6.081   2.594 -0.4604  0.5379 -0.3185
12241TIP3   OH258213   4.909   3.845  15.884  0.3037  0.1971 -0.6053
12241TIP3    H158214   4.964   3.776  15.846 -0.7665 -0.8181 -0.3427
12241TIP3    H258215   4.918   3.918  15.824  2.3356  0.2201 -0.2994
12242TIP3   OH258216   3.286   6.042   0.267  0.8874 -0.0176 -0.1282
12242TIP3    H158217   3.280   5.994   0.184 -0.1068  0.7774 -0.5177
12242TIP3    H258218   3.332   6.123   0.245 -1.3377  1.2027 -0.3556
12243TIP3   OH258219   6.460   2.878  13.897 -0.0700  0.3309 -0.2495
12243TIP3    H158220   6.539   2.902  13.945  1.2254  1.2559 -2.7765
12243TIP3    H258221   6.388   2.914  13.950  1.0413 -1.7028  2.7926
12244TIP3   OH258222   3.098   0.544  14.503  0.1260  0.3730 -0.1242
12244TIP3    H158223   3.182   0.531  14.547 -0.2638  2.3263  1.2437
12244TIP3    H258224   3.037   0.487  14.550  0.1642  0.8280  0.4748
12245TIP3   OH258225   2.948   4.580  15.048 -0.7905  0.1341  0.0291
12245TIP3    H158226   2.902   4.497  15.058  2.0258 -1.1230  3.4152
12245TIP3    H258227   2.920   4.632  15.124  0.0165  1.0388 -0.2791
12246TIP3   OH258228   3.716   6.522   0.034 -0.2003 -0.4089  0.2050
12246TIP3    H158229   3.757   6.572   0.105 -0.4895 -0.9526  0.7591
12246TIP3    H258230   3.780   6.524  -0.037  0.2957 -0.2642  0.6503
12247TIP3   OH258231   1.172   0.385  16.567  0.0229  0.1407  0.2868
12247TIP3    H158232   1.091   0.430  16.542 -0.4661 -0.3298  0.9849
12247TIP3    H258233   1.189   0.324  16.495 -0.7628 -0.4194  0.5703
12248TIP3   OH258234   4.183   3.088   1.861  0.3743  0.8112  0.5079
12248TIP3    H158235   4.254   3.090   1.796 -0.0897 -1.4402 -0.1267
12248TIP3    H258236   4.106   3.117   1.813  0.3051  0.4790  0.4159
12249TIP3   OH258237   3.664   5.722   1.634  0.2668 -0.2879  0.1580
12249TIP3    H158238   3.661   5.798   1.693 -0.5148 -0.6477  0.5961
12249TIP3    H258239   3.683   5.648   1.692  2.1384 -0.2770 -0.4252
12250TIP3   OH258240   6.116   5.668   1.348 -0.0626 -0.4668  0.0447
12250TIP3    H158241   6.073   5.594   1.308  0.5051 -0.2908 -0.9073
12250TIP3    H258242   6.079   5.674   1.436  0.1197 -2.0588  0.2292
12251TIP3   OH258243   5.531   0.797   1.869  0.1423 -0.4992  0.0302
12251TIP3    H158244   5.566   0.879   1.903 -0.5050 -0.0301 -0.4156
12251TIP3    H258245   5.604   0.735   1.877  0.3621 -0.1045  1.1608
12252TIP3   OH258246   5.957   3.695  11.778  0.3846  0.6028  0.0529
12252TIP3    H158247   5.971   3.667  11.868 -0.6906  2.3903  0.7900
12252TIP3    H258248   5.911   3.621  11.737 -0.1026  0.2334  1.2443
12253TIP3   OH258249   0.069   3.017   4.121 -0.3708 -0.3740 -0.6038
12253TIP3    H158250   0.148   3.042   4.169  0.4157  0.8579 -2.4589
12253TIP3    H258251   0.079   2.924   4.104  0.2106 -0.4319  0.0566
12254TIP3   OH258252   5.744   5.602  16.412 -0.7169 -0.1291 -0.0750
12254TIP3    H158253   5.768   5.640  16.497 -1.5924  0.4889 -0.1058
12254TIP3    H258254   5.802   5.644  16.350  0.9580 -1.6577  0.3936
12255TIP3   OH258255   0.889   1.071   1.733 -0.2896  0.1950  0.0727
12255TIP3    H158256   0.874   0.977   1.742  2.2120 -0.2075  0.3100
12255TIP3    H258257   0.808   1.111   1.765 -1.9763 -1.8748 -1.4682
12256TIP3   OH258258   0.038   1.649  14.630 -0.7774 -0.0560 -0.4298
12256TIP3    H158259   0.064   1.567  14.590 -0.5559 -0.1138 -0.1668
12256TIP3    H258260   0.102   1.713  14.600 -0.0126 -0.3071  0.6456
12257TIP3   OH258261   2.671   2.507   3.331  0.5475  0.2912 -0.2553
12257TIP3    H158262   2.639   2.499   3.241  1.5002  1.2899 -0.6935
12257TIP3    H258263   2.604   2.559   3.375  0.3980  0.3558 -0.5565
12258TIP3   OH258264   5.726   5.473  14.864 -0.3301 -0.0194  0.3210
12258TIP3    H158265   5.662   5.404  14.882 -0.1741  0.1682  1.6311
12258TIP3    H258266   5.674   5.553  14.864 -0.1612  0.0916  1.0023
12259TIP3   OH258267   5.365   2.255  15.231 -0.3284  0.0282 -0.2389
12259TIP3    H158268   5.301   2.202  15.184 -0.8917 -0.9896  1.6253
12259TIP3    H258269   5.334   2.255  15.322  1.0632  1.4424  0.2619
12260TIP3   OH258270   4.213   6.528   2.340 -0.2539  0.0049 -0.8292
12260TIP3    H158271   4.160   6.532   2.419 -0.5373 -0.4146 -0.9991
12260TIP3    H258272   4.222   6.435   2.321  1.3057  0.0367 -0.2912
12261TIP3   OH258273   5.595   3.716   6.021 -0.2263  0.1598 -0.1076
12261TIP3    H158274   5.563   3.632   5.989 -1.8759  0.4935  0.6023
12261TIP3    H258275   5.642   3.696   6.102 -0.5677 -0.0867  0.0289
12262TIP3   OH258276   1.684   5.283   5.201  0.1555  0.3146  0.3203
12262TIP3    H158277   1.716   5.193   5.203 -0.7091 -0.0215 -0.8268
12262TIP3    H258278   1.762   5.336   5.217  0.7487 -0.6048  0.5442
12263TIP3   OH258279   1.774   3.436   4.733  0.0611 -0.2055 -0.1794
12263TIP3    H158280   1.762   3.417   4.640  0.0079 -0.1640 -0.1808
12263TIP3    H258281   1.738   3.523   4.746 -0.8634 -0.6251  0.0886
12264TIP3   OH258282   5.524   5.601   5.774 -0.3238  0.1356  0.4808
12264TIP3    H158283   5.532   5.546   5.852  5.2535  2.0677  1.4916
12264TIP3    H258284   5.503   5.688   5.808  0.5605  0.6504 -0.2752
12265TIP3   OH258285   4.583   5.832  11.640 -0.0687 -0.3375 -0.0995
12265TIP3    H158286   4.576   5.883  11.720  0.7002  0.1194 -0.3157
12265TIP3    H258287   4.510   5.862  11.586 -0.3908 -0.4052  0.3003
12266TIP3   OH258288   3.007   4.703   6.283 -0.0350 -0.5213  0.7908
12266TIP3    H158289   3.097   4.724   6.307 -0.0900  3.3603 -1.8922
12266TIP3    H258290   3.011   4.681   6.190 -1.8891  0.1148  0.5363
12267TIP3   OH258291   6.613   0.651   0.531 -0.4596 -0.3559  0.2100
12267TIP3    H158292   6.545   0.586   0.513 -0.2525 -0.2553 -0.9669
12267TIP3    H258293   6.625   0.647   0.626 -0.4188 -2.0546  0.1498
12268TIP3   OH258294   0.417   3.831   0.879 -0.1931  0.1640 -0.4266
12268TIP3    H158295   0.351   3.842   0.947  0.3175  0.9284 -0.0481
12268TIP3    H258296   0.399   3.745   0.841  0.9851 -1.3194  2.2490
12269TIP3   OH258297   4.587   6.145  16.274  0.2171  0.2526  0.4115
12269TIP3    H158298   4.615   6.075  16.332 -0.5029 -0.3649  0.0197
12269TIP3    H258299   4.603   6.111  16.185 -0.6337  0.3702  0.2126
12270TIP3   OH258300   1.789   1.560  17.257 -0.1059 -0.2918 -0.2181
12270TIP3    H158301   1.875   1.550  17.215 -0.6100  0.5255 -1.4692
12270TIP3    H258302   1.786   1.490  17.322  2.0692  0.4973  0.8038
12271TIP3   OH258303   6.777   2.495  12.534 -0.5994  0.4656  0.1267
12271TIP3    H158304   6.750   2.405  12.517  0.4828  0.1396  0.0982
12271TIP3    H258305   6.844   2.487  12.602 -0.6800  1.2713  0.3038
12272TIP3   OH258306   4.004   0.944  15.789  0.1220 -0.0550 -0.0942
12272TIP3    H158307   4.091   0.906  15.773  0.2358  0.5147 -0.8481
12272TIP3    H258308   4.002   0.960  15.883  1.3266  1.1219 -0.2454
12273TIP3   OH258309   2.207   5.785   2.620  0.6584  0.1052 -0.5769
12273TIP3    H158310   2.114   5.806   2.632  0.7262  0.3360 -0.4474
12273TIP3    H258311   2.208   5.717   2.552  0.3798 -0.0834 -0.3899
12274TIP3   OH258312   2.470   6.660  16.149 -0.2811  0.0927  0.3877
12274TIP3    H158313   2.386   6.655  16.102  0.4939  1.7657 -1.2085
12274TIP3    H258314   2.520   6.586  16.115  0.1031  1.0283 -1.1269
12275TIP3   OH258315   4.880   0.056   3.420  0.2807 -0.1801  0.2648
12275TIP3    H158316   4.969   0.039   3.390  0.1444  0.2943 -0.4062
12275TIP3    H258317   4.889   0.070   3.514  0.8107 -0.8769  0.3233
12276TIP3   OH258318   6.416   4.980  12.283 -0.7768  0.7952  0.4877
12276TIP3    H158319   6.332   4.947  12.252 -1.0568  0.3233  1.7291
12276TIP3    H258320   6.396   5.025  12.365  0.0764  1.3099  0.4282
12277TIP3   OH258321   1.606   0.881   3.564 -0.5561 -0.5058  0.1192
12277TIP3    H158322   1.689   0.856   3.523 -0.8100  0.5706 -1.0751
12277TIP3    H258323   1.564   0.798   3.586  1.1452 -1.0663  1.3852
12278TIP3   OH258324   5.575   3.883   3.197  0.5534  0.4033 -0.1076
12278TIP3    H158325   5.560   3.805   3.251 -1.3602  0.5887 -0.3340
12278TIP3    H258326   5.617   3.946   3.255 -1.7042  0.6888  1.2481
12279TIP3   OH258327   6.407   4.783  16.326 -0.3301  0.3872 -0.1021
12279TIP3    H158328   6.466   4.842  16.279 -1.9001  1.0369 -1.3492
12279TIP3    H258329   6.339   4.841  16.360 -0.7690 -0.4513  0.4562
12280TIP3   OH258330   0.164   4.491  16.869  0.1422 -0.4349  0.1933
12280TIP3    H158331   0.259   4.482  16.877  0.1827 -0.5858 -0.4593
12280TIP3    H258332   0.150   4.513  16.777 -0.3420  1.1379  0.6238
12281TIP3   OH258333   1.907   5.790  13.611  0.1511  0.4589  0.1877
12281TIP3    H158334   1.948   5.758  13.531  1.5144  1.5635  0.4231
12281TIP3    H258335   1.882   5.880  13.590  0.2943  0.6699  0.9143
12282TIP3   OH258336   2.939   3.063   6.083 -0.0642  0.5060 -0.3466
12282TIP3    H158337   2.904   3.007   6.014 -0.4281  0.1481  0.1276
12282TIP3    H258338   3.021   3.020   6.109  0.4115  0.9962 -1.0053
12283TIP3   OH258339   1.100   1.389  14.936 -0.6210 -0.4374 -0.7086
12283TIP3    H158340   1.051   1.359  15.012  2.4174 -0.8736  1.1492
12283TIP3    H258341   1.070   1.479  14.922 -1.5341 -0.5100  0.7257
12284TIP3   OH258342   1.270   6.662   3.762  0.2961 -0.0124 -0.0672
12284TIP3    H158343   1.243   6.571   3.752 -1.5044  0.5641 -0.5780
12284TIP3    H258344   1.231   6.689   3.846  1.2654  0.1359  0.3400
12285TIP3   OH258345   5.437   3.728   0.984 -0.2266 -0.0135  0.0287
12285TIP3    H158346   5.525   3.766   0.978 -0.0704 -0.3648  0.0633
12285TIP3    H258347   5.423   3.688   0.898 -0.0079 -0.6976  0.3072
12286TIP3   OH258348   3.927   1.505  16.090 -0.2481  0.7979  0.0723
12286TIP3    H158349   3.943   1.529  16.182  0.1400  1.4867 -0.1739
12286TIP3    H258350   3.863   1.570  16.060  0.8100  1.5373 -0.5977
12287TIP3   OH258351   1.034   4.934   4.397 -0.4188  0.2064  0.0460
12287TIP3    H158352   0.997   4.904   4.315  0.7417 -0.5469 -0.2125
12287TIP3    H258353   1.096   5.002   4.372  0.0030 -0.0876  0.2917
12288TIP3   OH258354   2.663   0.369  14.838  0.1789  0.2938 -0.0441
12288TIP3    H158355   2.622   0.449  14.806  1.8050  2.0368  2.1456
12288TIP3    H258356   2.612   0.345  14.916  0.5334 -0.0609  0.0777
12289TIP3   OH258357   1.308   5.520   1.080 -0.0645  0.3329  0.5551
12289TIP3    H158358   1.288   5.602   1.125 -1.1048  0.8090 -0.7424
12289TIP3    H258359   1.378   5.480   1.132  2.4692  3.3952 -0.3799
12290TIP3   OH258360   6.224   1.753   4.821 -0.1359 -0.5010  0.3396
12290TIP3    H158361   6.302   1.703   4.845  0.0245 -0.5657 -0.3236
12290TIP3    H258362   6.156   1.687   4.808 -0.2907 -0.4474  0.8755
12291TIP3   OH258363   6.242   1.128  11.276  0.2055 -0.2237  0.1997
12291TIP3    H158364   6.153   1.162  11.270  0.8211  1.1955 -1.2227
12291TIP3    H258365   6.265   1.105  11.186  0.6410 -2.2768  0.8155
12292TIP3   OH258366   2.058   2.601   1.016  0.6219  0.2031  0.2906
12292TIP3    H158367   2.057   2.543   0.940  0.0295  0.2182  0.2878
12292TIP3    H258368   1.966   2.620   1.034  0.8415  1.8376 -0.2405
12293TIP3   OH258369   1.788   4.841  14.287  0.3842 -0.0316  0.1001
12293TIP3    H158370   1.792   4.901  14.361  0.9578 -0.1822  0.1931
12293TIP3    H258371   1.712   4.870  14.236  0.5766  0.6825  0.2222
12294TIP3   OH258372   5.082   0.618   0.267  0.0685  0.2521  0.5669
12294TIP3    H158373   5.120   0.677   0.202 -2.0608  0.1996 -0.7457
12294TIP3    H258374   5.073   0.671   0.346 -0.2821  1.2218 -0.1177
12295TIP3   OH258375   5.541   4.735  10.156  0.1260  0.1204  0.1488
12295TIP3    H158376   5.476   4.673  10.122 -1.0029  1.2759  0.1595
12295TIP3    H258377   5.563   4.702  10.243  0.4426 -0.9280 -0.3225
12296TIP3   OH258378   2.528   4.784   2.630  0.5211 -0.2072  0.3815
12296TIP3    H158379   2.527   4.707   2.573  0.8898  0.7462 -0.9163
12296TIP3    H258380   2.568   4.852   2.578 -0.5744  1.1164  1.2388
12297TIP3   OH258381   2.796   0.283  12.441 -0.1464  0.1473 -0.0245
12297TIP3    H158382   2.777   0.377  12.436 -1.4907 -0.0780  0.5152
12297TIP3    H258383   2.829   0.270  12.529 -1.9386 -0.2118  0.6088
12298TIP3   OH258384   3.631   1.217  16.349  0.3599 -0.1778  0.5502
12298TIP3    H158385   3.595   1.303  16.374  0.6193  0.8182 -2.3262
12298TIP3    H258386   3.726   1.227  16.362  0.4942  0.3362 -0.7520
12299TIP3   OH258387   2.471   1.040  15.318  0.1906 -0.8530 -0.1177
12299TIP3    H158388   2.472   1.026  15.223 -0.0816  1.6083 -0.5236
12299TIP3    H258389   2.563   1.059  15.340  0.4625 -2.6036  0.3291
12300TIP3   OH258390   3.215   4.341  14.957 -0.3072 -0.2652  0.0485
12300TIP3    H158391   3.177   4.253  14.951  0.7126 -0.8109  1.1910
12300TIP3    H258392   3.141   4.401  14.947 -1.3360 -1.2886  1.3304
12301TIP3   OH258393   4.108   0.216  17.160 -0.0303  0.3033  0.2252
12301TIP3    H158394   4.088   0.202  17.068 -1.4551  0.5784  0.4854
12301TIP3    H258395   4.185   0.274  17.159  0.4454 -0.3281 -0.7846
12302TIP3   OH258396   6.281   3.459  13.029  0.0465  0.5508  0.2396
12302TIP3    H158397   6.303   3.533  12.973  0.2190  1.4548  1.4922
12302TIP3    H258398   6.191   3.438  13.007 -0.0659  1.2534  0.0224
12303TIP3   OH258399   1.972   6.312  17.287  0.3785 -0.1160  0.3273
12303TIP3    H158400   1.961   6.217  17.290 -1.2810  0.0128 -0.9594
12303TIP3    H258401   1.908   6.346  17.349 -1.6006  0.3172 -1.9200
12304TIP3   OH258402   2.045   5.133   4.845  0.0193  0.0586 -0.2785
12304TIP3    H158403   2.016   5.224   4.854 -0.0486  0.0721 -0.6145
12304TIP3    H258404   2.017   5.107   4.757  0.4246 -0.1472 -0.3518
12305TIP3   OH258405   2.178   3.594  11.558  0.0269 -0.3782  0.8005
12305TIP3    H158406   2.134   3.519  11.597 -1.0890  0.5103  1.2842
12305TIP3    H258407   2.152   3.668  11.612  0.5970  0.4561 -0.0487
12306TIP3   OH258408   0.606   1.551   2.057 -0.4207 -0.6107 -0.1046
12306TIP3    H158409   0.613   1.546   2.153 -0.0661 -3.0005 -0.2232
12306TIP3    H258410   0.523   1.508   2.037  0.6401 -2.2987 -1.0030
12307TIP3   OH258411   2.225   6.321  16.356 -0.0942  0.1322 -0.2365
12307TIP3    H158412   2.173   6.296  16.434  1.1148  0.8749  0.8205
12307TIP3    H258413   2.168   6.298  16.282  0.6459 -5.2660  0.6398
12308TIP3   OH258414   0.902   0.652  12.461  0.2916  0.0286 -0.0047
12308TIP3    H158415   0.976   0.659  12.400  0.5676  2.8552  0.5886
12308TIP3    H258416   0.853   0.732  12.448 -0.8869 -0.3595  1.9225
12309TIP3   OH258417   6.700   6.416  10.635  0.3109 -0.3031  0.0311
12309TIP3    H158418   6.613   6.452  10.615  0.1872 -0.4628  0.2817
12309TIP3    H258419   6.761   6.487  10.614  0.0587  0.1081  0.6728
12310TIP3   OH258420   3.440   2.764  12.362 -0.4398  0.0257  0.0410
12310TIP3    H158421   3.388   2.776  12.442  0.1915 -0.0497  0.4638
12310TIP3    H258422   3.435   2.848  12.317  1.6793  1.0503  1.6269
12311TIP3   OH258423   4.896   5.690  11.287 -0.1429  1.0754  0.1954
12311TIP3    H158424   4.845   5.759  11.329 -0.8470 -0.6142  2.2875
12311TIP3    H258425   4.984   5.699  11.324 -0.2934  0.7398  0.6485
12312TIP3   OH258426   0.662   3.423  13.156 -0.1068 -0.7725 -0.0178
12312TIP3    H158427   0.581   3.385  13.124 -0.4952 -0.4792  0.6088
12312TIP3    H258428   0.655   3.420  13.252 -0.5244  1.6075  0.0695
12313TIP3   OH258429   0.657   1.770   1.044  0.0289  0.0498  0.2961
12313TIP3    H158430   0.704   1.687   1.034 -1.0169 -0.6742  1.2666
12313TIP3    H258431   0.679   1.800   1.132  0.6631  0.9873 -0.1651
12314TIP3   OH258432   1.799   6.814   4.360 -0.1529 -0.1265  0.3357
12314TIP3    H158433   1.711   6.846   4.342  0.1171 -0.2796 -1.4017
12314TIP3    H258434   1.798   6.722   4.334  0.8969  0.2427 -1.1072
12315TIP3   OH258435   1.084   6.711  16.346  0.4255  0.3074  0.2438
12315TIP3    H158436   1.034   6.748  16.419 -1.6897  0.6536 -1.3199
12315TIP3    H258437   1.017   6.689  16.280  2.3715  1.1696 -2.0964
12316TIP3   OH258438   4.670   0.334   2.824  0.3175  0.0709 -0.0246
12316TIP3    H158439   4.759   0.352   2.794 -0.0648  0.1010 -1.1964
12316TIP3    H258440   4.660   0.239   2.812 -0.4727  0.3485 -1.8620
12317TIP3   OH258441   0.317   2.864   1.090  0.0575 -0.1872  0.0982
12317TIP3    H158442   0.227   2.877   1.061 -0.1625 -0.0825  0.8435
12317TIP3    H258443   0.314   2.871   1.185  0.8273 -0.3308  0.1386
12318TIP3   OH258444   2.155   1.681   0.580 -0.0457 -0.4184 -0.2562
12318TIP3    H158445   2.183   1.674   0.671 -0.6292 -2.9684 -0.2388
12318TIP3    H258446   2.193   1.764   0.550  1.1490 -0.1237  1.9385
12319TIP3   OH258447   2.903   4.649   2.537  0.6292 -0.0187 -0.0436
12319TIP3    H158448   2.839   4.705   2.496  1.5649  0.9825 -0.1618
12319TIP3    H258449   2.933   4.698   2.614  2.9860  0.5949 -1.3046
12320TIP3   OH258450   5.197   6.519  12.997  0.3467  0.3458  0.6618
12320TIP3    H158451   5.183   6.499  13.089  0.4180 -0.1568  0.5645
12320TIP3    H258452   5.148   6.600  12.982 -0.8659 -0.3422  0.8020
12321TIP3   OH258453   2.816   0.106   3.350  0.3547 -0.1080 -0.5910
12321TIP3    H158454   2.753   0.049   3.307  2.3434 -1.1800 -2.1683
12321TIP3    H258455   2.877   0.047   3.393  2.0064  0.7851 -1.6211
12322TIP3   OH258456   1.314   5.165   4.046  0.5398  0.2007 -0.0222
12322TIP3    H158457   1.358   5.181   4.129  1.7514 -0.8450 -0.4412
12322TIP3    H258458   1.259   5.088   4.062 -2.3559  2.3848  0.9251
12323TIP3   OH258459   4.338   0.734  14.509 -0.4413  0.2093 -0.1924
12323TIP3    H158460   4.292   0.813  14.480  0.4276  1.1580  0.9468
12323TIP3    H258461   4.272   0.685  14.559 -1.3671 -0.4642 -2.0316
12324TIP3   OH258462   4.282   3.963  16.862 -0.2704  0.4072  0.3244
12324TIP3    H158463   4.232   3.914  16.927 -1.0575  1.1291  0.2736
12324TIP3    H258464   4.218   3.986  16.794  0.5592 -0.4263 -0.7650
12325TIP3   OH258465   5.681   4.487  16.703 -0.0539 -0.7534 -0.1685
12325TIP3    H158466   5.776   4.492  16.697 -0.1660  1.2703 -0.4171
12325TIP3    H258467   5.649   4.545  16.634 -1.4617 -0.6061  0.5814
12326TIP3   OH258468   0.762   1.620   5.948 -0.1320 -0.1222  0.4672
12326TIP3    H158469   0.713   1.699   5.972  0.6543 -0.0039  1.7441
12326TIP3    H258470   0.854   1.648   5.948  0.1336 -0.9795  0.6855
12327TIP3   OH258471   6.031   2.121  15.599  0.2271 -0.0758 -0.2335
12327TIP3    H158472   5.946   2.160  15.576  1.3213  1.8782 -1.1200
12327TIP3    H258473   6.050   2.061  15.527  0.3898  0.7922 -0.9240
12328TIP3   OH258474   0.670   5.147   2.013  0.2823  0.5010  0.1945
12328TIP3    H158475   0.614   5.183   1.945  1.4629  1.4589 -0.2949
12328TIP3    H258476   0.758   5.179   1.992  1.4027 -2.6195 -0.2257
12329TIP3   OH258477   2.665   6.164  15.489 -0.1336 -0.1343  0.7320
12329TIP3    H158478   2.732   6.096  15.484  2.0457  1.9837  0.3572
12329TIP3    H258479   2.629   6.156  15.578 -0.3009 -2.0998  0.5069
12330TIP3   OH258480   5.593   0.669  12.244 -0.2931  0.2200 -0.9252
12330TIP3    H158481   5.545   0.751  12.232 -0.3303  0.3602  0.1329
12330TIP3    H258482   5.525   0.605  12.267 -0.2034 -0.0111 -1.2963
12331TIP3   OH258483   6.529   0.778   1.365 -0.1301  0.4678  0.3439
12331TIP3    H158484   6.461   0.740   1.310  0.2648 -0.2263  0.3207
12331TIP3    H258485   6.609   0.771   1.313  0.3343 -0.6456  1.1868
12332TIP3   OH258486   4.267   3.453  14.901  0.1251 -0.4280  0.0728
12332TIP3    H158487   4.325   3.468  14.976  1.0136  0.0845 -0.7213
12332TIP3    H258488   4.248   3.540  14.867 -0.2642 -0.6612 -0.3109
12333TIP3   OH258489   2.503   1.731  13.755  0.8464  0.0589  0.2429
12333TIP3    H158490   2.565   1.658  13.764  0.1393 -0.6800 -0.8250
12333TIP3    H258491   2.494   1.765  13.844  0.4420 -1.7634  0.9310
12334TIP3   OH258492   5.829   0.590  12.295  0.0798 -0.3281  0.4210
12334TIP3    H158493   5.736   0.603  12.279 -0.0292  0.7731  1.8088
12334TIP3    H258494   5.872   0.663  12.251 -0.0710  1.5746  3.3071
12335TIP3   OH258495   5.378   4.618  15.266 -0.8230  0.0965  0.6787
12335TIP3    H158496   5.340   4.673  15.334 -1.7179 -0.3981  0.5825
12335TIP3    H258497   5.343   4.652  15.184  0.4793  0.8763  0.4254
12336TIP3   OH258498   0.636   1.432  13.676  0.1797 -0.5684  0.0376
12336TIP3    H158499   0.641   1.481  13.758 -0.2308  0.4306 -0.5284
12336TIP3    H258500   0.706   1.367  13.682  0.5363 -0.1012  0.9245
12337TIP3   OH258501   1.486   4.319  13.660  0.4013  0.7301  0.1097
12337TIP3    H158502   1.404   4.331  13.611  2.2782  0.1919 -3.2954
12337TIP3    H258503   1.542   4.391  13.630  1.3453  0.8349  2.0776
12338TIP3   OH258504   1.201   2.355   2.092 -0.2478 -0.7517 -0.1391
12338TIP3    H158505   1.134   2.312   2.039 -2.3367  1.2917  0.7545
12338TIP3    H258506   1.161   2.363   2.179  1.7844 -0.9305  0.8456
12339TIP3   OH258507   6.493   0.038   1.052 -0.0539 -0.2681 -0.0529
12339TIP3    H158508   6.465  -0.051   1.076  0.3166 -0.6399 -0.9818
12339TIP3    H258509   6.412   0.085   1.033 -0.2483 -0.4182  0.3897
12340TIP3   OH258510   0.403   6.095  12.202  0.0412 -0.8305  0.4826
12340TIP3    H158511   0.478   6.053  12.161 -0.7940  0.3412 -2.4057
12340TIP3    H258512   0.332   6.083  12.139 -1.8245 -0.6689  2.5142
12341TIP3   OH258513   0.648   5.494   2.432 -0.6518 -0.0560 -0.0981
12341TIP3    H158514   0.724   5.551   2.446 -1.0301  0.2892  0.5716
12341TIP3    H258515   0.684   5.405   2.436 -0.1882  0.1151 -0.3629
12342TIP3   OH258516   4.677   3.834   3.847  0.4901 -1.0933 -0.5245
12342TIP3    H158517   4.744   3.787   3.797  2.5572  0.3160  0.8796
12342TIP3    H258518   4.723   3.908   3.886 -1.8071 -0.3094  0.7847
12343TIP3   OH258519   6.142   0.434   2.997  0.2941 -0.1448 -0.0822
12343TIP3    H158520   6.214   0.405   2.941  0.0635 -1.4882  0.3051
12343TIP3    H258521   6.154   0.529   3.004  0.5573 -0.0057 -2.0750
12344TIP3   OH258522   2.548   3.976  12.643  0.4492 -0.4087  0.2158
12344TIP3    H158523   2.498   3.981  12.724 -0.7079  1.9123 -0.5898
12344TIP3    H258524   2.606   4.052  12.646 -0.3165  0.2860 -1.5566
12345TIP3   OH258525   2.930   5.948   2.522  0.2190  0.6537  0.4249
12345TIP3    H158526   2.888   6.020   2.474 -0.0468  2.0536  2.6325
12345TIP3    H258527   3.011   5.986   2.555  0.6631 -0.4426  0.6036
12346TIP3   OH258528   4.438   1.523  14.081 -0.0583  0.1267 -0.2138
12346TIP3    H158529   4.365   1.585  14.078  0.9954  1.6253  2.8929
12346TIP3    H258530   4.494   1.547  14.007 -1.7731  0.1400 -1.5203
12347TIP3   OH258531   3.794   5.920   4.417 -0.4126 -0.0428  0.3622
12347TIP3    H158532   3.889   5.915   4.412 -0.4423  0.6727 -1.3134
12347TIP3    H258533   3.768   5.956   4.333 -2.2080 -0.6688  0.6342
12348TIP3   OH258534   2.347   4.401  15.060 -0.6526  0.2036 -1.0501
12348TIP3    H158535   2.382   4.332  15.004  1.3213  0.1690  0.1617
12348TIP3    H258536   2.361   4.369  15.149 -0.9338  1.5716 -0.4985
12349TIP3   OH258537   0.933   2.193   4.699 -0.1368 -0.4939  0.3416
12349TIP3    H158538   0.845   2.189   4.738  0.3285 -1.0103  1.3643
12349TIP3    H258539   0.971   2.273   4.735 -0.2957 -0.1015 -0.3514
12350TIP3   OH258540   4.583   3.424   4.848  0.1386 -0.2347  0.0591
12350TIP3    H158541   4.498   3.451   4.814  1.0139  0.7239 -1.4327
12350TIP3    H258542   4.567   3.406   4.941 -1.9419 -1.3306 -0.4854
12351TIP3   OH258543   1.635   4.705   5.315  0.5554  0.3753  1.0033
12351TIP3    H158544   1.686   4.631   5.281  2.0548  0.6915  2.4896
12351TIP3    H258545   1.690   4.782   5.296  0.7315  0.7090  2.7689
12352TIP3   OH258546   1.590   6.718  12.278 -0.3290 -0.0530 -0.0552
12352TIP3    H158547   1.684   6.736  12.287 -0.3387  0.3518 -0.7915
12352TIP3    H258548   1.566   6.755  12.193 -1.4859  1.2276  0.8064
12353TIP3   OH258549   0.250   2.950   5.283  0.4577  0.3922  0.3753
12353TIP3    H158550   0.267   2.874   5.228 -0.6987  0.8166 -0.6097
12353TIP3    H258551   0.199   2.915   5.356  2.1616 -0.2076  1.2910
12354TIP3   OH258552   2.587   2.384   0.388  0.2511  0.3609  0.3926
12354TIP3    H158553   2.627   2.461   0.427 -0.2023  0.4618  0.6538
12354TIP3    H258554   2.498   2.411   0.365  1.3273  1.1223 -3.1473
12355TIP3   OH258555   3.547   0.873   0.713 -0.7244 -0.4043  0.1794
12355TIP3    H158556   3.590   0.819   0.780  0.8090 -2.5851 -2.4546
12355TIP3    H258557   3.463   0.830   0.698 -0.6817 -0.4431  0.0528
12356TIP3   OH258558   6.309   6.025  12.730  0.4894 -0.0648  0.0364
12356TIP3    H158559   6.263   6.101  12.765 -0.1369 -0.6194  0.4307
12356TIP3    H258560   6.402   6.047  12.739  0.3046  1.3399 -1.3787
12357TIP3   OH258561   2.788   4.683   0.185  0.3958 -0.2092 -0.2652
12357TIP3    H158562   2.758   4.698   0.096 -1.2290 -0.1925  0.2592
12357TIP3    H258563   2.853   4.613   0.178  1.3076  0.7700 -1.6177
12358TIP3   OH258564   4.800   5.914  11.070  0.0573 -0.0050  0.2077
12358TIP3    H158565   4.791   5.970  11.148  1.6900  1.6521 -0.7576
12358TIP3    H258566   4.893   5.895  11.064  0.0565  0.5384 -1.7904
12359TIP3   OH258567   5.249   4.453   2.723 -0.3994  0.1259  0.7804
12359TIP3    H158568   5.259   4.547   2.713 -0.2216  0.0657  0.3796
12359TIP3    H258569   5.306   4.430   2.796 -0.0894  0.2615  0.5792
12360TIP3   OH258570   4.600   5.200  16.729  1.1534  0.0044 -0.6811
12360TIP3    H158571   4.669   5.180  16.793  2.3011 -2.3915 -2.5494
12360TIP3    H258572   4.647   5.239  16.655  0.1929  0.3389 -1.1195
12361TIP3   OH258573   2.175   1.734  12.834 -0.1919  0.0086  0.5548
12361TIP3    H158574   2.215   1.815  12.865  1.6527 -1.2647  1.5942
12361TIP3    H258575   2.214   1.719  12.748  1.0196 -0.8183  1.2317
12362TIP3   OH258576   4.861   3.817  12.613 -0.2386 -0.6182 -0.2947
12362TIP3    H158577   4.892   3.742  12.563  0.3133 -0.7641  0.2673
12362TIP3    H258578   4.772   3.793  12.638 -0.2131 -0.9068 -0.4760
12363TIP3   OH258579   1.412   5.763   0.024 -1.1011  0.6247 -0.0609
12363TIP3    H158580   1.385   5.794   0.110  0.2727  0.2396  0.5138
12363TIP3    H258581   1.356   5.687   0.007 -2.2878  1.5008 -0.0978
12364TIP3   OH258582   3.261   3.832   1.874 -0.2670  0.1250  0.4255
12364TIP3    H158583   3.214   3.867   1.799  1.1949  0.9090 -0.1387
12364TIP3    H258584   3.194   3.822   1.942 -1.4604  0.0755 -0.7418
12365TIP3   OH258585   2.509   2.230  13.115 -0.1688  0.4869 -0.0892
12365TIP3    H158586   2.536   2.309  13.069 -1.1687  0.0969 -1.3780
12365TIP3    H258587   2.419   2.215  13.087  0.0008 -1.1027  0.1409
12366TIP3   OH258588   3.395   2.472  12.450 -0.5765  0.0871  0.5217
12366TIP3    H158589   3.427   2.489  12.539  2.3805  1.3536 -0.7197
12366TIP3    H258590   3.414   2.552  12.402 -1.0773 -1.0082 -1.5588
12367TIP3   OH258591   0.707   1.667  14.931  0.0390 -0.2999 -0.2031
12367TIP3    H158592   0.683   1.730  14.999  0.8890 -0.3052  0.0983
12367TIP3    H258593   0.688   1.582  14.971  0.8221 -0.3162  0.1437
12368TIP3   OH258594   4.312   0.203   6.349 -0.1922 -0.2723 -0.0147
12368TIP3    H158595   4.385   0.142   6.353 -1.6471 -2.0320  0.1868
12368TIP3    H258596   4.234   0.149   6.358 -1.6436  1.3054 -2.4420
12369TIP3   OH258597   0.480   4.734   2.924  0.0500  0.2948 -0.6128
12369TIP3    H158598   0.507   4.754   2.835  4.2124 -2.0949 -0.0230
12369TIP3    H258599   0.422   4.658   2.915  1.5500 -0.7961 -1.2238
12370TIP3   OH258600   0.030   6.344  11.176 -0.1311 -0.1681  0.0274
12370TIP3    H158601  -0.035   6.413  11.190 -0.7541 -1.0621  1.7586
12370TIP3    H258602   0.101   6.387  11.128 -0.9802  1.4005  0.1406
12371TIP3   OH258603   5.615   1.897  17.149 -0.4432  0.0938 -0.1622
12371TIP3    H158604   5.567   1.817  17.174  0.5863 -0.6905 -0.6799
12371TIP3    H258605   5.579   1.921  17.064  0.5115 -0.8520 -0.8400
12372TIP3   OH258606   4.729   3.258  17.099 -0.7293  0.6717 -0.1121
12372TIP3    H158607   4.675   3.204  17.157  0.1236 -0.0407  0.0416
12372TIP3    H258608   4.669   3.288  17.031 -1.3931  0.1927  0.2525
12373TIP3   OH258609   4.481   5.443  11.469 -0.3816 -0.5042 -0.9999
12373TIP3    H158610   4.573   5.438  11.491 -0.3388 -0.8645 -1.2454
12373TIP3    H258611   4.448   5.353  11.479 -0.9135 -0.2040 -0.0272
12374TIP3   OH258612   5.955   6.177  11.032  0.4178 -0.3635  0.4265
12374TIP3    H158613   5.942   6.101  11.089  0.7945 -1.5158 -1.0078
12374TIP3    H258614   5.923   6.149  10.947  0.4520  1.1433 -0.1015
12375TIP3   OH258615   1.748   5.072   1.513  0.6810 -0.2845 -0.3460
12375TIP3    H158616   1.730   5.080   1.606  1.6718  0.4456 -0.2122
12375TIP3    H258617   1.809   5.144   1.494  2.1496 -1.7168 -1.1220
12376TIP3   OH258618   4.722   0.521   3.979 -0.2166  0.2320 -0.1666
12376TIP3    H158619   4.705   0.615   3.988 -2.0511 -0.0766 -0.2188
12376TIP3    H258620   4.760   0.512   3.891  0.8414  1.0219  0.1947
12377TIP3   OH258621   5.394   4.630  16.317  0.2093 -0.3354  0.1170
12377TIP3    H158622   5.302   4.658  16.312  0.3352  0.0033 -0.2692
12377TIP3    H258623   5.390   4.546  16.364 -0.1965  0.1638  0.9824
12378TIP3   OH258624   2.055   4.045  13.538 -0.5909 -0.0037 -0.0865
12378TIP3    H158625   2.055   3.963  13.587  2.2208 -0.2032 -0.3438
12378TIP3    H258626   2.144   4.052  13.503 -1.3911  2.1160 -1.8272
12379TIP3   OH258627   6.671   1.543   1.760 -0.1668 -0.1397 -0.5120
12379TIP3    H158628   6.637   1.514   1.844 -0.6054 -0.3311 -0.7541
12379TIP3    H258629   6.735   1.611   1.782  0.5419 -0.9691  0.0376
12380TIP3   OH258630   6.481   1.090   3.517  0.3070  0.4928 -0.3468
12380TIP3    H158631   6.416   1.024   3.491 -2.2509  2.5883  0.4957
12380TIP3    H258632   6.546   1.088   3.447 -0.9572 -1.3001 -1.5158
12381TIP3   OH258633   0.293   3.682  10.613 -0.5382  0.2281  0.2137
12381TIP3    H158634   0.306   3.606  10.556 -0.5600 -0.4471  1.1057
12381TIP3    H258635   0.278   3.755  10.552  0.9630 -0.1985 -0.6827
12382TIP3   OH258636   3.520   2.963  16.262  0.1837  0.2955 -0.4018
12382TIP3    H158637   3.534   2.868  16.274 -1.0146 -0.0398 -1.5728
12382TIP3    H258638   3.512   2.974  16.167 -1.8263  1.2676 -0.1366
12383TIP3   OH258639   3.846   1.199  13.609 -0.6625 -0.1797 -0.0288
12383TIP3    H158640   3.912   1.218  13.676 -1.0252 -1.1671  0.6284
12383TIP3    H258641   3.785   1.272  13.615 -2.0800 -1.4806  2.5047
12384TIP3   OH258642   1.710   6.336  13.207 -0.3474 -0.0078 -0.1667
12384TIP3    H158643   1.618   6.357  13.195 -0.3271  0.4945  0.5677
12384TIP3    H258644   1.724   6.258  13.153 -1.9676 -2.0660  2.2884
12385TIP3   OH258645   6.181   3.622   4.124  0.7417 -0.4436  0.2525
12385TIP3    H158646   6.184   3.717   4.135  0.4668 -0.0580 -2.6797
12385TIP3    H258647   6.272   3.597   4.107  0.6843 -0.6032  0.1803
12386TIP3   OH258648   6.659   4.849  14.979 -0.4083 -0.5326 -0.7104
12386TIP3    H158649   6.687   4.822  14.891 -2.0822 -0.6736 -1.2199
12386TIP3    H258650   6.594   4.917  14.964  0.5270  0.6623  0.4852
12387TIP3   OH258651   1.676   5.215   4.805 -0.4069 -0.3814 -0.1428
12387TIP3    H158652   1.649   5.139   4.857 -1.3856 -0.4840 -0.7976
12387TIP3    H258653   1.623   5.211   4.726 -0.0057  0.6308 -0.4766
12388TIP3   OH258654   4.806   2.921   3.192  0.4003  0.5226  0.5501
12388TIP3    H158655   4.751   2.968   3.255 -0.0247  1.1043 -0.2529
12388TIP3    H258656   4.829   2.840   3.237  0.3164  1.0466  1.5601
12389TIP3   OH258657   6.210   1.157  12.487 -0.6813 -0.3978 -0.9749
12389TIP3    H158658   6.250   1.098  12.550 -0.2852 -2.2630 -2.9160
12389TIP3    H258659   6.242   1.126  12.402 -3.0981  0.5496 -2.2680
12390TIP3   OH258660   2.396   1.946  13.230 -0.2349 -0.9136  0.6955
12390TIP3    H158661   2.335   2.011  13.197  0.0867 -0.2190  1.4587
12390TIP3    H258662   2.350   1.863  13.222  0.1377 -0.8683 -2.2745
12391TIP3   OH258663   3.972   2.169  10.588 -0.3191 -0.2886  0.2088
12391TIP3    H158664   3.908   2.137  10.651  1.0051 -0.6749  1.3843
12391TIP3    H258665   4.053   2.124  10.611  0.7710  1.4141 -0.2165
12392TIP3   OH258666   4.344   3.980   1.364  0.2191  0.0068 -0.1561
12392TIP3    H158667   4.285   3.922   1.413 -0.0913  0.5787  0.1421
12392TIP3    H258668   4.323   3.963   1.272 -0.7551  0.5670 -0.0387
12393TIP3   OH258669   0.870   6.614   4.347  0.0984  0.4556 -0.0030
12393TIP3    H158670   0.849   6.659   4.429 -3.4135 -0.2108 -0.4595
12393TIP3    H258671   0.960   6.641   4.327  0.4880  1.8306  3.2470
12394TIP3   OH258672   3.130   4.426  16.960 -0.5847  0.2491  0.6879
12394TIP3    H158673   3.175   4.401  16.879  0.0279  3.3539 -0.0255
12394TIP3    H258674   3.039   4.438  16.933 -0.4911  0.6929  0.5459
12395TIP3   OH258675   0.434   1.880  10.945  0.2219 -1.0853 -0.2246
12395TIP3    H158676   0.441   1.786  10.930  0.0744 -1.3596  1.3545
12395TIP3    H258677   0.454   1.920  10.860  0.8231 -2.5192 -0.7638
12396TIP3   OH258678   5.989   6.244   0.525 -0.5491  0.2718 -0.1485
12396TIP3    H158679   6.070   6.293   0.540 -0.7301  0.2422  0.9586
12396TIP3    H258680   5.920   6.310   0.532 -0.7515 -0.0344  0.7570
12397TIP3   OH258681   6.006   6.075   1.191 -0.1750  0.1583 -0.1516
12397TIP3    H158682   6.079   6.059   1.131 -0.3043 -1.1648  0.0319
12397TIP3    H258683   6.047   6.100   1.273  0.0259  1.1323 -0.5470
12398TIP3   OH258684   3.215   0.184  11.858  0.0987 -0.0297  0.6030
12398TIP3    H158685   3.146   0.131  11.819 -0.5285 -0.0440  1.6987
12398TIP3    H258686   3.238   0.138  11.939  3.8116 -1.8826 -1.3752
12399TIP3   OH258687   3.732   2.471  12.482 -0.1128  0.4430  0.1283
12399TIP3    H158688   3.732   2.499  12.390 -0.2507  1.9186  0.5706
12399TIP3    H258689   3.639   2.467  12.506 -0.0879 -0.2130  0.1328
12400TIP3   OH258690   4.888   5.334  13.850 -0.1786 -0.1350  0.6460
12400TIP3    H158691   4.808   5.356  13.899 -0.5920  1.2139 -0.5704
12400TIP3    H258692   4.895   5.239  13.856 -0.0125  0.0371  3.6085
12401TIP3   OH258693   5.888   6.248  11.588 -0.6326  0.2514 -0.1572
12401TIP3    H158694   5.942   6.286  11.520  0.0640 -1.4243 -0.5731
12401TIP3    H258695   5.803   6.232  11.546 -0.3948 -0.2130 -0.4678
12402TIP3   OH258696   6.716   3.103  16.565 -0.0298 -0.7492 -0.2930
12402TIP3    H158697   6.738   3.048  16.490 -0.3947 -0.3598 -0.6876
12402TIP3    H258698   6.644   3.057  16.608  0.3737 -1.1210 -0.0124
12403TIP3   OH258699   2.090   2.431  11.346 -0.3243  0.0862  0.3652
12403TIP3    H158700   2.147   2.361  11.379  0.1998 -0.4974 -1.7334
12403TIP3    H258701   2.082   2.492  11.420 -0.4444 -1.9571  2.0761
12404TIP3   OH258702   3.819   1.608  11.314 -0.3328 -0.0098 -0.3742
12404TIP3    H158703   3.761   1.677  11.346 -0.9818 -0.5713 -0.3152
12404TIP3    H258704   3.877   1.589  11.388  0.6201  1.2712 -0.7730
12405TIP3   OH258705   6.680   5.236   0.091 -0.0500 -0.2523 -0.0767
12405TIP3    H158706   6.595   5.215   0.130 -1.3985  0.3571 -2.5814
12405TIP3    H258707   6.706   5.318   0.134 -0.3415 -0.8369  1.2494
12406TIP3   OH258708   2.405   6.653   4.429  0.3085  1.0502  0.1699
12406TIP3    H158709   2.437   6.636   4.518 -0.6133  2.5270  0.7994
12406TIP3    H258710   2.483   6.681   4.381  1.3738 -2.3170 -0.2407
12407TIP3   OH258711   2.600   1.516  16.190  0.0012  0.6590 -0.4037
12407TIP3    H158712   2.613   1.566  16.271  0.8347  0.0355 -0.1363
12407TIP3    H258713   2.550   1.574  16.133 -1.1241  0.8739  0.7824
12408TIP3   OH258714   2.547   4.364  12.137 -0.0704 -0.5404  0.6412
12408TIP3    H158715   2.611   4.379  12.067  1.0581 -1.7502  1.3769
12408TIP3    H258716   2.477   4.426  12.119  0.8299  0.1027 -0.7887
12409TIP3   OH258717   4.048   3.403  15.656 -0.3807  0.0676  0.3376
12409TIP3    H158718   4.076   3.422  15.567 -2.2540 -1.2448 -0.5604
12409TIP3    H258719   4.114   3.343  15.691  0.4262  0.6925 -0.0949
12410TIP3   OH258720   4.842   2.480   2.442  0.0624  0.1620  0.0465
12410TIP3    H158721   4.835   2.558   2.496 -0.3218 -0.0540  0.3103
12410TIP3    H258722   4.783   2.496   2.368 -0.8107 -0.3083  0.6293
12411TIP3   OH258723   5.484   3.985  11.201  0.5457  0.4553 -0.1705
12411TIP3    H158724   5.483   4.029  11.115  0.9068 -0.1992 -0.5091
12411TIP3    H258725   5.528   4.047  11.259  0.0310  1.0318 -0.3848
12412TIP3   OH258726   4.416   0.781   4.003 -0.0773 -0.4438 -0.0330
12412TIP3    H158727   4.426   0.798   4.097 -0.9581  0.0768 -0.0259
12412TIP3    H258728   4.392   0.866   3.966  2.2385 -0.1868 -1.0398
12413TIP3   OH258729   4.464   4.720   4.315 -0.2327 -0.1857 -0.0987
12413TIP3    H158730   4.527   4.783   4.281 -0.7028  1.1098  1.3490
12413TIP3    H258731   4.509   4.679   4.389 -0.4474 -0.5281 -0.1583
12414TIP3   OH258732   0.699   6.809   3.577  0.3902  0.3249 -0.8358
12414TIP3    H158733   0.794   6.813   3.574  0.4496  1.0145  1.1771
12414TIP3    H258734   0.674   6.762   3.497  2.3492  0.9459 -1.8274
12415TIP3   OH258735   2.321   5.637  15.279  0.5136  0.0568  0.5501
12415TIP3    H158736   2.236   5.605  15.310 -0.2459  1.3529 -0.1605
12415TIP3    H258737   2.304   5.669  15.191  2.2968 -1.9778 -0.5808
12416TIP3   OH258738   5.893   3.035  14.624  0.3339  0.7743  0.0446
12416TIP3    H158739   5.899   3.024  14.529  1.0201  2.3242 -0.1023
12416TIP3    H258740   5.800   3.052  14.640 -0.0026 -0.7909 -0.1952
12417TIP3   OH258741   6.634   3.588  12.204  0.8151 -0.4571  0.1496
12417TIP3    H158742   6.562   3.617  12.260 -0.3200 -0.6024 -1.2101
12417TIP3    H258743   6.683   3.668  12.185  1.2954 -0.4356  1.4762
12418TIP3   OH258744   2.718   6.081  17.144  0.7633 -0.3095 -0.4174
12418TIP3    H158745   2.739   5.989  17.163  2.6534 -0.2499 -2.0737
12418TIP3    H258746   2.784   6.108  17.080 -1.0661  1.5643 -1.5868
12419TIP3   OH258747   3.235   2.116   2.946  0.0669  0.2228 -0.7808
12419TIP3    H158748   3.161   2.135   2.887 -0.0736  1.0958 -0.3319
12419TIP3    H258749   3.304   2.176   2.916 -0.2732  1.2467  0.4535
12420TIP3   OH258750   6.155   6.672   2.924  0.6712 -0.3329 -0.4059
12420TIP3    H158751   6.227   6.722   2.960  0.7715 -1.5451  1.0999
12420TIP3    H258752   6.094   6.660   2.997 -0.2587 -0.7724 -1.2291
12421TIP3   OH258753   4.664   1.105   5.595 -0.1003 -0.1174  0.0220
12421TIP3    H158754   4.631   1.089   5.506 -1.0785  0.4352  0.2879
12421TIP3    H258755   4.606   1.171   5.631  1.7992  1.4979  0.2040
12422TIP3   OH258756   6.242   0.496  15.706 -0.3612  0.6676  0.2215
12422TIP3    H158757   6.325   0.519  15.663  0.2198 -2.0297 -0.1530
12422TIP3    H258758   6.186   0.465  15.635 -0.6477 -0.3774  0.8959
12423TIP3   OH258759   6.445   1.312   3.219 -0.2846 -0.5761  0.0100
12423TIP3    H158760   6.526   1.360   3.239 -0.2037  0.1149 -1.8289
12423TIP3    H258761   6.474   1.233   3.175 -0.5452 -1.0574  0.7029
12424TIP3   OH258762   1.269   2.637  15.103 -0.1807  0.5703 -0.5103
12424TIP3    H158763   1.347   2.596  15.139 -0.6433 -1.8758 -2.1878
12424TIP3    H258764   1.302   2.713  15.054  0.7265  1.9152  2.0735
12425TIP3   OH258765   3.921   1.128  12.797  0.5752  0.0030 -0.1320
12425TIP3    H158766   3.911   1.222  12.785 -0.6349  0.0338  1.0655
12425TIP3    H258767   3.888   1.090  12.716 -0.7763  0.5215  0.1711
12426TIP3   OH258768   1.280   5.332  13.107 -0.1098 -0.1356 -0.0994
12426TIP3    H158769   1.341   5.352  13.036  0.5375  2.4747  1.1603
12426TIP3    H258770   1.216   5.403  13.105 -1.3639 -1.2132  0.5638
12427TIP3   OH258771   3.197   4.997  16.691  0.6093  0.3951  0.6514
12427TIP3    H158772   3.118   5.022  16.738 -0.1347 -0.9008  0.1266
12427TIP3    H258773   3.182   5.025  16.601 -0.4363 -2.2235 -0.0500
12428TIP3   OH258774   0.403   4.887  14.181  0.3417 -0.5812  0.1653
12428TIP3    H158775   0.307   4.893  14.184  0.3543  0.5169 -1.0908
12428TIP3    H258776   0.420   4.801  14.142 -0.1339 -0.7124  0.2422
12429TIP3   OH258777   0.875   3.154   4.273 -0.2249  1.1482 -0.0521
12429TIP3    H158778   0.839   3.103   4.200 -0.7333  0.8424  0.4137
12429TIP3    H258779   0.949   3.201   4.234 -0.6528  1.1928 -0.8291
12430TIP3   OH258780   2.205   2.030   5.438 -0.4978 -0.0746  0.4865
12430TIP3    H158781   2.115   2.059   5.423 -0.5635 -0.5969 -0.1615
12430TIP3    H258782   2.200   1.975   5.516 -0.8450 -0.5936  0.0993
12431TIP3   OH258783   3.636   4.028   0.617  0.2258 -0.1004 -0.6984
12431TIP3    H158784   3.693   4.094   0.657  0.2065 -1.2320  1.2685
12431TIP3    H258785   3.550   4.044   0.656  0.3499 -1.6470  0.2731
12432TIP3   OH258786   0.460   0.619  14.962 -0.2030  0.0580 -0.1738
12432TIP3    H158787   0.461   0.543  15.021 -2.6189 -0.0005 -0.1729
12432TIP3    H258788   0.393   0.598  14.897 -0.1716  1.7667 -0.7805
12433TIP3   OH258789   4.564   3.931  15.010  0.8929  0.0695  0.2559
12433TIP3    H158790   4.633   3.994  14.990  2.5107 -1.7028  0.1241
12433TIP3    H258791   4.546   3.887  14.927 -2.4448  2.4333 -0.3596
12434TIP3   OH258792   5.795   1.723   3.571 -0.1668  0.2285 -0.5518
12434TIP3    H158793   5.790   1.751   3.662  0.5702  2.1950 -1.1076
12434TIP3    H258794   5.888   1.708   3.555 -0.3201 -0.3980 -0.9200
12435TIP3   OH258795   1.822   0.708  14.462  0.2576 -0.5521 -0.2102
12435TIP3    H158796   1.903   0.721  14.512  0.2656 -1.0747 -0.0774
12435TIP3    H258797   1.753   0.737  14.522  0.3833  0.4101 -0.5299
12436TIP3   OH258798   1.816   6.511  13.419 -0.4881  0.5947 -0.0455
12436TIP3    H158799   1.753   6.477  13.481  0.1654 -0.1141  0.2357
12436TIP3    H258800   1.777   6.494  13.333 -0.3774 -0.4287  0.1087
12437TIP3   OH258801   6.233   2.804  15.130  0.4084  0.3501 -0.4805
12437TIP3    H158802   6.168   2.735  15.122 -0.1376  0.5913  1.5791
12437TIP3    H258803   6.317   2.761  15.114 -0.0448 -0.5089 -0.5231
12438TIP3   OH258804   6.352   6.292  13.599  0.3609  0.7753  0.8227
12438TIP3    H158805   6.416   6.335  13.655  0.5759  0.8394  0.5310
12438TIP3    H258806   6.276   6.351  13.600  0.4827  0.9350  0.7956
12439TIP3   OH258807   5.482   6.132   5.940 -0.0289 -0.3169  0.1144
12439TIP3    H158808   5.406   6.166   5.894 -0.0330 -0.3519  0.0955
12439TIP3    H258809   5.466   6.155   6.032  0.1396  0.0480  0.0538
12440TIP3   OH258810   3.717   6.295   2.185 -0.1828  0.1730  0.2834
12440TIP3    H158811   3.658   6.254   2.123  0.6224 -3.0970  1.6028
12440TIP3    H258812   3.802   6.254   2.170  0.5753  1.0785  1.8695
12441TIP3   OH258813   3.027   0.719  11.736 -0.5799  0.4965 -0.4338
12441TIP3    H158814   3.058   0.743  11.649 -0.0724 -0.6166 -0.5643
12441TIP3    H258815   2.997   0.628  11.728 -0.0566  0.2089  0.6623
12442TIP3   OH258816   5.150   3.639  13.740 -0.3053  0.6114  0.3350
12442TIP3    H158817   5.179   3.680  13.659  0.3469 -0.7098 -0.1128
12442TIP3    H258818   5.058   3.619  13.725  0.4961 -2.1571 -1.1582
12443TIP3   OH258819   3.260   2.437  11.277  0.3177  0.2130  0.2557
12443TIP3    H158820   3.199   2.511  11.278 -0.0835 -0.0999 -0.5157
12443TIP3    H258821   3.212   2.367  11.231  1.3344  0.0348 -0.5429
12444TIP3   OH258822   2.873   5.358  16.483 -0.2449  0.0507 -0.0953
12444TIP3    H158823   2.878   5.336  16.390  1.3798  0.7682 -0.1979
12444TIP3    H258824   2.826   5.285  16.523 -0.0749 -0.7357 -1.3134
12445TIP3   OH258825   4.466   2.090   3.353 -0.9680  0.1916  0.1084
12445TIP3    H158826   4.466   2.186   3.347  0.1795  0.2459  0.9254
12445TIP3    H258827   4.557   2.065   3.339 -1.2795 -0.8001 -0.2013
12446TIP3   OH258828   6.354   2.894  12.651 -0.0040  0.5598  0.2532
12446TIP3    H158829   6.295   2.925  12.582 -0.7040 -1.1252  0.0903
12446TIP3    H258830   6.316   2.812  12.681  0.0634  1.4346  2.9280
12447TIP3   OH258831   1.367   6.547   2.723  0.0191 -0.0692  0.1648
12447TIP3    H158832   1.383   6.636   2.756  0.9591 -0.8160  1.7639
12447TIP3    H258833   1.441   6.529   2.665 -0.0990  0.1309 -0.0504
12448TIP3   OH258834   1.583   4.921   2.153  0.4606 -0.2761  0.8328
12448TIP3    H158835   1.542   4.852   2.101  2.2239  0.3497 -1.4870
12448TIP3    H258836   1.669   4.886   2.175  1.3511  1.1452 -0.3318
12449TIP3   OH258837   2.487   5.624   3.377  0.1722  0.6057  0.1013
12449TIP3    H158838   2.535   5.551   3.340  0.3116  0.1107  1.2272
12449TIP3    H258839   2.533   5.702   3.346  1.2819  0.1558  0.5989
12450TIP3   OH258840   1.325   5.102  12.110  0.3783  0.0718 -0.0093
12450TIP3    H158841   1.320   5.006  12.118  1.4935 -0.2172 -2.3703
12450TIP3    H258842   1.376   5.117  12.030  3.3792  2.6716  2.2498
12451TIP3   OH258843   4.309   0.673  16.955  0.4435 -0.0470 -0.4896
12451TIP3    H158844   4.256   0.699  16.880  2.7692  2.8789 -1.1924
12451TIP3    H258845   4.251   0.681  17.030 -0.0303  3.6536 -1.1717
12452TIP3   OH258846   6.062   0.934  16.402  0.5623  0.1113  0.4623
12452TIP3    H158847   6.043   0.850  16.443 -0.7752 -0.1055 -0.5562
12452TIP3    H258848   6.158   0.939  16.399  0.6554 -0.5280  2.2231
12453TIP3   OH258849   6.671   3.140   0.091  0.0899 -0.2892  0.2628
12453TIP3    H158850   6.584   3.180   0.093 -0.3394 -1.1071 -1.3719
12453TIP3    H258851   6.695   3.131   0.183 -1.9427 -0.8566  0.7597
12454TIP3   OH258852   0.990   3.357   1.948  0.0819  0.2279  0.4007
12454TIP3    H158853   1.033   3.314   1.875  0.4960  1.4996 -0.1073
12454TIP3    H258854   1.061   3.383   2.007 -0.2737 -1.1940  1.5020
12455TIP3   OH258855   4.050   3.436  13.972 -0.1887 -0.3431  0.2228
12455TIP3    H158856   4.144   3.440  13.987  0.1025  0.9628 -1.7718
12455TIP3    H258857   4.026   3.525  13.945 -1.9101 -0.7565  0.3243
12456TIP3   OH258858   5.682   2.751   1.528  0.1116 -0.5158 -0.3152
12456TIP3    H158859   5.622   2.826   1.531 -0.0548 -0.6758  0.3698
12456TIP3    H258860   5.726   2.753   1.613  1.0391 -0.4297 -0.7922
12457TIP3   OH258861   3.480   5.875  11.268  0.3668 -0.2940 -0.1372
12457TIP3    H158862   3.423   5.918  11.204  1.1241  0.3196 -0.4086
12457TIP3    H258863   3.562   5.924  11.264  0.2812  0.0102  1.6158
12458TIP3   OH258864   5.306   3.236  15.378 -0.2692  0.1382 -0.0464
12458TIP3    H158865   5.389   3.275  15.406 -0.1119  0.2820 -0.7054
12458TIP3    H258866   5.292   3.163  15.439 -0.3611  0.9656  0.9434
12459TIP3   OH258867   1.443   4.252  15.167  0.0944  0.1405  0.2532
12459TIP3    H158868   1.468   4.306  15.242  0.7762  0.2556 -0.0539
12459TIP3    H258869   1.355   4.282  15.144  0.1900  0.6314  0.5217
12460TIP3   OH258870   2.456   6.802  12.655  0.0292 -0.2201 -0.2352
12460TIP3    H158871   2.508   6.874  12.619 -0.4551  1.6076  2.5439
12460TIP3    H258872   2.370   6.811  12.614  0.2744  0.1481 -0.6779
12461TIP3   OH258873   3.555   1.985   2.516 -0.3156  0.1976  0.5844
12461TIP3    H158874   3.504   1.907   2.538 -2.0353  0.8018 -1.1387
12461TIP3    H258875   3.636   1.950   2.478 -1.2026 -0.7690 -0.4720
12462TIP3   OH258876   0.552   5.539   4.803  0.1955  0.2023 -0.0182
12462TIP3    H158877   0.595   5.563   4.884  1.3387  0.0030 -0.5527
12462TIP3    H258878   0.475   5.596   4.798 -0.1886 -0.1715  1.4634
12463TIP3   OH258879   4.523   6.336   4.057 -0.7751  0.2015  0.2043
12463TIP3    H158880   4.475   6.412   4.025 -2.4402 -1.7900 -2.2137
12463TIP3    H258881   4.610   6.345   4.018 -1.1737  0.5306 -0.6199
12464TIP3   OH258882   5.444   4.700   6.045  0.0413  0.0587  0.1848
12464TIP3    H158883   5.535   4.708   6.073 -0.0137 -0.0628  0.4000
12464TIP3    H258884   5.447   4.704   5.949  0.1270  1.5190  0.2273
12465TIP3   OH258885   6.494   0.092   2.456 -0.1725 -0.1770 -0.6082
12465TIP3    H158886   6.451   0.154   2.397 -1.3567 -0.8381 -0.4472
12465TIP3    H258887   6.423   0.053   2.507  0.6081 -1.2745 -0.3282
12466TIP3   OH258888   5.799   5.353  15.505  0.1546  0.0365 -0.1869
12466TIP3    H158889   5.890   5.340  15.476  0.2407 -0.6682  0.3755
12466TIP3    H258890   5.756   5.395  15.431  1.0933  0.9570 -0.2287
12467TIP3   OH258891   3.801   4.534  14.757  0.3999 -0.4432 -0.1600
12467TIP3    H158892   3.889   4.531  14.795 -0.9377  3.3160  3.6807
12467TIP3    H258893   3.751   4.472  14.809  0.0130  0.0352  0.0444
12468TIP3   OH258894   2.330   0.456  14.288 -0.1697  0.5140  0.6174
12468TIP3    H158895   2.395   0.479  14.222  2.4827 -0.7130  2.6622
12468TIP3    H258896   2.366   0.377  14.330 -2.9521 -0.1482  1.8885
12469TIP3   OH258897   3.972   2.800  14.753 -0.2326  0.0423 -0.2794
12469TIP3    H158898   3.895   2.822  14.805  1.1649  0.4035  1.7010
12469TIP3    H258899   3.944   2.813  14.662 -2.5583 -0.0974  0.3875
12470TIP3   OH258900   1.067   3.608   2.280  0.2739 -0.7380 -0.2202
12470TIP3    H158901   0.972   3.604   2.292  0.2570 -0.0891 -0.0872
12470TIP3    H258902   1.086   3.701   2.269  0.8147 -0.9271 -0.9489
12471TIP3   OH258903   2.880   6.362  15.539  0.1471 -0.1973 -0.0185
12471TIP3    H158904   2.845   6.296  15.478 -1.4099  0.4459  0.1408
12471TIP3    H258905   2.802   6.402  15.578  1.1016  0.5846  1.1311
12472TIP3   OH258906   6.383   3.695  11.072  0.1292  0.1407  0.1750
12472TIP3    H158907   6.293   3.725  11.085  0.9281  2.4712  0.5063
12472TIP3    H258908   6.394   3.691  10.978 -0.1140  0.5209  0.1286
12473TIP3   OH258909   4.521   6.086  13.820  1.0337 -0.5516 -0.5911
12473TIP3    H158910   4.462   6.120  13.752 -0.3499  1.1397  1.3844
12473TIP3    H258911   4.471   6.016  13.862  1.1978 -0.4134 -0.1645
12474TIP3   OH258912   3.990   2.198   4.452  0.4850 -0.2056 -0.3599
12474TIP3    H158913   4.042   2.217   4.374  1.6924 -0.3454  0.3916
12474TIP3    H258914   3.979   2.283   4.494  1.5498 -0.4033  0.3494
12475TIP3   OH258915   3.062   5.934   6.016  0.5775  0.8308 -0.4835
12475TIP3    H158916   3.146   5.946   6.059  0.3361  0.8454 -0.0179
12475TIP3    H258917   3.009   6.008   6.045 -0.7037 -0.9441  1.8665
12476TIP3   OH258918   2.854   6.238  16.981  0.1545  0.2438 -0.1833
12476TIP3    H158919   2.850   6.285  17.065  1.1005  0.4635 -0.2551
12476TIP3    H258920   2.947   6.240  16.958  0.2557 -1.9574 -0.0289
12477TIP3   OH258921   2.801   6.188   2.173  0.5539 -0.1580 -0.6058
12477TIP3    H158922   2.765   6.154   2.255  2.2343  2.0270  1.0807
12477TIP3    H258923   2.724   6.212   2.122 -0.5363  1.8722  1.8438
12478TIP3   OH258924   1.974   2.942  14.447  0.2573  0.9335 -0.1287
12478TIP3    H158925   1.909   3.012  14.445 -0.7251  0.0245 -0.3692
12478TIP3    H258926   1.942   2.878  14.384  0.8440  0.0083  0.5053
12479TIP3   OH258927   1.844   1.677  15.093  0.4261 -0.4048 -0.4104
12479TIP3    H158928   1.803   1.714  15.015  0.0137 -0.1140 -0.0569
12479TIP3    H258929   1.886   1.597  15.062 -0.9282 -1.0332 -0.6775
12480TIP3   OH258930   4.784   3.018  16.241 -0.1211  0.3838  0.4884
12480TIP3    H158931   4.704   3.066  16.262 -0.1280  0.9951 -0.9013
12480TIP3    H258932   4.852   3.060  16.295  0.1302  2.8350 -1.6469
12481TIP3   OH258933   3.187   1.551  11.486 -0.6967  0.0035 -0.3739
12481TIP3    H158934   3.107   1.565  11.537  1.3142  0.0024  2.9231
12481TIP3    H258935   3.257   1.547  11.552  2.2648  1.8274 -3.2493
12482TIP3   OH258936   6.763   1.375   0.251  0.4214  0.1277 -0.2529
12482TIP3    H158937   6.777   1.405   0.341  0.5782  0.3305 -0.3425
12482TIP3    H258938   6.797   1.447   0.197 -0.4301  0.3667 -0.4799
12483TIP3   OH258939   2.226   1.634  12.131 -0.3446 -0.2125  0.0687
12483TIP3    H158940   2.148   1.616  12.184  0.6160 -1.9998  0.9180
12483TIP3    H258941   2.284   1.683  12.190  0.5066 -1.7444  0.5401
12484TIP3   OH258942   6.527   2.244  14.454  0.3851 -0.7464  0.3444
12484TIP3    H158943   6.581   2.288  14.521  0.5874  0.7813 -0.7921
12484TIP3    H258944   6.496   2.165  14.497  1.0826 -0.1341  2.0357
12485TIP3   OH258945   2.674   2.233   2.722 -0.7769 -0.3851  0.5568
12485TIP3    H158946   2.632   2.188   2.649 -1.1386  0.2161  0.3934
12485TIP3    H258947   2.757   2.187   2.733 -0.1973  0.2483 -0.9983
12486TIP3   OH258948   2.074   4.659  11.486  0.4882  0.0660  0.2346
12486TIP3    H158949   2.029   4.740  11.510  1.1774  0.5164  0.0503
12486TIP3    H258950   2.008   4.606  11.442  0.1675  0.7518 -0.1120
12487TIP3   OH258951   3.052   0.491   4.015  0.1624 -0.2122 -0.4833
12487TIP3    H158952   3.097   0.572   3.991 -2.0792  1.0626 -0.5321
12487TIP3    H258953   2.987   0.479   3.945  0.9021 -2.4149 -0.8125
12488TIP3   OH258954   1.853   2.507   6.246  0.2525  0.0101 -0.7257
12488TIP3    H158955   1.766   2.544   6.261 -0.1855 -1.3588  0.1606
12488TIP3    H258956   1.912   2.563   6.297 -0.3758 -0.3609  0.4219
12489TIP3   OH258957   3.816   4.044   6.437  0.1207  0.3210 -0.1121
12489TIP3    H158958   3.751   3.973   6.429  1.4115 -1.0502  1.3639
12489TIP3    H258959   3.862   4.043   6.353 -2.2346  1.8368 -1.5033
12490TIP3   OH258960   0.598   0.329  13.233  0.2504  0.0373  0.5769
12490TIP3    H158961   0.516   0.298  13.195 -0.3358  0.6548  1.3254
12490TIP3    H258962   0.583   0.422  13.249  1.0948  0.1520  0.7406
12491TIP3   OH258963   3.026   1.436  17.078 -0.2007  0.0174  0.0473
12491TIP3    H158964   2.956   1.388  17.036 -0.5939  1.2988 -0.8113
12491TIP3    H258965   3.065   1.374  17.140  0.4669 -1.9530 -2.2890
12492TIP3   OH258966   1.699   6.368  11.921 -0.0219  0.1397  0.9973
12492TIP3    H158967   1.677   6.301  11.857  0.7908  0.0528  0.7992
12492TIP3    H258968   1.794   6.359  11.934 -0.0649  0.6075  1.6919
12493TIP3   OH258969   3.034   4.017  14.500 -0.1606  0.0676 -0.0980
12493TIP3    H158970   3.004   4.030  14.590  0.3509  0.1143  0.0689
12493TIP3    H258971   2.958   4.038  14.446 -0.3583  0.3981  0.3068
12494TIP3   OH258972   5.126   4.312  11.427  0.3500  0.2553  0.2788
12494TIP3    H158973   5.037   4.284  11.403  0.6096 -1.0365  0.7858
12494TIP3    H258974   5.174   4.313  11.344  0.1376 -0.0814  0.1504
12495TIP3   OH258975   2.699   5.455  13.252 -0.2960 -0.2327 -0.2138
12495TIP3    H158976   2.779   5.469  13.301 -0.2578  2.1170 -0.9266
12495TIP3    H258977   2.687   5.360  13.253  2.6316 -0.6352 -0.3480
12496TIP3   OH258978   3.064   1.267   6.050 -0.4863 -0.0053 -0.3108
12496TIP3    H158979   3.110   1.316   5.982 -1.5253 -0.8392 -1.6284
12496TIP3    H258980   3.119   1.278   6.128 -0.9335  3.6429 -0.4242
12497TIP3   OH258981   5.134   2.798   4.452  0.1473  0.0101 -0.2823
12497TIP3    H158982   5.138   2.809   4.357 -1.0025 -3.8777 -0.8892
12497TIP3    H258983   5.079   2.870   4.483 -1.1889  0.1648 -2.8583
12498TIP3   OH258984   3.952   4.650   3.294  0.7348 -0.0885 -0.4017
12498TIP3    H158985   4.046   4.638   3.307  0.6032 -0.6469  0.0230
12498TIP3    H258986   3.944   4.740   3.262  1.2147  0.8315  1.9249
12499TIP3   OH258987   2.876   4.033   0.164  0.0244  0.4930  0.3180
12499TIP3    H158988   2.918   3.974   0.228  0.6531  0.4148 -0.1669
12499TIP3    H258989   2.943   4.049   0.098  0.2361  2.6369  1.0013
12500TIP3   OH258990   5.606   3.543   0.322 -0.2300 -0.3487  0.4024
12500TIP3    H158991   5.540   3.475   0.334 -0.7133 -0.1473 -0.9890
12500TIP3    H258992   5.556   3.621   0.296  0.5083 -0.1261 -0.3991
12501TIP3   OH258993   3.648   0.501   4.335  0.2156  0.0152 -0.4982
12501TIP3    H158994   3.593   0.436   4.379 -0.1488 -0.0901 -1.1079
12501TIP3    H258995   3.703   0.451   4.276  1.1191  0.1042  0.2608
12502TIP3   OH258996   1.451   1.656   6.581 -0.1757  0.4551 -0.0607
12502TIP3    H158997   1.383   1.609   6.630 -0.3213  2.1259  1.4235
12502TIP3    H258998   1.533   1.615   6.606 -0.5436 -0.9499 -1.1167
12503TIP3   OH258999   4.178   2.730  14.930  0.0695  0.1532  0.0428
12503TIP3    H159000   4.106   2.692  14.981  0.8540 -1.5645 -0.1146
12503TIP3    H259001   4.139   2.749  14.845 -0.5522  0.5376  0.4049
12504TIP3   OH259002   4.779   2.484  16.359  0.1070  0.3433 -0.2545
12504TIP3    H159003   4.848   2.442  16.307  0.0567  1.2211 -1.0249
12504TIP3    H259004   4.726   2.411  16.390 -0.4356 -0.1335 -2.2395
12505TIP3   OH259005   4.259   5.170  16.437  0.0367  0.5056 -0.1706
12505TIP3    H159006   4.350   5.142  16.427  0.3864  1.0558  1.3512
12505TIP3    H259007   4.208   5.090  16.427  0.7834 -0.0390  0.3403
12506TIP3   OH259008   3.499   3.015   6.210 -0.0192  0.4307  0.8874
12506TIP3    H159009   3.470   2.927   6.186  1.7286 -0.5994  2.4135
12506TIP3    H259010   3.494   3.016   6.305  1.5409  1.4266  0.9648
12507TIP3   OH259011   2.777   6.059   5.292  0.0025  0.5883  0.3242
12507TIP3    H159012   2.737   6.054   5.379  2.2358  1.4349  1.4470
12507TIP3    H259013   2.801   5.969   5.272  0.6369  0.5593  1.1741
12508TIP3   OH259014   1.277   6.355   1.636 -0.2852  0.3964 -0.2785
12508TIP3    H159015   1.356   6.318   1.675 -0.5476 -1.1397 -1.1652
12508TIP3    H259016   1.222   6.280   1.616 -2.3160  1.4929  1.0091
12509TIP3   OH259017   6.136   0.611   5.785  0.5059  0.1271  0.2600
12509TIP3    H159018   6.186   0.575   5.858  0.6701  0.9586  0.5703
12509TIP3    H259019   6.181   0.692   5.763  1.0922 -0.6712 -1.5007
12510TIP3   OH259020   4.883   0.256  11.460 -0.1696 -0.1089 -0.4287
12510TIP3    H159021   4.904   0.165  11.480 -0.3944 -0.4390 -1.6472
12510TIP3    H259022   4.965   0.304  11.475 -0.4232 -0.2708  1.5987
12511TIP3   OH259023   6.161   5.761   5.675 -0.1886  0.6944 -0.5167
12511TIP3    H159024   6.067   5.761   5.658 -0.0114 -1.6127 -1.6571
12511TIP3    H259025   6.181   5.671   5.698  1.6917  1.2512  0.0606
12512TIP3   OH259026   2.945   5.386   0.238 -0.6890  0.8042  0.6036
12512TIP3    H159027   2.947   5.347   0.151 -2.5133  1.9555  0.0307
12512TIP3    H259028   2.920   5.314   0.296  1.1956 -0.1262  0.2969
12513TIP3   OH259029   3.850   1.418   4.717  0.1584 -0.2947 -0.2377
12513TIP3    H159030   3.875   1.393   4.806 -1.9892 -0.5305  0.3302
12513TIP3    H259031   3.905   1.494   4.698  0.6289 -0.2149  1.3086
12514TIP3   OH259032   1.361   0.413  13.349  0.0771  0.6428  0.1820
12514TIP3    H159033   1.442   0.367  13.373  0.4052  1.0183 -0.2053
12514TIP3    H259034   1.365   0.495  13.398 -0.2655  0.4904  0.4729
12515TIP3   OH259035   0.004   3.097  17.167 -0.1822 -0.0463  0.7186
12515TIP3    H159036   0.079   3.040  17.182 -0.1827 -0.3173 -0.2915
12515TIP3    H259037  -0.047   3.093  17.248  0.8379  0.0583  1.3623
12516TIP3   OH259038   6.796   1.857  12.815  0.6005  0.5395  0.1361
12516TIP3    H159039   6.783   1.765  12.837 -1.9404  0.9402  0.4425
12516TIP3    H259040   6.848   1.856  12.735  0.8363 -1.1453  0.3019
12517TIP3   OH259041   4.302   6.669  13.233  0.0673 -0.2292  0.2966
12517TIP3    H159042   4.344   6.695  13.315 -0.0157 -1.7007  0.8199
12517TIP3    H259043   4.267   6.582  13.250 -1.6286  0.2221 -0.7077
12518TIP3   OH259044   6.173   2.461   1.419  0.5474 -0.1328  0.4044
12518TIP3    H159045   6.246   2.407   1.389 -0.4380 -0.4204 -1.5732
12518TIP3    H259046   6.205   2.551   1.413  0.8644 -0.2783 -0.0749
12519TIP3   OH259047   6.259   3.793   2.790  0.6645 -0.4877 -0.1147
12519TIP3    H159048   6.319   3.860   2.824  0.7658  0.2206 -1.6365
12519TIP3    H259049   6.197   3.777   2.861  2.0527 -0.4819  1.1032
12520TIP3   OH259050   4.764   3.746   0.455 -0.6449  0.3313  0.0624
12520TIP3    H159051   4.759   3.653   0.480  2.4184 -0.1798 -1.0084
12520TIP3    H259052   4.783   3.791   0.537  1.7119 -0.4620 -0.0179
12521TIP3   OH259053   6.134   5.316  15.600  0.4334 -0.4164 -0.1265
12521TIP3    H159054   6.199   5.308  15.531  0.0375 -1.2666 -0.4037
12521TIP3    H259055   6.179   5.287  15.679  2.3792  4.8906  0.9359
12522TIP3   OH259056   1.372   4.273   5.024  0.0220  0.0994 -0.2519
12522TIP3    H159057   1.392   4.185   4.993  1.3147  0.7821 -1.4022
12522TIP3    H259058   1.429   4.285   5.100 -0.5848 -0.2656  0.2663
12523TIP3   OH259059   4.510   5.297   6.697 -0.2391  0.5505  0.8993
12523TIP3    H159060   4.460   5.369   6.736 -0.2496  0.0364  1.8526
12523TIP3    H259061   4.445   5.247   6.648 -0.1074  1.5690 -0.3138
12524TIP3   OH259062   1.129   3.285  14.288 -0.3441 -0.2139  0.4087
12524TIP3    H159063   1.138   3.378  14.269  0.0486 -0.0004  1.6278
12524TIP3    H259064   1.219   3.251  14.282 -0.6481 -0.7924 -1.3786
12525TIP3   OH259065   4.220   3.567   2.124  0.1636  0.6025 -0.0349
12525TIP3    H159066   4.156   3.627   2.164  0.1605  1.1512 -0.8583
12525TIP3    H259067   4.238   3.503   2.193 -1.0293  0.6269  0.3198
12526TIP3   OH259068   0.624   1.183   2.796  0.5264  0.0852 -0.2785
12526TIP3    H159069   0.565   1.181   2.721 -0.4151  0.5421  0.4319
12526TIP3    H259070   0.698   1.235   2.766 -1.1736  2.7894  0.0190
12527TIP3   OH259071   0.177   1.260   3.829 -0.7742  0.8108 -0.0801
12527TIP3    H159072   0.105   1.275   3.768 -0.9812  0.1859  0.0077
12527TIP3    H259073   0.139   1.205   3.897 -0.5126  1.4198  0.5553
12528TIP3   OH259074   2.404   4.365  15.890  0.4807  0.6935 -0.1628
12528TIP3    H159075   2.380   4.352  15.981  3.2901  2.2523  0.8473
12528TIP3    H259076   2.333   4.418  15.854 -1.2320 -0.9118  0.7577
12529TIP3   OH259077   3.288   6.408  13.751 -0.0313 -0.6205 -0.0885
12529TIP3    H159078   3.369   6.356  13.752  0.0665 -0.5200 -1.5232
12529TIP3    H259079   3.319   6.498  13.746 -0.2076 -0.6224 -1.6879
12530TIP3   OH259080   0.792   5.434  17.179 -0.0211 -0.9552  0.0187
12530TIP3    H159081   0.831   5.439  17.092 -0.5562  0.7571 -0.1490
12530TIP3    H259082   0.724   5.367  17.170  1.2229 -2.2059 -0.3345
12531TIP3   OH259083   2.367   4.593  15.324  0.4517  0.7226  0.1651
12531TIP3    H159084   2.295   4.656  15.317 -0.3058 -0.1501  0.0485
12531TIP3    H259085   2.402   4.586  15.236 -0.6783 -0.4215 -0.2089
12532TIP3   OH259086   1.763   0.064  13.571  0.1752 -0.5057  0.1334
12532TIP3    H159087   1.689   0.003  13.565  0.8406 -1.6792  2.9976
12532TIP3    H259088   1.840   0.008  13.568  0.8898  0.5180 -0.5803
12533TIP3   OH259089   2.725   6.798  10.225  0.1861 -0.5562  0.0759
12533TIP3    H159090   2.676   6.835  10.151  1.2126  0.7081  0.0252
12533TIP3    H259091   2.813   6.784  10.191  1.0855  1.5014  1.5075
12534TIP3   OH259092   1.184   0.891  13.882 -0.1750  0.0610  0.3103
12534TIP3    H159093   1.102   0.908  13.835 -0.5273 -0.6927  0.6485
12534TIP3    H259094   1.200   0.972  13.931 -2.9395 -1.1885  3.5430
12535TIP3   OH259095   2.565   2.622  12.102 -0.0008 -0.1582  0.3823
12535TIP3    H159096   2.576   2.618  12.007  1.9933 -0.6256  0.6166
12535TIP3    H259097   2.595   2.536  12.132 -2.0775 -0.5893  1.3181
12536TIP3   OH259098   3.536   0.692   6.540 -0.0983 -0.4711  0.2903
12536TIP3    H159099   3.549   0.626   6.608 -0.1565 -1.1779 -0.3679
12536TIP3    H259100   3.471   0.652   6.482  1.4632 -0.7589 -1.3029
12537TIP3   OH259101   3.604   2.160   0.961 -0.1212 -0.1246  0.2515
12537TIP3    H159102   3.553   2.161   1.042 -1.1213  0.7226 -0.3784
12537TIP3    H259103   3.693   2.138   0.989 -0.4764  0.0882  1.5729
12538TIP3   OH259104   4.231   0.183   4.015  0.1399 -0.3379 -0.4420
12538TIP3    H159105   4.267   0.263   3.975  0.5465  0.7392  1.9965
12538TIP3    H259106   4.201   0.131   3.940  1.4780  1.3042 -2.1893
12539TIP3   OH259107   2.115   4.627  13.145  0.0411  0.2015 -0.9639
12539TIP3    H159108   2.094   4.543  13.105  0.1934 -0.0783 -0.4640
12539TIP3    H259109   2.108   4.611  13.239 -0.3900  0.8675 -0.8745
12540TIP3   OH259110   5.751   4.437  14.477 -0.2161  0.2988 -0.4504
12540TIP3    H159111   5.693   4.456  14.550  1.0381 -0.4019  0.7364
12540TIP3    H259112   5.725   4.350  14.447  1.3663 -0.7810  1.2240
12541TIP3   OH259113   3.543   2.726  15.742  0.2343  0.6265 -0.1036
12541TIP3    H159114   3.466   2.674  15.766  1.2347 -1.1856 -0.7456
12541TIP3    H259115   3.533   2.808  15.791 -1.7239  0.1246  0.3768
12542TIP3   OH259116   0.460   4.351  14.302  0.3969 -0.4019  0.0776
12542TIP3    H159117   0.518   4.395  14.364 -0.8501  1.0471  0.2434
12542TIP3    H259118   0.414   4.422  14.257 -1.1216 -1.5002 -0.1592
12543TIP3   OH259119   2.646   2.528  13.673 -0.3958 -0.0461 -0.4801
12543TIP3    H159120   2.683   2.563  13.593 -0.2455  1.0142  0.0509
12543TIP3    H259121   2.560   2.570  13.679  0.4820  1.5820  1.0568
12544TIP3   OH259122   5.597   5.457  15.376 -0.0282  0.4263  0.2077
12544TIP3    H159123   5.555   5.450  15.290 -1.1476  0.6194  0.7192
12544TIP3    H259124   5.606   5.551  15.391  1.5551  0.3786 -0.3403
12545TIP3   OH259125   2.419   3.619   0.254  0.5761 -0.3502  0.7261
12545TIP3    H159126   2.401   3.657   0.168 -0.1678 -0.7671  0.6990
12545TIP3    H259127   2.444   3.695   0.308  3.7260 -0.3980 -0.5325
12546TIP3   OH259128   3.825   5.329   2.251  0.4577  0.2852  0.2375
12546TIP3    H159129   3.752   5.357   2.195 -3.0191  1.1833  4.8565
12546TIP3    H259130   3.881   5.407   2.258  0.4604  0.4245 -1.2746
12547TIP3   OH259131   1.900   5.120   0.440  0.0031  0.7877  0.2437
12547TIP3    H159132   1.835   5.175   0.394  1.2008  1.5989 -0.5362
12547TIP3    H259133   1.947   5.181   0.497 -0.3575  0.0863  1.2950
12548TIP3   OH259134   2.162   2.174   2.022 -0.1014  0.1602  0.0400
12548TIP3    H159135   2.247   2.211   1.998 -1.4565  2.6619 -1.1344
12548TIP3    H259136   2.134   2.126   1.944 -0.3492  0.4607 -0.0577
12549TIP3   OH259137   2.282   6.360   1.477  0.0611 -1.0887  0.4360
12549TIP3    H159138   2.209   6.418   1.454  0.7051 -0.2947  0.3492
12549TIP3    H259139   2.240   6.285   1.519 -0.9062 -1.2849 -0.8547
12550TIP3   OH259140   5.548   1.472   5.748  0.0245  0.2324 -0.2198
12550TIP3    H159141   5.581   1.515   5.669 -2.4594 -0.6052 -1.7600
12550TIP3    H259142   5.595   1.389   5.751  1.0811  0.8205 -0.0643
12551TIP3   OH259143   4.344   3.965  13.831  0.1130 -0.0511  0.0274
12551TIP3    H159144   4.278   3.998  13.892 -0.4567  1.2283 -1.2590
12551TIP3    H259145   4.312   3.878  13.806 -2.4818  1.6052 -2.6110
12552TIP3   OH259146   2.300   4.844   4.444 -0.1580  0.1313  0.1412
12552TIP3    H159147   2.342   4.772   4.397 -2.5558 -1.6241  0.5929
12552TIP3    H259148   2.249   4.890   4.377 -2.7583 -1.7602  0.7260
12553TIP3   OH259149   0.661   1.237  14.372 -0.4118  0.0133 -0.3644
12553TIP3    H159150   0.734   1.246  14.433  0.5319 -0.2280 -1.4275
12553TIP3    H259151   0.692   1.175  14.306 -0.4425  2.1191 -2.4641
12554TIP3   OH259152   0.540   2.179  12.086  0.3240  0.4327 -0.1374
12554TIP3    H159153   0.633   2.196  12.079  0.3953  0.1127  0.0331
12554TIP3    H259154   0.523   2.110  12.021  0.2553  0.3053  0.0156
12555TIP3   OH259155   5.891   0.576   5.961 -0.2873 -0.2855  0.3539
12555TIP3    H159156   5.880   0.619   5.876  0.2641 -0.4433  0.2034
12555TIP3    H259157   5.986   0.572   5.974 -0.3757  0.0110  1.1121
12556TIP3   OH259158   0.312   4.954  15.319  0.2460  0.2166  0.1289
12556TIP3    H159159   0.340   4.968  15.229  1.2602 -1.8486  0.0978
12556TIP3    H259160   0.347   4.868  15.342 -1.1923  0.1024  2.0218
12557TIP3   OH259161   3.119   0.341   4.958 -0.0362 -0.1597 -0.0256
12557TIP3    H159162   3.073   0.297   4.886  2.4724 -1.0609 -1.1196
12557TIP3    H259163   3.096   0.291   5.036  2.1108 -2.9786 -1.1294
12558TIP3   OH259164   2.688   5.766  14.244 -0.1980  0.0168 -0.0939
12558TIP3    H159165   2.706   5.823  14.169  0.8609  1.1886  1.0445
12558TIP3    H259166   2.603   5.726  14.223  0.7482 -0.7958 -2.6011
12559TIP3   OH259167   5.734   5.230   0.122  0.1852 -0.1926 -0.2456
12559TIP3    H159168   5.677   5.234   0.199  0.0732  1.2596 -0.3928
12559TIP3    H259169   5.784   5.149   0.133 -0.7522 -0.6553  0.6946
12560TIP3   OH259170   6.644   4.819   1.572  0.4190 -0.1333  0.5910
12560TIP3    H159171   6.588   4.856   1.641  2.1986  1.0526  1.4449
12560TIP3    H259172   6.692   4.749   1.615  1.2181  0.3247  0.4543
12561TIP3   OH259173   4.613   5.712  15.347 -0.2202 -0.5193 -0.2357
12561TIP3    H159174   4.701   5.704  15.385 -0.0882  1.9581  0.1019
12561TIP3    H259175   4.627   5.709  15.252  0.1507 -0.7745 -0.1737
12562TIP3   OH259176   5.471   1.166   5.834 -0.2539  0.2479 -0.1951
12562TIP3    H159177   5.475   1.079   5.874 -0.6422  0.4668  0.3298
12562TIP3    H259178   5.541   1.166   5.769  0.4420 -0.0945  0.5335
12563TIP3   OH259179   0.304   6.600   4.718 -0.1073 -0.7891  0.4064
12563TIP3    H159180   0.382   6.604   4.773 -1.0205  0.6828  1.6242
12563TIP3    H259181   0.230   6.607   4.779 -1.1785 -1.0024 -0.8272
12564TIP3   OH259182   3.983   3.465   5.260 -0.0506 -0.0460 -0.2049
12564TIP3    H159183   3.935   3.424   5.187 -1.6576 -0.4449  1.0562
12564TIP3    H259184   3.921   3.464   5.333  1.5172  0.4419  1.1511
12565TIP3   OH259185   3.019   1.577  13.501  0.4156  0.7015 -0.2980
12565TIP3    H159186   3.003   1.494  13.456 -1.1389 -1.0084  3.2011
12565TIP3    H259187   2.933   1.617  13.509  0.5462  0.6209  1.7270
12566TIP3   OH259188   0.584   6.046   1.737 -0.5217  0.5775 -0.1564
12566TIP3    H159189   0.505   5.993   1.733 -0.2740  0.1739  0.2134
12566TIP3    H259190   0.654   5.987   1.710 -0.1592  0.5194  0.8672
12567TIP3   OH259191   3.833   5.789  10.710  0.3121  0.3157  0.2789
12567TIP3    H159192   3.828   5.780  10.615  2.0106  2.6892 -0.0773
12567TIP3    H259193   3.741   5.796  10.739 -0.1869  0.0377 -1.2168
12568TIP3   OH259194   1.467   2.201   6.016 -1.0091 -0.1271 -0.5423
12568TIP3    H159195   1.548   2.221   6.062 -0.7289 -0.9022 -0.6910
12568TIP3    H259196   1.495   2.169   5.930 -1.5102  0.6406 -0.9960
12569TIP3   OH259197   2.036   5.487   2.929 -0.5638 -0.0223 -0.0467
12569TIP3    H159198   2.118   5.447   2.900 -0.7715 -0.4941 -0.0020
12569TIP3    H259199   2.061   5.549   2.997 -0.3123 -0.6590  0.4472
12570TIP3   OH259200   2.887   3.392   4.673 -0.0205  0.3242 -0.2134
12570TIP3    H159201   2.887   3.298   4.655 -0.4630 -0.4085  3.1397
12570TIP3    H259202   2.969   3.424   4.636  0.3294 -1.4680 -1.0283
12571TIP3   OH259203   3.012   5.200  12.074  0.2523  0.5458 -0.0703
12571TIP3    H159204   2.924   5.192  12.110  0.9627 -0.1221  1.5713
12571TIP3    H259205   3.037   5.291  12.093 -0.4914  1.0693 -1.5344
12572TIP3   OH259206   1.127   1.442   2.566 -0.1256  0.6897 -0.0280
12572TIP3    H159207   1.203   1.390   2.538 -0.6558  0.2863 -0.7373
12572TIP3    H259208   1.134   1.446   2.662  0.3200 -0.0641 -0.0296
12573TIP3   OH259209   0.516   0.578  13.232 -0.1245 -0.2806 -0.2247
12573TIP3    H159210   0.442   0.629  13.199  1.0452  0.8421 -1.1750
12573TIP3    H259211   0.525   0.606  13.323  1.8415  2.9141 -1.3035
12574TIP3   OH259212   3.102   4.507  13.624 -0.0554 -0.1510 -0.2085
12574TIP3    H159213   3.145   4.434  13.668  0.9931  0.2192 -0.6212
12574TIP3    H259214   3.039   4.541  13.689 -1.7538 -2.4609 -0.5928
12575TIP3   OH259215   3.342   5.487   3.663  0.2294 -0.5481  0.5088
12575TIP3    H159216   3.321   5.394   3.659 -0.0017 -0.4810  0.1396
12575TIP3    H259217   3.289   5.526   3.594  0.4095 -0.1583  0.5926
12576TIP3   OH259218   3.254   1.054   0.544  0.3763  0.8556  0.2671
12576TIP3    H159219   3.212   1.072   0.628  0.7686  0.1157  0.6330
12576TIP3    H259220   3.273   0.960   0.547 -0.4062  0.6541 -1.0171
12577TIP3   OH259221   1.873   3.536   4.147  0.0745  0.1723 -0.7786
12577TIP3    H159222   1.929   3.480   4.093  0.9210 -1.2205  1.4697
12577TIP3    H259223   1.934   3.580   4.208 -0.9920  0.6209 -0.0094
12578TIP3   OH259224   5.582   4.344  13.400  0.8199 -0.0018 -0.1390
12578TIP3    H159225   5.534   4.419  13.437  0.6763  0.0855 -0.4993
12578TIP3    H259226   5.550   4.269  13.450 -1.2065 -0.2360 -1.6992
12579TIP3   OH259227   4.099   1.182   3.184  0.5136  0.6980  0.3780
12579TIP3    H159228   4.127   1.244   3.251  2.3428 -1.1875  1.4124
12579TIP3    H259229   4.147   1.101   3.204 -0.6553 -0.5983 -1.8344
12580TIP3   OH259230   0.722   4.443   5.792  0.0422  0.2281 -0.6214
12580TIP3    H159231   0.805   4.395   5.794 -0.9423 -1.7732 -4.0617
12580TIP3    H259232   0.671   4.406   5.864 -0.7419 -4.1059 -3.2533
12581TIP3   OH259233   0.254   0.769  14.047  0.1419 -0.4701  0.2196
12581TIP3    H159234   0.208   0.685  14.046 -1.2041  0.1966  1.8989
12581TIP3    H259235   0.184   0.834  14.040  0.8884  0.5518  1.9595
12582TIP3   OH259236   3.972   4.961  16.802 -0.0450  0.2643  0.2326
12582TIP3    H159237   3.891   4.996  16.766 -0.2941  0.2205  0.7527
12582TIP3    H259238   4.026   4.941  16.725  0.3115  2.2670 -0.0676
12583TIP3   OH259239   4.425   5.734  14.340 -0.6898 -0.0498  0.0209
12583TIP3    H159240   4.512   5.748  14.302 -1.0253 -0.8795 -1.0744
12583TIP3    H259241   4.443   5.701  14.428  0.0945  1.5052  0.4806
12584TIP3   OH259242   5.306   5.382   6.123 -0.5018 -0.0018 -0.0957
12584TIP3    H159243   5.315   5.471   6.157 -0.5766 -0.4700  1.1714
12584TIP3    H259244   5.215   5.359   6.140 -0.3866 -0.4548 -0.0831
12585TIP3   OH259245   0.493   1.781   1.776  0.0815 -0.1848 -0.8316
12585TIP3    H159246   0.430   1.794   1.847  0.1024 -2.5221 -0.3629
12585TIP3    H259247   0.439   1.760   1.700  0.2275 -0.8818 -0.7428
12586TIP3   OH259248   2.057   1.344  15.275 -0.5905 -0.6275  0.1789
12586TIP3    H159249   2.125   1.411  15.274 -1.1673 -0.0060 -3.0134
12586TIP3    H259250   2.091   1.276  15.332  2.5446 -0.1643 -1.0520
12587TIP3   OH259251   1.822   4.573   1.147  0.4766 -0.0678 -0.6773
12587TIP3    H159252   1.835   4.503   1.210 -0.3721  1.2092  0.9526
12587TIP3    H259253   1.741   4.616   1.175  0.9996  1.5866 -1.6369
12588TIP3   OH259254   6.711   5.490   5.075 -0.3127  0.3260  0.3098
12588TIP3    H159255   6.632   5.483   5.129 -0.9639 -0.4709 -0.7382
12588TIP3    H259256   6.693   5.434   5.000  0.9336  0.7778 -0.3208
12589TIP3   OH259257   4.040   4.932   5.128 -0.8577  0.5374 -0.0265
12589TIP3    H159258   3.980   4.897   5.193 -0.0560  0.1007  0.4781
12589TIP3    H259259   4.035   4.871   5.055  1.4690 -1.3797  1.3338
12590TIP3   OH259260   0.632   0.406   4.469 -0.2494 -0.1301  0.3692
12590TIP3    H159261   0.660   0.489   4.430 -0.3101  0.1300  0.8820
12590TIP3    H259262   0.549   0.427   4.513  0.1742 -0.2709  1.2385
12591TIP3   OH259263   0.671   4.708   0.523 -0.2205 -0.0666 -0.3080
12591TIP3    H159264   0.582   4.685   0.499 -0.4501  0.1129  0.3575
12591TIP3    H259265   0.702   4.634   0.576  0.1247 -0.2615 -0.7844
12592TIP3   OH259266   1.601   2.380   4.377  0.2477 -0.1401  0.1081
12592TIP3    H159267   1.525   2.366   4.433 -0.2230  0.7090 -0.2948
12592TIP3    H259268   1.563   2.412   4.294  0.8765 -1.9225 -0.8971
12593TIP3   OH259269   3.889   0.378  12.529  0.1780 -0.0745 -0.4511
12593TIP3    H159270   3.982   0.398  12.523  0.0944  0.5325  0.2311
12593TIP3    H259271   3.869   0.334  12.446  1.5235 -2.0796  0.2610
12594TIP3   OH259272   0.544   1.204  12.424  0.1332 -0.0638 -0.0098
12594TIP3    H159273   0.559   1.252  12.505  1.4931 -0.2149 -0.1543
12594TIP3    H259274   0.539   1.112  12.450  1.7827 -0.2272 -0.2260
12595TIP3   OH259275   4.767   2.552  14.654 -0.2036  0.2029 -0.2613
12595TIP3    H159276   4.829   2.495  14.609  1.3047  0.1902  1.8104
12595TIP3    H259277   4.752   2.624  14.592  1.5986  0.0194 -0.9426
12596TIP3   OH259278   4.229   0.988   2.983 -0.3660  0.0957  0.1011
12596TIP3    H159279   4.268   0.925   2.923  1.0660  1.5972 -0.5824
12596TIP3    H259280   4.261   0.963   3.069 -1.9941 -1.7446  0.2053
12597TIP3   OH259281   2.443   1.001  13.741 -0.2337  0.2913 -0.3964
12597TIP3    H159282   2.437   1.037  13.652 -0.8879  0.9772 -0.0814
12597TIP3    H259283   2.536   1.003  13.762 -0.1448  0.7098 -0.8332
12598TIP3   OH259284   0.443   5.254   1.801  0.5789  0.5873 -0.4725
12598TIP3    H159285   0.425   5.294   1.716 -1.3122 -2.0208 -1.3850
12598TIP3    H259286   0.362   5.265   1.851  0.6966 -0.3469 -0.0566
12599TIP3   OH259287   5.231   6.507  10.722 -0.3122 -0.1905  0.5501
12599TIP3    H159288   5.215   6.583  10.778 -0.2051  1.5611 -1.7466
12599TIP3    H259289   5.164   6.512  10.654  1.1267 -0.8358 -0.9586
12600TIP3   OH259290   2.501   3.643  11.530  0.3259 -0.6739 -0.2999
12600TIP3    H159291   2.406   3.638  11.536  0.2773 -2.4162 -2.2213
12600TIP3    H259292   2.527   3.697  11.606 -2.2280  0.5809 -0.2683
12601TIP3   OH259293   0.463   3.029  14.541 -0.1647 -0.0650  0.1441
12601TIP3    H159294   0.532   3.059  14.601 -0.6164 -1.4737  1.3983
12601TIP3    H259295   0.491   3.059  14.455  2.2537 -1.0349  0.5770
12602TIP3   OH259296   5.062   0.193   2.999  0.7275 -0.4202 -0.5087
12602TIP3    H159297   5.133   0.258   3.009  0.5866 -0.5445  1.5374
12602TIP3    H259298   4.982   0.242   3.018  0.4693 -0.8365 -0.5192
12603TIP3   OH259299   4.731   2.265  14.617 -0.1838  0.2300  0.4568
12603TIP3    H159300   4.782   2.235  14.542  1.1741 -0.3922  1.6102
12603TIP3    H259301   4.689   2.346  14.587  0.1408 -0.1461 -1.0415
12604TIP3   OH259302   2.953   3.365  12.807 -0.0287 -0.3673  0.2215
12604TIP3    H159303   3.002   3.298  12.853  0.1797 -1.3971 -1.4495
12604TIP3    H259304   2.974   3.446  12.852  2.3653 -0.9487  0.2150
12605TIP3   OH259305   4.140   4.260   5.375 -0.0478 -0.2525  0.0835
12605TIP3    H159306   4.122   4.189   5.438  2.6088  1.1022  2.4721
12605TIP3    H259307   4.149   4.215   5.291  1.0213 -2.7382  1.4625
12606TIP3   OH259308   5.910   0.317  15.613 -0.0159  0.3602 -0.4006
12606TIP3    H159309   5.955   0.241  15.650 -0.0924  0.1043 -0.8288
12606TIP3    H259310   5.967   0.346  15.542  0.1383  0.8586 -0.0732
12607TIP3   OH259311   6.375   2.131  12.446 -0.0886  0.0130 -0.0491
12607TIP3    H159312   6.353   2.143  12.539 -2.3357 -2.4818 -0.2147
12607TIP3    H259313   6.401   2.039  12.439 -0.1318  0.1245 -1.9240
12608TIP3   OH259314   4.295   3.465  12.209 -0.4652  0.0411 -0.3172
12608TIP3    H159315   4.244   3.386  12.228 -0.8499  0.3077 -0.2457
12608TIP3    H259316   4.249   3.507  12.136 -0.7526  0.6553  0.2160
12609TIP3   OH259317   0.663   5.048  10.780 -0.3124  0.4791  0.4599
12609TIP3    H159318   0.739   5.024  10.726 -0.7653 -0.8892  0.4062
12609TIP3    H259319   0.589   5.042  10.720 -0.6338  0.3999  0.8696
12610TIP3   OH259320   3.639   5.799  15.838  0.1282 -0.7635 -0.3998
12610TIP3    H159321   3.678   5.843  15.913 -1.5781 -0.9528  0.6277
12610TIP3    H259322   3.678   5.841  15.762 -2.0002  3.0388  0.5220
12611TIP3   OH259323   5.649   1.365   5.161 -0.3474 -0.1654  0.8636
12611TIP3    H159324   5.654   1.287   5.216  2.1591 -2.0055 -1.7828
12611TIP3    H259325   5.710   1.427   5.201 -0.6452 -0.4065  1.7071
12612TIP3   OH259326   1.017   0.242   3.904 -0.2724  0.5138 -0.3946
12612TIP3    H159327   0.927   0.243   3.937  0.2361 -0.2024  1.0834
12612TIP3    H259328   1.012   0.193   3.822 -0.9982 -0.7415  0.3878
12613TIP3   OH259329   2.738   4.268   5.272  0.1522  0.6138  0.5262
12613TIP3    H159330   2.766   4.184   5.235  0.1021 -0.2785  2.4809
12613TIP3    H259331   2.643   4.261   5.275  0.2566 -0.1053  2.6247
12614TIP3   OH259332   6.152   3.086   2.655  0.3025  0.4926 -0.3930
12614TIP3    H159333   6.171   3.133   2.574  0.0354  0.8686 -0.2424
12614TIP3    H259334   6.213   3.012   2.656  2.3002  2.0983  0.4748
12615TIP3   OH259335   6.337   1.569   5.775  0.1226  0.2374  0.1353
12615TIP3    H159336   6.373   1.658   5.772 -1.4792  0.9096  0.1581
12615TIP3    H259337   6.293   1.564   5.860  0.6053 -0.7431  0.3359
12616TIP3   OH259338   3.368   3.909  11.382 -0.4717 -0.3883 -0.2034
12616TIP3    H159339   3.415   3.934  11.462 -0.0377 -1.7929 -0.0108
12616TIP3    H259340   3.288   3.962  11.384  0.3980  0.9425  0.2187
12617TIP3   OH259341   0.964   3.820   0.434 -0.5598 -0.7930  0.2227
12617TIP3    H159342   0.896   3.781   0.488 -0.3548 -0.1363  0.9659
12617TIP3    H259343   1.005   3.885   0.491 -0.1091 -0.3442 -0.6079
12618TIP3   OH259344   4.755   6.094  11.255 -0.3544 -0.1756  0.7981
12618TIP3    H159345   4.712   6.030  11.312 -0.6172 -0.0397  0.7557
12618TIP3    H259346   4.790   6.160  11.315 -0.3492 -0.2002  0.8225
12619TIP3   OH259347   0.724   0.241   3.919  0.7158 -0.0563  0.9406
12619TIP3    H159348   0.709   0.233   3.824  1.3281 -0.0463  0.8416
12619TIP3    H259349   0.639   0.219   3.958 -0.5290  3.3727  0.2818
12620TIP3   OH259350   3.213   6.028  13.657  0.3202  0.6028 -0.3453
12620TIP3    H159351   3.168   6.107  13.688  1.4310  1.3163 -0.5163
12620TIP3    H259352   3.179   6.015  13.568 -0.4077  0.4637 -0.0532
12621TIP3   OH259353   5.513   5.185  16.423  1.0353 -0.2783 -0.2749
12621TIP3    H159354   5.464   5.238  16.360  1.7129 -0.1074 -0.6626
12621TIP3    H259355   5.556   5.249  16.480 -1.2356 -0.4231  1.6892
12622TIP3   OH259356   2.678   3.880  14.541  0.2367  0.1592  0.3433
12622TIP3    H159357   2.686   3.955  14.601  0.5498  0.9326 -0.6543
12622TIP3    H259358   2.662   3.805  14.599  0.5348  0.8928  1.3995
12623TIP3   OH259359   4.511   4.547  13.002 -0.1816  0.1395 -0.4318
12623TIP3    H159360   4.418   4.527  13.003 -0.0653 -0.6131 -2.2219
12623TIP3    H259361   4.518   4.634  13.041 -1.6493  0.2492 -0.4062
12624TIP3   OH259362   1.088   1.077  15.008  0.7997  0.2819 -0.2729
12624TIP3    H159363   1.054   1.151  15.057 -1.1657 -1.7924  1.6179
12624TIP3    H259364   1.024   1.062  14.938  1.9818  1.2828 -1.5987
12625TIP3   OH259365   2.203   5.034   5.590 -0.2456  0.1663  0.5931
12625TIP3    H159366   2.117   5.072   5.605 -1.1411 -1.4204 -0.4133
12625TIP3    H259367   2.247   5.039   5.675 -0.8787  2.0838  0.8112
12626TIP3   OH259368   2.334   2.808  12.937 -1.0810  0.1449 -0.6457
12626TIP3    H159369   2.289   2.743  12.883 -0.6940 -0.3351 -0.3804
12626TIP3    H259370   2.403   2.760  12.982 -0.5551  0.8010 -0.7309
12627TIP3   OH259371   3.202   0.910  13.493 -0.2601  0.4829  0.1431
12627TIP3    H159372   3.164   0.971  13.555 -1.2461 -0.2875  0.3052
12627TIP3    H259373   3.291   0.895  13.525 -0.8586 -0.1500  1.5465
12628TIP3   OH259374   5.745   5.329   2.056  0.2842  0.1060 -0.2736
12628TIP3    H159375   5.653   5.306   2.047 -0.1735  1.8192 -0.0541
12628TIP3    H259376   5.780   5.263   2.117 -0.6701 -0.8165 -0.7067
12629TIP3   OH259377   5.366   5.320  15.503  0.1937 -0.1159 -0.4901
12629TIP3    H159378   5.362   5.239  15.554 -0.1150  1.0445  1.3572
12629TIP3    H259379   5.459   5.334  15.487  0.3418 -0.1036  0.3694
12630TIP3   OH259380   1.715   6.072  14.395 -0.1278 -0.3159  0.2322
12630TIP3    H159381   1.624   6.095  14.415  0.1747  0.8635  0.2752
12630TIP3    H259382   1.712   6.039  14.305 -0.7358 -1.1675  0.5530
12631TIP3   OH259383   2.844   2.605  14.724 -0.2026  0.1419 -0.1680
12631TIP3    H159384   2.927   2.632  14.764 -0.6365  0.2610  0.6832
12631TIP3    H259385   2.856   2.618  14.630  1.0069 -0.5657 -0.1101
12632TIP3   OH259386   1.028   5.908   4.645  0.0986  0.1402  0.0946
12632TIP3    H159387   1.096   5.887   4.582 -0.3838  0.9383 -0.7035
12632TIP3    H259388   1.073   5.960   4.712  0.4165  0.0597 -0.0538
12633TIP3   OH259389   3.897   0.576   5.003  0.4131  0.3053  0.0956
12633TIP3    H159390   3.903   0.670   4.988  0.1531  0.5953  1.7157
12633TIP3    H259391   3.808   0.563   5.035  0.7764 -0.3441  0.8550
12634TIP3   OH259392   0.521   6.775   5.087  0.2107 -0.2336  0.0941
12634TIP3    H159393   0.426   6.775   5.094  0.0518 -0.5279 -1.7927
12634TIP3    H259394   0.542   6.862   5.053  0.4029 -1.0147 -1.8378
12635TIP3   OH259395   1.859   0.680  11.863 -0.4392 -0.0242 -0.0886
12635TIP3    H159396   1.884   0.763  11.823 -1.2743 -0.5396 -1.7248
12635TIP3    H259397   1.899   0.682  11.950  0.9475  1.3693 -0.7372
12636TIP3   OH259398   4.222   0.440   5.679  0.0881 -0.4403  0.1450
12636TIP3    H159399   4.130   0.467   5.680  0.7452  1.9568 -0.4693
12636TIP3    H259400   4.242   0.426   5.586  0.3929 -0.8053  0.2645
12637TIP3   OH259401   3.687   3.651   4.953 -0.1520  0.5591 -0.3183
12637TIP3    H159402   3.744   3.684   4.883 -0.9294  0.9564 -0.7744
12637TIP3    H259403   3.649   3.571   4.917 -0.8170  0.9461 -0.4974
12638TIP3   OH259404   4.376   5.172  12.487 -0.3983 -0.4302  0.1346
12638TIP3    H159405   4.470   5.155  12.481 -0.4063 -0.5492  0.3184
12638TIP3    H259406   4.367   5.230  12.563 -0.4710 -0.4029  0.1050
12639TIP3   OH259407   3.655   4.649   6.084 -0.0300  0.2472  0.1295
12639TIP3    H159408   3.625   4.589   6.016 -1.9687  1.2634  0.0522
12639TIP3    H259409   3.736   4.687   6.049 -0.7900  0.4579 -1.4206
12640TIP3   OH259410   0.127   3.763  11.312 -0.0642  0.2128  0.0645
12640TIP3    H159411   0.156   3.815  11.237  0.9938 -0.3452  0.0804
12640TIP3    H259412   0.056   3.814  11.351  0.4114  1.2400 -0.4093
12641TIP3   OH259413   1.990   3.478  17.052 -0.1413  0.2492 -0.4645
12641TIP3    H159414   1.965   3.494  17.142  2.2005 -0.0658  0.2742
12641TIP3    H259415   1.908   3.482  17.003 -1.1750  2.5484  1.3587
12642TIP3   OH259416   2.658   5.636   3.171 -0.0522  0.1897 -0.2494
12642TIP3    H159417   2.688   5.697   3.104 -0.1758  1.1697  0.5704
12642TIP3    H259418   2.608   5.570   3.123 -0.0264  0.8054 -1.1365
12643TIP3   OH259419   5.437   0.388  12.452  0.4240  0.2822  0.1239
12643TIP3    H159420   5.365   0.448  12.472 -0.5946 -0.3770 -1.4833
12643TIP3    H259421   5.451   0.339  12.533  1.0966  2.4788  1.3862
12644TIP3   OH259422   4.460   1.984  11.041 -0.1156  0.2181 -0.1977
12644TIP3    H159423   4.548   1.963  11.072 -0.5062 -2.0574 -0.5639
12644TIP3    H259424   4.474   2.030  10.958  0.7779  2.1619  0.9983
12645TIP3   OH259425   2.400   4.116   0.381 -0.0499 -0.3479 -0.1942
12645TIP3    H159426   2.409   4.174   0.306  1.3326 -0.9806 -0.5389
12645TIP3    H259427   2.323   4.148   0.427  0.3167  1.3573 -0.7190
12646TIP3   OH259428   2.461   0.705  12.471  0.1820 -0.0173  0.5428
12646TIP3    H159429   2.454   0.697  12.376  1.3069 -1.1508  0.5376
12646TIP3    H259430   2.422   0.625  12.505  2.2175 -0.9008  0.9058
12647TIP3   OH259431   5.541   0.302  14.401  0.2160 -0.2600 -0.0686
12647TIP3    H159432   5.482   0.367  14.363  0.4622 -0.0606 -0.1125
12647TIP3    H259433   5.618   0.304  14.344  0.7863  0.3757  0.7022
12648TIP3   OH259434   2.143   3.342   0.830 -0.0027 -0.6734 -0.1717
12648TIP3    H159435   2.232   3.308   0.836  0.4736  0.1891 -2.0830
12648TIP3    H259436   2.150   3.435   0.852 -0.2135 -0.3069 -1.6190
12649TIP3   OH259437   4.352   1.170  13.072 -0.4430 -0.9197 -0.8390
12649TIP3    H159438   4.361   1.106  13.001 -1.5527  1.2204 -3.0345
12649TIP3    H259439   4.260   1.164  13.098  0.1132 -2.1257  0.8566
12650TIP3   OH259440   3.508   4.385  13.530  0.1648  0.2134  0.2736
12650TIP3    H159441   3.500   4.393  13.435 -0.2958 -1.5627  0.1553
12650TIP3    H259442   3.600   4.359  13.543 -0.4388 -2.1102  0.1198
12651TIP3   OH259443   3.359   2.227   4.672  0.0264 -0.6256  0.1258
12651TIP3    H159444   3.320   2.224   4.759 -1.0411  1.7865 -0.2229
12651TIP3    H259445   3.448   2.259   4.686 -0.9105  2.1209  0.1611
12652TIP3   OH259446   3.712   2.132  15.846 -0.0712  0.4368 -0.0331
12652TIP3    H159447   3.652   2.207  15.841 -0.0388  0.4033 -1.1080
12652TIP3    H259448   3.718   2.112  15.939 -0.6550  1.3148  0.1990
12653TIP3   OH259449   6.367   2.283   1.212 -0.7005  0.0189  0.0573
12653TIP3    H159450   6.370   2.188   1.200 -1.2371  0.0582 -0.4416
12653TIP3    H259451   6.283   2.309   1.173 -0.8526  0.6141  0.7781
12654TIP3   OH259452   3.268   6.267  13.184  0.1233  0.1959  0.1724
12654TIP3    H159453   3.295   6.179  13.158 -0.9162 -0.5422  1.4861
12654TIP3    H259454   3.321   6.286  13.261 -1.3654 -0.3029  1.3560
12655TIP3   OH259455   2.287   0.096   6.391  0.1645  0.3364 -0.0581
12655TIP3    H159456   2.378   0.123   6.379 -0.4370  1.3814 -2.7458
12655TIP3    H259457   2.239   0.178   6.402 -0.7204 -0.0548 -0.9030
12656TIP3   OH259458   1.032   1.074   4.436  0.8320 -0.5320 -0.5465
12656TIP3    H159459   0.977   1.124   4.496  1.0109 -1.0582  0.0630
12656TIP3    H259460   1.013   0.983   4.455  0.9462 -0.7086 -1.2437
12657TIP3   OH259461   6.593   5.042   1.998 -0.0128  0.2901 -0.5067
12657TIP3    H159462   6.531   5.024   2.069  1.7642 -2.0707  0.5341
12657TIP3    H259463   6.543   5.094   1.935 -2.1113  1.0505  1.7158
12658TIP3   OH259464   1.692   2.529  10.697 -0.1331 -0.1155  0.3668
12658TIP3    H159465   1.698   2.443  10.740 -2.1170 -0.7117 -0.4723
12658TIP3    H259466   1.659   2.588  10.765  1.4475  0.0446  1.0069
12659TIP3   OH259467   2.113   4.635   1.416 -0.2279 -0.5029  0.0169
12659TIP3    H159468   2.060   4.670   1.488 -0.6378  0.1865 -0.6002
12659TIP3    H259469   2.075   4.676   1.338  2.5472  1.6471 -0.2550
12660TIP3   OH259470   3.017   2.682   6.670  0.9465 -0.2230  0.3796
12660TIP3    H159471   2.966   2.683   6.589  2.4490  2.8111 -0.6216
12660TIP3    H259472   2.952   2.665   6.739 -1.0034  0.8634 -1.1274
12661TIP3   OH259473   1.756   1.434  13.640  0.2165  0.2299 -0.1404
12661TIP3    H159474   1.766   1.502  13.573  1.6907  0.4117  0.2536
12661TIP3    H259475   1.751   1.482  13.723  2.0018 -0.1590  0.2103
12662TIP3   OH259476   5.023   0.338   5.679  0.5015 -0.1140  0.9801
12662TIP3    H159477   5.072   0.258   5.658 -1.8786 -1.6824  1.2740
12662TIP3    H259478   5.024   0.388   5.598  3.2710  0.2834  1.2027
12663TIP3   OH259479   0.864   6.159   3.026  0.1737  0.2699 -0.5980
12663TIP3    H159480   0.958   6.158   3.042 -0.1226  0.3206  1.2983
12663TIP3    H259481   0.825   6.138   3.111 -1.4892 -1.7063 -1.8098
12664TIP3   OH259482   6.087   1.423   2.212 -0.4994 -0.1245  0.0983
12664TIP3    H159483   6.081   1.487   2.284  0.7456 -1.8044  1.7480
12664TIP3    H259484   5.998   1.419   2.177 -0.7271  2.0562  0.3437
12665TIP3   OH259485   1.998   4.939  13.513 -0.1651  0.2954  0.4227
12665TIP3    H159486   1.997   5.021  13.464 -1.2357 -0.7185 -1.3086
12665TIP3    H259487   2.027   4.873  13.449 -1.4300 -1.0279  1.1836
12666TIP3   OH259488   2.941   4.120  11.825 -0.9197  0.6287 -0.1841
12666TIP3    H159489   2.846   4.105  11.827 -1.1505  2.2016  2.9587
12666TIP3    H259490   2.950   4.214  11.811  0.2915  0.1836 -2.8989
12667TIP3   OH259491   2.116   0.761   4.214 -0.2354  0.1271  0.6141
12667TIP3    H159492   2.028   0.792   4.197  0.0855  0.4569 -0.5006
12667TIP3    H259493   2.122   0.754   4.310 -1.4729  0.0485  0.6855
12668TIP3   OH259494   0.958   2.505   5.893 -0.1293 -0.2145  0.1625
12668TIP3    H159495   0.903   2.429   5.874  0.8487 -0.5575 -1.3860
12668TIP3    H259496   0.913   2.578   5.850  0.3579 -0.4078 -0.6837
12669TIP3   OH259497   3.321   5.960  13.904  0.7124 -0.1409 -0.0702
12669TIP3    H159498   3.297   5.966  13.811  1.6779 -0.1685 -0.3206
12669TIP3    H259499   3.303   5.869  13.927 -1.1055  0.2556  0.2177
12670TIP3   OH259500   0.859   6.630   2.142 -0.1403 -0.2618  0.1414
12670TIP3    H159501   0.814   6.703   2.101 -1.0240 -0.0024  1.5273
12670TIP3    H259502   0.843   6.556   2.084 -1.9778 -0.0679  0.3842
12671TIP3   OH259503   4.630   4.567  16.182 -0.3607  0.4356 -0.5177
12671TIP3    H159504   4.674   4.649  16.158 -1.5714  1.2679  0.0263
12671TIP3    H259505   4.680   4.534  16.257  0.9473 -0.0389 -1.5812
12672TIP3   OH259506   0.408   3.766   0.088  0.1969 -0.2179  0.2308
12672TIP3    H159507   0.490   3.727   0.056 -0.8272 -1.0199 -1.4946
12672TIP3    H259508   0.343   3.698   0.076 -0.8408  0.6116  1.0875
12673TIP3   OH259509   0.292   5.101   1.572 -0.3934  0.4411 -0.1064
12673TIP3    H159510   0.318   5.183   1.530 -0.4591  0.2164 -0.5907
12673TIP3    H259511   0.374   5.063   1.605 -0.7366  2.3279  3.1140
12674TIP3   OH259512   0.586   2.424   1.855 -0.0179  0.4798 -0.3675
12674TIP3    H159513   0.647   2.393   1.787 -1.4989 -1.8459 -0.7106
12674TIP3    H259514   0.509   2.454   1.806 -0.0585  1.2725  0.1737
12675TIP3   OH259515   1.390   6.497  13.635  0.1992 -0.2285 -0.0705
12675TIP3    H159516   1.476   6.508  13.676  0.4848  0.6857 -0.8885
12675TIP3    H259517   1.403   6.428  13.570 -0.0786 -1.1821  0.8747
12676TIP3   OH259518   6.028   6.086  12.183  0.0979 -0.1798  0.8232
12676TIP3    H159519   6.052   6.172  12.147  0.2836 -1.0026 -1.0704
12676TIP3    H259520   6.038   6.096  12.278  0.2408  1.8488  0.6216
12677TIP3   OH259521   1.757   3.743   1.303 -0.8409 -0.6068  0.0926
12677TIP3    H159522   1.744   3.690   1.224 -1.0068 -0.9343  0.3360
12677TIP3    H259523   1.740   3.833   1.275  0.4696 -0.5583 -0.5745
12678TIP3   OH259524   6.322   5.396   3.282  0.0080  0.0731 -0.3369
12678TIP3    H159525   6.301   5.413   3.373 -0.2388 -0.4641 -0.2913
12678TIP3    H259526   6.349   5.304   3.280 -1.7653 -0.4550 -1.1147
12679TIP3   OH259527   5.666   2.765  15.208  0.3039 -0.1953  0.3603
12679TIP3    H159528   5.595   2.810  15.254  0.5391 -0.0977  0.6293
12679TIP3    H259529   5.660   2.674  15.237 -1.1311 -0.6710 -1.3544
12680TIP3   OH259530   6.370   2.652   1.386 -0.2500  0.1344  0.5168
12680TIP3    H159531   6.444   2.592   1.399 -0.3967 -0.3723 -0.9097
12680TIP3    H259532   6.394   2.704   1.309 -0.9694  0.6045  0.6090
12681TIP3   OH259533   5.687   3.542   1.688  0.6110  0.0778 -0.3399
12681TIP3    H159534   5.661   3.453   1.664 -0.1786  0.5397 -1.1881
12681TIP3    H259535   5.628   3.566   1.760  0.9409 -0.1391  0.0092
12682TIP3   OH259536   3.112   5.448  15.160  0.1699  0.1932  0.0798
12682TIP3    H159537   3.019   5.467  15.166 -0.1242 -1.4494  1.0522
12682TIP3    H259538   3.121   5.398  15.079  0.1425 -0.0079  0.2015
12683TIP3   OH259539   3.407   1.231   0.873  0.5370  0.7881  0.3776
12683TIP3    H159540   3.332   1.273   0.832 -0.5616 -0.0884  1.4363
12683TIP3    H259541   3.462   1.202   0.801 -1.2968 -0.6272 -0.4909
12684TIP3   OH259542   0.917   6.089  15.378 -0.4564  0.1987  0.0079
12684TIP3    H159543   0.977   6.016  15.363  1.5778  1.6463  0.9928
12684TIP3    H259544   0.906   6.092  15.473 -0.6496  1.1018 -0.0386
12685TIP3   OH259545   3.541   5.513  11.549 -0.9138 -0.0562  0.4143
12685TIP3    H159546   3.554   5.422  11.521 -3.0697 -0.2904  0.0227
12685TIP3    H259547   3.473   5.546  11.490  0.5651  2.1440 -0.1096
12686TIP3   OH259548   4.319   2.675   0.607  0.2487  0.1773  0.0199
12686TIP3    H159549   4.251   2.720   0.656 -1.3387 -0.7964 -1.2298
12686TIP3    H259550   4.272   2.626   0.539  2.1904 -0.4716 -0.9161
12687TIP3   OH259551   2.720   6.277   5.146 -0.7120  0.2581  0.1710
12687TIP3    H159552   2.791   6.267   5.082  0.7397  1.1176  1.6405
12687TIP3    H259553   2.737   6.210   5.212 -2.8269 -1.3642 -0.8358
12688TIP3   OH259554   0.354   2.368   0.651  0.0323 -0.4577  0.2996
12688TIP3    H159555   0.325   2.288   0.696  0.9396 -0.6406  0.5722
12688TIP3    H259556   0.429   2.340   0.599 -0.1719  0.0471 -0.2729
12689TIP3   OH259557   5.043   2.974  11.226 -0.1505  0.3845  0.0158
12689TIP3    H159558   5.110   3.021  11.175  0.1955  0.6590  0.7239
12689TIP3    H259559   5.016   2.902  11.168 -0.1147  0.9869 -0.7574
12690TIP3   OH259560   5.338   0.564  12.207 -0.1542 -0.3459  0.4297
12690TIP3    H159561   5.262   0.606  12.169  0.4099  1.1935  0.9862
12690TIP3    H259562   5.318   0.470  12.203 -1.3217 -0.0539 -0.9920
12691TIP3   OH259563   6.630   2.931  12.351 -0.9013 -0.2383 -0.0264
12691TIP3    H159564   6.664   2.906  12.437 -1.1270 -1.0486 -0.1690
12691TIP3    H259565   6.700   2.984  12.312 -0.1319 -1.2208  0.0106
12692TIP3   OH259566   6.042   3.440  13.584 -0.2008 -0.0249 -0.6952
12692TIP3    H159567   5.963   3.459  13.634  0.3885  0.2403  0.1347
12692TIP3    H259568   6.043   3.344  13.576  0.5755 -0.2045  1.2525
12693TIP3   OH259569   4.974   3.246  12.999 -0.4456  0.3500  0.3335
12693TIP3    H159570   5.019   3.314  12.948 -0.2126  1.2432  1.6935
12693TIP3    H259571   4.918   3.294  13.059 -2.4899 -0.7487 -0.6576
12694TIP3   OH259572   6.697   4.568   1.004  0.3818  0.4568 -0.3445
12694TIP3    H159573   6.691   4.611   0.919  1.3678  1.8189  0.2532
12694TIP3    H259574   6.744   4.630   1.059  1.5542 -1.2555  0.6367
12695TIP3   OH259575   5.971   4.314  16.349 -0.2342  0.3880  0.0862
12695TIP3    H159576   6.060   4.321  16.382 -0.1911 -0.5998  0.2041
12695TIP3    H259577   5.975   4.348  16.260  0.8664 -2.1781 -0.9080
12696TIP3   OH259578   3.620   6.177   6.090  0.7375  0.0116  0.5006
12696TIP3    H159579   3.555   6.212   6.029 -1.0211 -0.0092  2.3040
12696TIP3    H259580   3.601   6.083   6.094 -0.4913  0.3223  2.5952
12697TIP3   OH259581   0.763   2.105  14.581  0.4180  0.2531 -0.0465
12697TIP3    H159582   0.828   2.140  14.641  1.6450 -1.2691 -0.4430
12697TIP3    H259583   0.726   2.029  14.628 -1.6597  1.5729  0.5059
12698TIP3   OH259584   3.207   0.766  11.203 -0.3813  0.1605  0.2887
12698TIP3    H159585   3.287   0.733  11.161 -0.4994 -0.0859  0.2578
12698TIP3    H259586   3.234   0.848  11.244  0.6768 -1.4748  2.9738
12699TIP3   OH259587   4.556   5.757   5.166  0.0803  0.1302  0.3751
12699TIP3    H159588   4.632   5.756   5.224 -0.2917  0.6622  0.8791
12699TIP3    H259589   4.567   5.679   5.111 -0.5782 -1.5180  2.5029
12700TIP3   OH259590   3.419   5.661  11.080  0.2233  0.1354 -0.2873
12700TIP3    H159591   3.454   5.699  11.160 -1.0637 -0.3454  0.5274
12700TIP3    H259592   3.325   5.657  11.095  0.1149 -1.2605 -1.2714
12701TIP3   OH259593   2.294   3.597   4.508  0.3293 -0.2496  0.0285
12701TIP3    H159594   2.203   3.614   4.532  0.3040 -1.6274  0.9704
12701TIP3    H259595   2.339   3.586   4.593  1.3546  0.3247 -0.4273
12702TIP3   OH259596   4.069   3.110  12.579  0.5401 -0.9824 -0.1382
12702TIP3    H159597   4.153   3.087  12.619  0.7876 -0.9910 -0.6633
12702TIP3    H259598   4.044   3.033  12.528  0.0405 -1.1120  0.2961
12703TIP3   OH259599   1.185   3.149   0.415  0.3668  0.1398  0.5625
12703TIP3    H159600   1.153   3.237   0.436 -0.8483  0.2454 -1.5612
12703TIP3    H259601   1.277   3.161   0.394  0.3429  0.8088  0.8312
12704TIP3   OH259602   2.685   1.382   4.025 -0.1506 -0.6151 -0.2303
12704TIP3    H159603   2.679   1.291   3.997 -0.7662 -0.4792 -0.5590
12704TIP3    H259604   2.603   1.398   4.072  0.3656 -0.4991  0.6333
12705TIP3   OH259605   2.707   1.054  13.829 -0.1517 -0.3646 -0.1902
12705TIP3    H159606   2.725   1.119  13.761  2.1071  0.0261  0.7391
12705TIP3    H259607   2.721   1.101  13.911 -1.6195 -1.1729  0.5337
12706TIP3   OH259608   1.554   5.609   5.640 -0.2647 -0.0375 -0.7651
12706TIP3    H159609   1.648   5.597   5.624  0.0419 -0.4334  1.1032
12706TIP3    H259610   1.550   5.689   5.692 -0.9071 -0.3372 -0.3543
12707TIP3   OH259611   1.667   6.578   4.846  0.0670 -0.6501 -0.0175
12707TIP3    H159612   1.601   6.572   4.915  1.1276 -0.9972  0.9873
12707TIP3    H259613   1.645   6.658   4.799  0.1644  0.3825  1.6247
12708TIP3   OH259614   6.080   6.537  15.829 -0.0569 -0.5139 -0.2647
12708TIP3    H159615   6.069   6.452  15.872 -1.2325 -1.3447 -2.1348
12708TIP3    H259616   6.008   6.541  15.767  0.2180  1.7085 -0.4633
12709TIP3   OH259617   6.563   5.007   1.088 -0.3353 -1.1025 -0.2137
12709TIP3    H159618   6.605   4.955   1.156  2.2216  1.7327  0.4961
12709TIP3    H259619   6.631   5.016   1.020 -1.8046 -1.2946 -1.7369
12710TIP3   OH259620   4.656   5.502  10.507  0.3696  0.0100 -0.6622
12710TIP3    H159621   4.585   5.484  10.569 -0.6492  1.7083 -1.2842
12710TIP3    H259622   4.730   5.451  10.540 -0.5483 -0.2104  1.1575
12711TIP3   OH259623   6.624   3.362  11.020  0.3696  0.3622  0.9782
12711TIP3    H159624   6.676   3.442  11.019  0.2781  0.4132  0.0970
12711TIP3    H259625   6.552   3.381  11.081 -0.6501  1.5885 -0.5590
12712TIP3   OH259626   2.172   4.802  16.100  0.2129  0.6346  0.1855
12712TIP3    H159627   2.197   4.710  16.111 -0.8651  0.4176  0.8308
12712TIP3    H259628   2.133   4.806  16.013 -0.4909  0.3077  0.4816
12713TIP3   OH259629   1.054   3.384   5.851 -0.5864  0.2569 -0.5610
12713TIP3    H159630   1.122   3.438   5.891 -0.8324  0.9268 -1.0404
12713TIP3    H259631   1.055   3.407   5.759 -0.1790 -1.1301 -0.9165
12714TIP3   OH259632   5.427   3.179   3.755 -0.5834  0.2033 -0.3949
12714TIP3    H159633   5.396   3.208   3.841 -0.2812 -1.5697  0.3364
12714TIP3    H259634   5.352   3.131   3.718  0.3022 -1.6865  0.1981
12715TIP3   OH259635   4.763   2.630  11.328 -0.3477 -0.1781  0.5145
12715TIP3    H159636   4.827   2.616  11.258 -1.2243  1.0236 -0.5396
12715TIP3    H259637   4.817   2.634  11.408  0.7180 -0.8747 -0.1456
12716TIP3   OH259638   2.688   3.333  12.032 -0.0030  0.1313 -0.0647
12716TIP3    H159639   2.739   3.277  11.974  0.2715  0.1650  0.1439
12716TIP3    H259640   2.598   3.328  11.998  0.6039  2.1786 -2.0720
12717TIP3   OH259641   5.081   2.714  17.140  0.7024  0.3532 -0.3289
12717TIP3    H159642   5.144   2.671  17.198 -1.0961 -0.6204  0.9391
12717TIP3    H259643   5.068   2.800  17.180 -1.0584 -0.5663  1.1599
12718TIP3   OH259644   2.083   0.800  12.853  0.3991 -0.2974 -0.1365
12718TIP3    H159645   2.167   0.757  12.865 -0.0286 -0.4405  2.5318
12718TIP3    H259646   2.018   0.731  12.869 -0.2562  0.0106 -1.3472
12719TIP3   OH259647   2.762   2.858   1.205 -0.1793  0.8030 -0.3293
12719TIP3    H159648   2.719   2.863   1.291  0.9273  2.1762  0.1666
12719TIP3    H259649   2.692   2.873   1.142 -1.1182 -0.8480  0.3033
12720TIP3   OH259650   1.258   2.134   3.850  0.2359 -0.0039  0.0812
12720TIP3    H159651   1.336   2.080   3.842 -1.4785 -2.3737 -1.2936
12720TIP3    H259652   1.199   2.083   3.906 -0.9311  1.0231 -0.1851
12721TIP3   OH259653   4.744   5.953   0.069 -0.4103 -0.3340 -0.2711
12721TIP3    H159654   4.684   6.023   0.093  2.0516  1.0286  2.2231
12721TIP3    H259655   4.724   5.883   0.132 -0.3794 -0.4246 -0.3636
12722TIP3   OH259656   6.212   3.686  16.871 -0.2641  0.2207  0.2148
12722TIP3    H159657   6.285   3.629  16.849 -0.5851 -0.1382  0.0669
12722TIP3    H259658   6.166   3.641  16.941 -2.3054 -1.2287 -1.9813
12723TIP3   OH259659   4.303   0.525  11.938 -0.0353  0.1810 -0.1388
12723TIP3    H159660   4.323   0.432  11.927  0.0719  0.1703  0.1366
12723TIP3    H259661   4.354   0.568  11.869 -0.7618 -0.0376 -0.8135
12724TIP3   OH259662   2.768   5.619  13.577 -0.1212  0.0821  0.0521
12724TIP3    H159663   2.800   5.614  13.487  0.4360 -1.5472  0.3314
12724TIP3    H259664   2.673   5.605  13.569  0.0463 -0.9503 -0.1997
12725TIP3   OH259665   1.657   6.492   5.893  0.4148  0.3235  0.1119
12725TIP3    H159666   1.585   6.551   5.916  0.0853 -0.0854  0.1199
12725TIP3    H259667   1.619   6.429   5.832  0.7655  0.1097  0.1124
12726TIP3   OH259668   4.940   2.242   2.220  0.5615 -0.5124 -0.7258
12726TIP3    H159669   4.890   2.285   2.290 -0.4056 -0.3109 -1.5276
12726TIP3    H259670   5.031   2.251   2.247  0.1974 -0.4650  0.5326
12727TIP3   OH259671   0.369   3.089  15.766  0.3348  0.1048  0.6006
12727TIP3    H159672   0.318   3.161  15.728  1.8295  1.8250  1.7295
12727TIP3    H259673   0.457   3.101  15.730  0.5803 -1.2450  0.7196
12728TIP3   OH259674   1.268   3.628   2.864 -0.4679 -0.2201 -0.3981
12728TIP3    H159675   1.245   3.691   2.932 -1.9936 -0.5193 -0.6130
12728TIP3    H259676   1.188   3.576   2.852  0.8888 -2.4855  0.0894
12729TIP3   OH259677   5.296   4.154  12.655 -0.1436  0.1857 -0.4091
12729TIP3    H159678   5.325   4.065  12.636  0.7135  0.1807  0.9327
12729TIP3    H259679   5.217   4.164  12.602  0.2891 -1.0308 -1.3186
12730TIP3   OH259680   6.587   4.264   0.829  0.4616 -0.5278 -0.2146
12730TIP3    H159681   6.631   4.340   0.791 -0.8237  0.3021 -0.0718
12730TIP3    H259682   6.566   4.208   0.755 -0.6981  0.3853 -0.6051
12731TIP3   OH259683   0.328   6.740  14.329  0.5656  0.0113 -0.5334
12731TIP3    H159684   0.285   6.803  14.271 -1.7557 -0.9032  0.1227
12731TIP3    H259685   0.349   6.791  14.407  0.7743  0.4949 -0.8969
12732TIP3   OH259686   2.021   1.500  14.093  0.4368  0.5653 -0.1269
12732TIP3    H159687   2.012   1.406  14.082  0.9722  0.3864  0.8831
12732TIP3    H259688   2.094   1.525  14.036  0.5964  0.2974 -0.0367
12733TIP3   OH259689   0.597   0.791  14.369  0.7670 -0.6717 -0.3667
12733TIP3    H159690   0.529   0.778  14.435  0.5640  0.2762 -0.3916
12733TIP3    H259691   0.550   0.795  14.286  0.8010  0.5415 -0.3266
12734TIP3   OH259692   1.661   5.112   3.887  0.2773  0.0250 -0.0541
12734TIP3    H159693   1.629   5.073   3.969  0.5824  0.1616  0.1318
12734TIP3    H259694   1.637   5.205   3.894 -0.7518 -0.1852 -0.6457
12735TIP3   OH259695   3.859   5.541   3.473  0.2533 -0.1575  0.1562
12735TIP3    H159696   3.931   5.580   3.523 -1.3533 -1.2003  3.3845
12735TIP3    H259697   3.863   5.448   3.495 -1.1415 -0.4635 -0.8622
12736TIP3   OH259698   4.798   6.048  13.715 -0.1881 -0.2576  0.3480
12736TIP3    H159699   4.880   6.020  13.755 -0.2364 -0.3629  0.3716
12736TIP3    H259700   4.730   6.021  13.776 -0.3305 -1.2612 -0.2462
12737TIP3   OH259701   6.731   6.386  16.456 -0.1254 -0.2799  0.1899
12737TIP3    H159702   6.796   6.450  16.487 -1.2730  2.1232 -2.1421
12737TIP3    H259703   6.783   6.317  16.415  1.0402  1.0257 -0.5837
12738TIP3   OH259704   0.315   4.537   4.529 -0.0658  0.5902  0.3695
12738TIP3    H159705   0.309   4.630   4.553 -1.4535  1.2152 -2.1603
12738TIP3    H259706   0.343   4.539   4.437 -0.5563 -1.4776  0.1683
12739TIP3   OH259707   6.151   4.533   0.776 -0.4575 -0.5769  0.6429
12739TIP3    H159708   6.137   4.526   0.870 -2.0992  0.2123  0.4655
12739TIP3    H259709   6.238   4.573   0.767 -2.1704  3.7361  1.9251
12740TIP3   OH259710   6.319   5.260  14.201  0.3326 -0.2552 -0.1752
12740TIP3    H159711   6.342   5.349  14.174  0.5415  0.0803  1.0774
12740TIP3    H259712   6.401   5.224  14.235 -0.3436 -0.0069  1.7656
12741TIP3   OH259713   0.275   5.930  10.510 -0.0298 -0.3210 -0.0195
12741TIP3    H159714   0.196   5.985  10.510 -0.0798 -0.3925 -0.0886
12741TIP3    H259715   0.242   5.840  10.508  0.0460 -0.3633  0.4336
12742TIP3   OH259716   0.925   5.693   0.447  0.4837  0.1673 -0.0973
12742TIP3    H159717   0.831   5.705   0.439  0.5587 -0.0820 -1.4376
12742TIP3    H259718   0.936   5.599   0.464  0.6160 -0.2794 -2.4857
12743TIP3   OH259719   2.824   1.562  14.061 -0.3610 -0.2487 -0.3601
12743TIP3    H159720   2.911   1.600  14.065 -0.7943  0.6657  0.5364
12743TIP3    H259721   2.829   1.483  14.115  0.1018 -0.6094 -0.9189
12744TIP3   OH259722   2.287   5.386   2.855 -0.8421 -0.0525 -0.5171
12744TIP3    H159723   2.318   5.472   2.829 -0.4044  0.2095  0.8327
12744TIP3    H259724   2.312   5.328   2.783  0.6194  0.5883 -0.5420
12745TIP3   OH259725   3.043   1.116  10.234  0.2185 -0.0821  0.4032
12745TIP3    H159726   3.138   1.109  10.240  0.2464 -0.2038 -0.1374
12745TIP3    H259727   3.011   1.031  10.266  0.1957  0.7126  2.6235
12746TIP3   OH259728   3.623   5.345   1.696  0.5577 -0.1299 -0.3761
12746TIP3    H159729   3.570   5.358   1.618  0.4877  2.3483  0.0368
12746TIP3    H259730   3.655   5.255   1.690 -2.2606 -1.0967 -1.5070
12747TIP3   OH259731   2.702   4.576   1.812 -0.2595  0.2041  0.4682
12747TIP3    H159732   2.697   4.634   1.736 -2.6127  1.0195  1.1985
12747TIP3    H259733   2.615   4.536   1.818  0.9333 -2.4872  0.7208
12748TIP3   OH259734   6.462   6.014  16.995  0.2487 -0.6967 -0.2172
12748TIP3    H159735   6.513   6.085  16.956  0.8404 -0.9428  0.0970
12748TIP3    H259736   6.475   6.023  17.089  0.8725 -1.6148 -0.2051
12749TIP3   OH259737   4.534   3.065  17.145  0.1608  0.4980  0.9845
12749TIP3    H159738   4.525   2.970  17.145  0.2149  0.4920  0.2201
12749TIP3    H259739   4.458   3.097  17.098  0.7578  0.7724  0.1949
12750TIP3   OH259740   1.698   3.297   0.486  0.3810 -0.2362  0.3244
12750TIP3    H159741   1.742   3.212   0.473  0.8396 -0.1325  1.1947
12750TIP3    H259742   1.605   3.278   0.474  0.6293 -0.5024 -1.3224
12751TIP3   OH259743   0.786   5.364  16.325  0.1141  0.0586  0.0718
12751TIP3    H159744   0.726   5.328  16.390 -0.7527  1.0298 -0.1831
12751TIP3    H259745   0.841   5.426  16.373  1.3978 -1.3300  0.4434
12752TIP3   OH259746   3.074   5.929   4.611 -0.0050  0.2009  0.1776
12752TIP3    H159747   2.981   5.948   4.599 -0.4063 -1.6844  0.0522
12752TIP3    H259748   3.080   5.834   4.599  1.7964  0.1824  1.0882
12753TIP3   OH259749   5.271   3.621  15.542 -0.3114 -0.1112  0.5772
12753TIP3    H159750   5.361   3.652  15.558 -0.2518  0.3945 -0.6663
12753TIP3    H259751   5.281   3.551  15.477 -0.6084 -1.6641  2.1790
12754TIP3   OH259752   3.413   0.369   5.571 -0.2340  0.5043 -0.0687
12754TIP3    H159753   3.481   0.437   5.573  0.6850 -0.3779 -0.2756
12754TIP3    H259754   3.369   0.375   5.655  0.7230  0.4835  0.4375
12755TIP3   OH259755   2.126   6.697   3.984  0.3308 -0.5071  0.1545
12755TIP3    H159756   2.163   6.628   3.930 -0.1831 -0.8553  0.2487
12755TIP3    H259757   2.185   6.702   4.060  1.1496  0.1059 -0.5199
12756TIP3   OH259758   5.122   4.223   1.175  0.3327 -0.0653 -0.1094
12756TIP3    H159759   5.050   4.270   1.217  0.4115  0.1779 -0.2469
12756TIP3    H259760   5.201   4.257   1.217  0.3536 -0.5408  0.2479
12757TIP3   OH259761   3.950   4.722   1.712 -0.2104  0.9157  0.1527
12757TIP3    H159762   3.880   4.659   1.694  1.0299 -0.4528 -0.0104
12757TIP3    H259763   3.973   4.707   1.803  0.4973  0.7152 -0.0557
12758TIP3   OH259764   3.155   2.505  11.754  0.2137 -0.9376 -0.0600
12758TIP3    H159765   3.198   2.496  11.669  1.1011 -0.9261  0.3908
12758TIP3    H259766   3.225   2.499  11.818  0.1984  3.5799  0.5299
12759TIP3   OH259767   0.690   2.865  16.907  0.2972 -0.4396  0.6334
12759TIP3    H159768   0.679   2.827  16.994 -2.3085  3.5447  2.1536
12759TIP3    H259769   0.628   2.938  16.904 -0.0573 -0.7349 -4.7573
12760TIP3   OH259770   3.254   5.951   6.595 -0.2299  0.4555  0.0707
12760TIP3    H159771   3.348   5.944   6.612 -0.2527  0.3630  0.1653
12760TIP3    H259772   3.221   6.001   6.669 -0.4739 -0.7571  0.8061
12761TIP3   OH259773   1.109   0.286  11.044 -0.5361 -0.0728 -0.1064
12761TIP3    H159774   1.159   0.209  11.069 -0.6669 -0.3678 -0.7415
12761TIP3    H259775   1.122   0.348  11.116 -0.0911 -0.5270  0.2056
12762TIP3   OH259776   4.611   3.344  16.863  0.0540  0.2404  0.3315
12762TIP3    H159777   4.617   3.258  16.822 -0.8556  0.4572 -0.2699
12762TIP3    H259778   4.622   3.406  16.791  1.2369  0.6416  0.8417
12763TIP3   OH259779   3.007   5.848   3.247 -0.5127 -0.3396 -0.0433
12763TIP3    H159780   2.932   5.903   3.227  0.9126  1.2679 -1.1546
12763TIP3    H259781   3.016   5.853   3.342 -1.8555 -0.6142  0.0969
12764TIP3   OH259782   6.454   6.561   5.575  0.5812  0.6806  0.0112
12764TIP3    H159783   6.465   6.474   5.537 -0.7714  0.6940 -0.4204
12764TIP3    H259784   6.440   6.545   5.669  0.4076  0.4489 -0.0565
12765TIP3   OH259785   2.616   2.545   1.403  1.3748  0.4241 -0.0120
12765TIP3    H159786   2.536   2.498   1.381  1.9027 -0.3130 -0.3974
12765TIP3    H259787   2.591   2.637   1.404  0.0424  0.0591  2.0001
12766TIP3   OH259788   5.175   0.152   3.617  0.7067  0.4834 -0.3771
12766TIP3    H159789   5.148   0.229   3.567  0.9131  1.2105  0.6198
12766TIP3    H259790   5.156   0.175   3.708  0.1873 -0.8937 -0.1376
12767TIP3   OH259791   4.160   1.363  11.628  0.6498 -0.1216 -0.0182
12767TIP3    H159792   4.211   1.432  11.587 -1.1082  1.2345 -0.0109
12767TIP3    H259793   4.203   1.281  11.602  2.7604  0.9747 -0.0115
12768TIP3   OH259794   3.695   5.296   2.485  0.2380  0.1562 -0.1136
12768TIP3    H159795   3.738   5.311   2.400 -0.8154  3.8438 -0.1080
12768TIP3    H259796   3.637   5.222   2.470  2.1396 -1.0538 -1.8019
12769TIP3   OH259797   4.733   6.282  17.229  0.2337 -0.0718  0.0694
12769TIP3    H159798   4.708   6.243  17.312 -1.9381 -0.9558 -0.9816
12769TIP3    H259799   4.748   6.375  17.250  0.3820 -0.4199  1.5518
12770TIP3   OH259800   0.916   5.788  15.775 -0.0275 -0.5452 -0.1691
12770TIP3    H159801   0.840   5.735  15.750  0.5532 -1.9352  0.9378
12770TIP3    H259802   0.977   5.725  15.813  1.9316  0.4602 -1.5857
12771TIP3   OH259803   0.721   1.915  14.047 -0.3242 -0.1814 -0.0318
12771TIP3    H159804   0.722   1.993  14.102 -3.5131  0.4309 -0.7700
12771TIP3    H259805   0.700   1.947  13.959  4.5158 -1.1665 -1.7277
12772TIP3   OH259806   0.909   5.779  11.129 -1.2514  0.5294 -0.5954
12772TIP3    H159807   0.983   5.833  11.101 -0.6016  0.1238  0.3493
12772TIP3    H259808   0.851   5.777  11.052  0.4172 -0.3982 -1.8597
12773TIP3   OH259809   5.435   2.872  15.404 -0.0012  0.3427  0.3022
12773TIP3    H159810   5.371   2.811  15.441  0.4496  0.3189  1.0594
12773TIP3    H259811   5.502   2.880  15.472  1.2934 -0.4094 -0.8638
12774TIP3   OH259812   4.126   0.452   2.543 -0.3825  0.1732  0.1786
12774TIP3    H159813   4.117   0.497   2.459 -1.1739  0.3511  0.3559
12774TIP3    H259814   4.042   0.410   2.557  0.1241 -0.8027  0.3457
12775TIP3   OH259815   6.542   5.926  14.576  0.3502 -0.1970  0.0922
12775TIP3    H159816   6.535   6.021  14.585 -2.1268 -0.3647  0.1472
12775TIP3    H259817   6.543   5.910  14.482 -2.7080 -0.2850  0.0098
12776TIP3   OH259818   6.122   0.394  12.906 -0.0483  0.9290  0.3484
12776TIP3    H159819   6.105   0.488  12.899  0.1668  0.8677 -1.1171
12776TIP3    H259820   6.084   0.357  12.827 -0.7309 -0.3203  1.2351
12777TIP3   OH259821   3.800   4.964   6.197  0.0708 -0.3162 -0.5561
12777TIP3    H159822   3.882   4.998   6.164  0.8407  1.1246  2.5968
12777TIP3    H259823   3.823   4.921   6.280 -2.2317 -0.5022  0.0507
12778TIP3   OH259824   3.837   6.579  13.325 -0.4174  0.4582 -0.4294
12778TIP3    H159825   3.880   6.525  13.259 -0.9411 -1.0127  0.4145
12778TIP3    H259826   3.858   6.537  13.408  0.9862  2.7996  0.4530
12779TIP3   OH259827   4.227   6.117   2.822  0.2775 -1.0491  0.2804
12779TIP3    H159828   4.246   6.036   2.868 -0.7801 -1.6821 -0.3771
12779TIP3    H259829   4.196   6.090   2.736 -1.2654 -0.0026  0.4816
12780TIP3   OH259830   6.205   0.285   4.537  0.5136  0.2651 -0.6504
12780TIP3    H159831   6.110   0.292   4.530  0.5005  2.0105  0.7186
12780TIP3    H259832   6.239   0.353   4.479  0.9773 -1.1711 -2.0950
12781TIP3   OH259833   2.424   0.453   5.144  0.1026 -0.3060  0.0306
12781TIP3    H159834   2.382   0.458   5.230 -1.4989  0.2622 -0.7648
12781TIP3    H259835   2.500   0.396   5.158  1.4657  2.0013  2.4377
12782TIP3   OH259836   1.014   6.660  17.076  0.2154 -0.5128 -0.8215
12782TIP3    H159837   0.994   6.597  17.145  1.3789 -0.7814 -0.7269
12782TIP3    H259838   0.931   6.670  17.029 -0.6809 -0.0927  0.7864
12783TIP3   OH259839   0.415   1.236  13.544  0.0708 -0.0467  0.4399
12783TIP3    H159840   0.344   1.217  13.605  0.7931  1.9425  1.9465
12783TIP3    H259841   0.471   1.298  13.590  1.5812  0.1621 -1.5911
12784TIP3   OH259842   0.748   0.971   4.498  0.1840 -0.2607 -0.5392
12784TIP3    H159843   0.782   0.970   4.409  3.4383  1.3138  0.6082
12784TIP3    H259844   0.765   0.883   4.531  3.0730  0.4010 -0.0928
12785TIP3   OH259845   2.857   3.626   3.261 -0.3408  0.0408  0.1994
12785TIP3    H159846   2.913   3.665   3.194  0.4333  0.8287  1.2786
12785TIP3    H259847   2.819   3.702   3.307 -0.1161 -0.4703  1.2493
12786TIP3   OH259848   2.851   2.789   2.739 -0.2384 -0.0835 -0.6139
12786TIP3    H159849   2.835   2.743   2.822 -0.1649 -0.5501 -0.8552
12786TIP3    H259850   2.895   2.870   2.764 -2.1444  0.8035  0.0047
12787TIP3   OH259851   1.193   0.617  15.955 -0.9275 -0.0472 -0.4840
12787TIP3    H159852   1.187   0.575  15.869  1.4942 -0.7946 -0.3234
12787TIP3    H259853   1.233   0.702  15.938  0.3761 -0.5509 -0.0117
12788TIP3   OH259854   3.989   2.649  16.076 -0.2680  0.3017 -0.3715
12788TIP3    H159855   4.043   2.572  16.094 -0.4482  0.1122 -0.6502
12788TIP3    H259856   3.998   2.663  15.982 -0.9120  0.1212 -0.4566
12789TIP3   OH259857   2.044   4.382  13.057 -0.5266 -0.5331 -0.1269
12789TIP3    H159858   2.112   4.336  13.106  1.1845 -1.4436 -3.2019
12789TIP3    H259859   1.982   4.314  13.031  0.3271 -0.6293 -1.9787
12790TIP3   OH259860   2.599   0.823   2.363  0.6088  0.9259 -0.2269
12790TIP3    H159861   2.621   0.730   2.367 -0.9567  0.5653  0.2969
12790TIP3    H259862   2.505   0.826   2.378  0.9871  2.7754  1.9504
12791TIP3   OH259863   5.853   0.317  14.686  0.0758  0.0374  0.2396
12791TIP3    H159864   5.885   0.301  14.597  1.5164  0.8325  0.6015
12791TIP3    H259865   5.758   0.322  14.676  0.2442  0.4880 -1.3186
12792TIP3   OH259866   5.624   1.694  16.105  0.0341  0.2599  0.0471
12792TIP3    H159867   5.560   1.671  16.037  0.2391  0.9251 -0.3723
12792TIP3    H259868   5.706   1.655  16.074  0.1022  0.4661 -0.0321
12793TIP3   OH259869   0.777   3.224  13.595 -0.1108  0.7861 -0.1267
12793TIP3    H159870   0.731   3.237  13.678  1.6114 -0.3387  1.0299
12793TIP3    H259871   0.868   3.211  13.620  0.0897 -1.7220 -2.0342
12794TIP3   OH259872   4.945   3.979  15.054 -0.0950  0.0053  0.2385
12794TIP3    H159873   4.972   3.908  14.995 -1.2370 -0.0814 -0.2093
12794TIP3    H259874   4.915   4.048  14.995 -1.9085 -0.3511  0.7155
12795TIP3   OH259875   1.640   5.794   5.899  0.5505 -0.1891  0.1541
12795TIP3    H159876   1.729   5.792   5.934  0.9057 -2.0349 -0.7847
12795TIP3    H259877   1.585   5.759   5.969  0.7691 -0.4085  0.2175
12796TIP3   OH259878   0.288   4.118  11.786 -0.3068 -0.3298  0.9670
12796TIP3    H159879   0.384   4.112  11.788 -0.2107  0.6937 -0.2071
12796TIP3    H259880   0.266   4.123  11.693 -1.5268 -0.8886  1.2186
12797TIP3   OH259881   3.014   4.256   4.867 -0.7779 -0.5337  0.5602
12797TIP3    H159882   3.044   4.269   4.957 -0.3701  2.1571  0.0943
12797TIP3    H259883   2.958   4.179   4.871  0.6946 -1.5408  2.7644
12798TIP3   OH259884   3.417   0.118  16.983 -0.0089 -0.1353  0.6527
12798TIP3    H159885   3.407   0.130  16.888  0.6707 -0.9449  0.4785
12798TIP3    H259886   3.334   0.078  17.010  0.1064 -0.6332  0.2765
12799TIP3   OH259887   4.575   0.361   4.132  0.4665  0.3087  0.3702
12799TIP3    H159888   4.594   0.446   4.092  0.5222  0.0644 -0.1277
12799TIP3    H259889   4.655   0.339   4.180  0.7804  0.1293 -0.2258
12800TIP3   OH259890   4.350   6.264   2.012 -0.1343  0.2958 -0.5069
12800TIP3    H159891   4.428   6.310   2.041 -0.9081  0.7087  0.9836
12800TIP3    H259892   4.296   6.331   1.970  0.6615 -0.1568 -2.3156
12801TIP3   OH259893   0.917   0.742  14.934  0.1294 -0.1398 -0.2802
12801TIP3    H159894   0.913   0.647  14.948  0.2958 -0.1639 -0.4065
12801TIP3    H259895   0.966   0.775  15.009  0.7409 -0.2347 -0.6348
12802TIP3   OH259896   5.151   3.989  10.987  0.1990  0.0822  0.7864
12802TIP3    H159897   5.070   3.955  10.950  0.2057  0.5749  0.3224
12802TIP3    H259898   5.219   3.929  10.956  0.1805  0.3821  0.1549
12803TIP3   OH259899   5.210   4.423   4.814  0.0011  0.0242 -0.5168
12803TIP3    H159900   5.301   4.452   4.823 -0.5411  2.0756 -1.2435
12803TIP3    H259901   5.190   4.435   4.721 -1.5240  1.2753 -0.0560
12804TIP3   OH259902   0.142   1.953  13.583 -0.2419 -0.6073  0.0724
12804TIP3    H159903   0.136   1.912  13.669 -0.6151 -1.8013 -0.5077
12804TIP3    H259904   0.130   1.881  13.521  2.1528 -0.1119 -1.0044
12805TIP3   OH259905   3.394   4.537  12.418  0.0044 -0.3782 -0.5479
12805TIP3    H159906   3.410   4.444  12.404 -0.7536 -0.7697  1.0618
12805TIP3    H259907   3.480   4.578  12.408  0.6941 -1.4952  0.5311
12806TIP3   OH259908   4.246   4.226   2.264 -0.2101 -0.1225 -0.0888
12806TIP3    H159909   4.333   4.200   2.295  0.6919  1.4687 -1.1424
12806TIP3    H259910   4.243   4.321   2.280 -0.9879  0.1582 -1.7687
12807TIP3   OH259911   5.258   1.277   1.634  0.7247  0.0925 -0.0952
12807TIP3    H159912   5.327   1.329   1.593  0.1613  0.3038 -0.7920
12807TIP3    H259913   5.282   1.186   1.617 -0.5204  0.2020 -2.6307
12808TIP3   OH259914   1.377   3.249   3.464  0.1812  0.4151 -0.5834
12808TIP3    H159915   1.353   3.245   3.557  0.5654 -0.0654 -0.5070
12808TIP3    H259916   1.309   3.197   3.420  1.0845 -0.9595 -0.3646
12809TIP3   OH259917   6.415   1.783   0.432  0.5026 -0.8519 -0.0485
12809TIP3    H159918   6.427   1.809   0.341 -0.6803  0.4939  0.1716
12809TIP3    H259919   6.485   1.719   0.448  2.0493  0.4961 -1.2667
12810TIP3   OH259920   0.388   5.023   4.373  0.2573 -0.3198  0.2635
12810TIP3    H159921   0.431   5.108   4.372 -0.9878  0.3428  0.8970
12810TIP3    H259922   0.383   4.997   4.281 -1.1432  1.2494 -0.1460
12811TIP3   OH259923   6.627   1.161   1.908  0.5072  0.1011 -0.4302
12811TIP3    H159924   6.542   1.165   1.953  0.2443 -3.1949 -0.4815
12811TIP3    H259925   6.604   1.152   1.816  0.9398  0.5670 -0.5826
12812TIP3   OH259926   5.191   2.564   6.294 -0.6229  0.1989 -0.2189
12812TIP3    H159927   5.222   2.474   6.303 -1.0541 -0.0729 -1.4510
12812TIP3    H259928   5.268   2.618   6.312 -0.7771 -0.3599  2.3752
12813TIP3   OH259929   2.335   2.225  12.041 -0.5524 -0.1040  0.0451
12813TIP3    H159930   2.410   2.236  11.983 -0.1180 -3.0931 -0.0485
12813TIP3    H259931   2.373   2.220  12.129 -0.4484 -3.0171 -0.1222
12814TIP3   OH259932   3.745   2.116  13.856  0.4754 -0.0940  0.1463
12814TIP3    H159933   3.767   2.024  13.867  1.8220  0.3031  0.8878
12814TIP3    H259934   3.768   2.136  13.765  2.1640  0.0352  0.5960
12815TIP3   OH259935   4.861   0.720   6.040  0.5808  0.9935  0.4312
12815TIP3    H159936   4.798   0.666   5.991  2.5778 -1.2686  0.2523
12815TIP3    H259937   4.825   0.723   6.129  0.7677 -1.2810  0.6293
12816TIP3   OH259938   1.687   6.775  16.947  0.2709 -0.0689 -0.8074
12816TIP3    H159939   1.738   6.822  16.881 -0.1045 -0.1147 -1.1318
12816TIP3    H259940   1.680   6.686  16.913  0.9275 -0.3360 -0.2251
12817TIP3   OH259941   3.577   6.248  16.837 -0.1772 -0.1816 -0.1016
12817TIP3    H159942   3.632   6.182  16.795 -0.8803 -1.4499  0.9238
12817TIP3    H259943   3.543   6.301  16.765 -2.0584 -2.8572 -1.2601
12818TIP3   OH259944   6.522   0.800   5.314  0.4152  0.0299  0.2206
12818TIP3    H159945   6.460   0.841   5.375 -0.5944  0.0550 -0.8036
12818TIP3    H259946   6.523   0.708   5.339 -0.3328 -0.0407 -0.0149
12819TIP3   OH259947   5.631   0.234  15.673 -0.4654  0.1915 -0.5203
12819TIP3    H159948   5.724   0.241  15.695 -0.6239 -0.0878  0.2506
12819TIP3    H259949   5.612   0.314  15.624 -0.0459  0.7189  0.1604
12820TIP3   OH259950   0.049   1.697   4.569  0.6365  0.2243 -0.2269
12820TIP3    H159951   0.128   1.724   4.616  1.1647  0.5334 -1.2643
12820TIP3    H259952   0.079   1.629   4.509 -0.0221 -0.1553 -0.1248
12821TIP3   OH259953   6.145   4.399  12.352 -0.0686  0.0793 -0.3213
12821TIP3    H159954   6.109   4.341  12.419 -0.9638 -0.1729 -1.0173
12821TIP3    H259955   6.077   4.465  12.338 -0.2311 -0.3358 -1.5643
12822TIP3   OH259956   4.906   0.448  12.959 -0.4412  0.1079 -0.8564
12822TIP3    H159957   4.918   0.419  12.869  0.4989  1.5622 -1.2276
12822TIP3    H259958   4.971   0.518  12.971 -2.2344  1.6720  0.1384
12823TIP3   OH259959   1.986   1.070  17.172 -0.0172  0.0014 -0.7552
12823TIP3    H159960   2.015   0.988  17.212  1.1280 -1.1313 -3.7805
12823TIP3    H259961   2.048   1.136  17.204  1.5639 -1.0938 -1.5403
12824TIP3   OH259962   1.836   1.182   2.100 -0.2491  0.6962  0.2340
12824TIP3    H159963   1.765   1.145   2.152 -1.5435  1.9883 -0.5616
12824TIP3    H259964   1.823   1.146   2.012 -0.5223  1.7150 -0.1478
12825TIP3   OH259965   4.385   1.901  13.846 -0.5837 -0.1123  0.2604
12825TIP3    H159966   4.325   1.856  13.787 -0.1942  0.6128 -0.6880
12825TIP3    H259967   4.460   1.925  13.792 -1.5860  3.3444  0.2658
12826TIP3   OH259968   0.523   3.341   0.785  0.3357  0.2763 -0.0469
12826TIP3    H159969   0.617   3.345   0.764  0.4058 -0.3853  0.1107
12826TIP3    H259970   0.513   3.258   0.832 -0.3655  0.2441 -0.2466
12827TIP3   OH259971   0.161   3.886  12.414 -0.4010  0.0495 -0.0897
12827TIP3    H159972   0.067   3.903  12.413 -0.2135  1.0242 -0.8000
12827TIP3    H259973   0.169   3.800  12.456 -1.5756  0.1343  0.3163
12828TIP3   OH259974   1.745   1.009  15.582  0.1928 -0.4731 -0.9467
12828TIP3    H159975   1.774   1.090  15.541 -1.4655 -0.4976 -2.2437
12828TIP3    H259976   1.682   1.036  15.648 -2.0512 -0.8044 -2.9055
12829TIP3   OH259977   4.431   0.271   5.332  0.6377 -0.5015 -0.2585
12829TIP3    H159978   4.408   0.232   5.248  1.6169  1.0082 -1.2442
12829TIP3    H259979   4.347   0.298   5.370  0.4402  2.3699 -2.5406
12830TIP3   OH259980   5.188   5.427  10.640  0.1856  0.6033 -0.0474
12830TIP3    H159981   5.265   5.395  10.687 -0.7584 -1.5857  0.0469
12830TIP3    H259982   5.207   5.409  10.548 -0.5276 -0.6166  0.0433
12831TIP3   OH259983   0.457   5.490  11.333 -0.1865 -0.2770 -0.2537
12831TIP3    H159984   0.531   5.551  11.337  0.0149 -0.3216 -2.4826
12831TIP3    H259985   0.490   5.410  11.374 -0.4936  1.1254  2.7888
12832TIP3   OH259986   3.382   1.656   4.202 -0.6694 -0.5093  0.2989
12832TIP3    H159987   3.407   1.586   4.262 -3.0711 -0.3885  1.5156
12832TIP3    H259988   3.375   1.734   4.258 -1.3369 -0.0384 -0.4235
12833TIP3   OH259989   0.577   3.002  11.276  0.1292 -0.5623  0.1044
12833TIP3    H159990   0.543   3.090  11.291  1.4536 -0.1216  0.6042
12833TIP3    H259991   0.525   2.967  11.204  0.6923  1.2332 -1.1867
12834TIP3   OH259992   1.237   5.839  14.802  0.6458 -0.1350  0.0564
12834TIP3    H159993   1.292   5.827  14.880  0.9883 -0.6885 -0.2658
12834TIP3    H259994   1.275   5.781  14.736 -1.6660 -2.2842  0.5146
12835TIP3   OH259995   5.954   3.156   2.061  0.1944  0.0232  0.3031
12835TIP3    H159996   5.866   3.122   2.047  0.4444 -0.6774  0.4428
12835TIP3    H259997   5.947   3.249   2.039  0.1315 -0.6440 -2.5905
12836TIP3   OH259998   3.421   2.308  12.866  0.1357  0.7173 -0.7015
12836TIP3    H159999   3.370   2.363  12.924  0.2463 -1.1972  1.2698
12836TIP3    H260000   3.358   2.275  12.802 -0.8306 -0.4923  0.8572
12837TIP3   OH260001   1.946   1.439  14.981 -0.4197  0.0616  0.5268
12837TIP3    H160002   1.942   1.343  14.980 -1.4464  0.0850 -2.9420
12837TIP3    H260003   1.927   1.465  14.891 -0.0296  3.5467  1.3801
12838TIP3   OH260004   6.723   6.271  13.212  0.2659  0.3152 -0.5853
12838TIP3    H160005   6.815   6.294  13.226  0.0947  0.5939  0.0888
12838TIP3    H260006   6.713   6.270  13.117  0.3981  2.5500 -0.6504
12839TIP3   OH260007   2.312   1.887   1.650  0.4533  0.2961  0.7028
12839TIP3    H160008   2.366   1.830   1.706  0.0719  0.4145  1.1897
12839TIP3    H260009   2.359   1.888   1.566  1.5255  0.8678  1.2966
12840TIP3   OH260010   2.060   2.991   4.937 -0.1751 -0.5339  0.1838
12840TIP3    H160011   2.050   3.066   4.879  0.8813 -0.8895 -0.4751
12840TIP3    H260012   1.984   2.994   4.995 -0.9794  0.1113 -0.9038
12841TIP3   OH260013   0.002   2.230   2.241 -0.3585  0.6120  0.0239
12841TIP3    H160014   0.004   2.151   2.186  1.5074  1.3063 -0.9717
12841TIP3    H260015  -0.062   2.210   2.309 -0.2915 -1.5702 -0.4928
12842TIP3   OH260016   6.435   4.212  12.325  0.0828 -0.1663  0.0110
12842TIP3    H160017   6.474   4.127  12.307  0.3621  0.1798 -1.0398
12842TIP3    H260018   6.464   4.232  12.414  2.2968  0.0516 -0.7159
12843TIP3   OH260019   4.296   1.895  16.972  0.0567  0.2676  0.4974
12843TIP3    H160020   4.225   1.959  16.983 -0.0724 -0.0838  1.7738
12843TIP3    H260021   4.258   1.812  17.000  1.2937  0.2758  2.3277
12844TIP3   OH260022   2.934   1.859  12.347 -0.0040  0.3196  0.6502
12844TIP3    H160023   2.858   1.917  12.346  0.9225  1.5588  0.7921
12844TIP3    H260024   2.980   1.881  12.428  0.3217 -0.6708  0.7449
12845TIP3   OH260025   4.375   2.154   0.307  0.1931 -0.1518  0.4774
12845TIP3    H160026   4.405   2.063   0.307  0.2067 -0.1496 -0.3444
12845TIP3    H260027   4.349   2.171   0.398 -0.1168 -1.0797  0.5653
12846TIP3   OH260028   3.936   5.590   1.261 -0.0635 -0.7186  0.2823
12846TIP3    H160029   3.900   5.642   1.333  3.2976 -0.4076  1.8240
12846TIP3    H260030   3.955   5.505   1.299  1.5392 -0.6196 -0.2410
12847TIP3   OH260031   3.930   0.701  14.324 -0.2276 -0.3589 -0.4347
12847TIP3    H160032   4.025   0.694  14.311  0.0994  1.0932  0.9962
12847TIP3    H260033   3.898   0.738  14.242  0.2272 -2.1966 -1.4783
12848TIP3   OH260034   4.083   3.278  15.121 -0.7965  0.2929  0.1560
12848TIP3    H160035   4.071   3.269  15.027 -2.3584  0.6185  0.3085
12848TIP3    H260036   4.140   3.206  15.146  0.4950  0.8211 -1.1974
12849TIP3   OH260037   6.614   4.358  16.933 -0.2021 -0.1996 -0.0872
12849TIP3    H160038   6.522   4.331  16.931 -0.5772  1.1532 -1.6000
12849TIP3    H260039   6.657   4.300  16.871 -0.0536 -0.6951  0.4685
12850TIP3   OH260040   3.786   5.101  11.706  0.1652  0.0028 -0.3413
12850TIP3    H160041   3.715   5.085  11.768  1.9590 -0.6775  1.5944
12850TIP3    H260042   3.781   5.027  11.645  0.7327 -1.4054  1.2646
12851TIP3   OH260043   1.829   2.123  11.142 -0.1313 -0.3041 -0.7239
12851TIP3    H160044   1.774   2.069  11.200  0.4356  0.6209  0.7155
12851TIP3    H260045   1.918   2.111  11.175 -0.0997  2.1929  0.2127
12852TIP3   OH260046   0.754   4.060   0.077 -0.1049 -0.0090 -0.3843
12852TIP3    H160047   0.677   4.095   0.121 -0.3704  0.0284 -0.8677
12852TIP3    H260048   0.772   3.977   0.121  0.3122  0.5670  0.5268
12853TIP3   OH260049   3.484   5.637  12.015  0.3390 -0.1662  0.2361
12853TIP3    H160050   3.565   5.639  12.065  1.0877 -1.4358 -0.8751
12853TIP3    H260051   3.437   5.717  12.040  1.0905 -0.3487  2.2560
12854TIP3   OH260052   1.690   1.432   3.582 -0.5326 -0.3572  0.9255
12854TIP3    H160053   1.691   1.373   3.507 -1.2762 -0.5985  1.0998
12854TIP3    H260054   1.780   1.462   3.590 -0.2350 -1.1390  0.5789
12855TIP3   OH260055   1.660   2.202  14.678  0.6285 -0.2649 -0.1669
12855TIP3    H160056   1.589   2.141  14.695  0.8739 -0.5520 -0.1809
12855TIP3    H260057   1.738   2.161  14.716  0.9172 -0.2663 -0.7509
12856TIP3   OH260058   0.615   0.235   3.677  0.9090  0.2683  0.1235
12856TIP3    H160059   0.635   0.155   3.628 -2.8468 -0.7101 -0.0093
12856TIP3    H260060   0.520   0.242   3.672  0.7737  2.2842  4.0161
12857TIP3   OH260061   1.911   1.931   0.141 -0.0045 -0.0373 -0.4955
12857TIP3    H160062   1.915   1.846   0.096 -0.5506 -0.0614 -0.5101
12857TIP3    H260063   1.817   1.946   0.152  0.1303 -0.0335  0.6405
12858TIP3   OH260064   5.149   6.103   2.735 -0.3286 -0.1448  0.0454
12858TIP3    H160065   5.119   6.070   2.820 -0.9093 -1.0182 -0.4871
12858TIP3    H260066   5.147   6.198   2.744 -1.2174 -0.2170  0.7340
12859TIP3   OH260067   4.803   0.807   4.795 -0.8040 -0.7704  0.1820
12859TIP3    H160068   4.745   0.790   4.721  0.5004  0.2709 -1.1042
12859TIP3    H260069   4.743   0.829   4.867 -2.0364 -0.4832 -0.9049
12860TIP3   OH260070   5.366   5.596   3.113  0.1784  0.1352 -0.2766
12860TIP3    H160071   5.397   5.642   3.191  1.7915  0.2656 -0.9782
12860TIP3    H260072   5.338   5.510   3.145 -0.9071  0.8342  0.7123
12861TIP3   OH260073   6.532   5.538   1.414 -0.0131  0.2090 -0.7013
12861TIP3    H160074   6.484   5.586   1.347 -0.5617 -0.2426 -0.6370
12861TIP3    H260075   6.476   5.542   1.492 -0.1924 -0.7588 -0.7761
12862TIP3   OH260076   2.362   3.753   1.783  0.4849 -0.2735  0.6390
12862TIP3    H160077   2.289   3.691   1.787  0.7715 -1.0306 -3.3576
12862TIP3    H260078   2.434   3.703   1.743  2.1252  1.4097  1.4046
12863TIP3   OH260079   3.396   0.199  11.287 -0.1726 -0.1182 -0.3736
12863TIP3    H160080   3.412   0.292  11.270  0.6453 -0.5503 -2.0902
12863TIP3    H260081   3.449   0.180  11.364 -0.6211  0.9232  0.1983
12864TIP3   OH260082   4.291   0.351   1.247  0.1551  0.2097  0.3633
12864TIP3    H160083   4.376   0.323   1.281  0.6499  2.0660  0.6787
12864TIP3    H260084   4.233   0.276   1.263  1.6907 -1.0196  0.2594
12865TIP3   OH260085   0.445   6.528  10.944 -0.8872  0.1148  0.0134
12865TIP3    H160086   0.473   6.619  10.945 -0.5520  0.0227  2.4992
12865TIP3    H260087   0.496   6.486  11.014 -2.8546 -1.3933  0.6063
12866TIP3   OH260088   1.462   0.838  14.260  0.1583 -0.2553 -0.8003
12866TIP3    H160089   1.485   0.745  14.250  0.0366 -0.4553  0.6331
12866TIP3    H260090   1.508   0.882  14.189  1.4505 -1.2195 -0.5715
12867TIP3   OH260091   0.947   0.829   1.584 -0.4008 -0.2615  0.5598
12867TIP3    H160092   0.888   0.867   1.518 -0.4223 -2.4445 -0.6976
12867TIP3    H260093   0.892   0.765   1.630  0.4099 -0.7831  0.7966
12868TIP3   OH260094   0.794   6.199  16.311  0.2486  0.2413 -0.1267
12868TIP3    H160095   0.872   6.253  16.303  0.8301 -0.6205 -0.4243
12868TIP3    H260096   0.764   6.188  16.220  2.1744 -2.8308 -0.4876
12869TIP3   OH260097   2.462   5.080   0.541  0.0412  0.3962 -0.5923
12869TIP3    H160098   2.439   5.168   0.512  1.1163  0.9050  0.0868
12869TIP3    H260099   2.438   5.079   0.634  2.3878  0.8168  0.0400
12870TIP3   OH260100   4.208   1.494   5.871 -0.1609 -0.0808 -0.4124
12870TIP3    H160101   4.200   1.444   5.953  0.1636  0.4478 -0.0589
12870TIP3    H260102   4.127   1.474   5.824 -0.0055 -1.0061 -0.3117
12871TIP3   OH260103   6.357   5.615   1.616  0.1945 -0.2649 -0.0805
12871TIP3    H160104   6.368   5.656   1.702 -2.0063  3.8011 -1.6136
12871TIP3    H260105   6.262   5.610   1.604  0.4653  1.2850 -3.1582
12872TIP3   OH260106   5.947   5.796   1.763  0.1772 -0.0042  0.3530
12872TIP3    H160107   5.894   5.752   1.828  1.4523  0.0939  1.4894
12872TIP3    H260108   5.885   5.844   1.708 -0.8280  0.7171  2.1078
12873TIP3   OH260109   0.509   0.165   0.030 -0.3275 -0.2474  0.0853
12873TIP3    H160110   0.523   0.094   0.093 -0.5082 -0.1498  0.2359
12873TIP3    H260111   0.489   0.241   0.084  0.2395  0.0072 -0.0636
12874TIP3   OH260112   6.484   5.256  13.907  0.2068 -0.4920 -0.2580
12874TIP3    H160113   6.436   5.215  13.979  0.0244 -0.2017 -0.2152
12874TIP3    H260114   6.495   5.347  13.934  2.0347 -0.8790  0.3789
12875TIP3   OH260115   0.359   1.055  14.300  0.0446  0.0239 -0.4727
12875TIP3    H160116   0.400   1.060  14.387 -0.2343  1.3677 -0.3958
12875TIP3    H260117   0.410   0.990  14.253 -1.9447 -3.3501  1.8285
12876TIP3   OH260118   1.880   2.486   5.591 -0.8131  0.1394  0.0586
12876TIP3    H160119   1.909   2.471   5.681  1.8296 -0.0288 -0.7746
12876TIP3    H260120   1.814   2.418   5.575 -2.0351  0.7949  2.1686
12877TIP3   OH260121   1.022   5.667   3.707 -0.4438  0.1054  0.6055
12877TIP3    H160122   1.018   5.573   3.727 -0.6177  0.0530  0.3298
12877TIP3    H260123   0.968   5.708   3.774 -0.0050  0.0542  0.9984
12878TIP3   OH260124   3.576   5.226  11.526  0.6495  0.0052  0.2309
12878TIP3    H160125   3.527   5.161  11.476 -0.7271 -0.0112  1.5681
12878TIP3    H260126   3.650   5.178  11.562  0.1239 -0.6201  0.4785
12879TIP3   OH260127   0.967   4.355   1.314 -0.3456 -0.1891 -0.0672
12879TIP3    H160128   0.977   4.355   1.409  0.0091  0.3151 -0.1030
12879TIP3    H260129   1.017   4.280   1.284  1.0060  0.6832 -0.0086
12880TIP3   OH260130   6.142   2.644   5.108  0.1686  0.0301 -0.1994
12880TIP3    H160131   6.070   2.664   5.169 -0.2849  0.3574 -0.8290
12880TIP3    H260132   6.107   2.575   5.051  1.0991 -1.3055  0.8116
12881TIP3   OH260133   3.530   3.858   4.189 -0.2537  0.3126 -0.6372
12881TIP3    H160134   3.480   3.935   4.161  1.6450  1.7627 -0.1442
12881TIP3    H260135   3.585   3.836   4.114 -0.2849 -0.1486 -0.5302
12882TIP3   OH260136   2.086   4.840  14.521  0.3151  0.4871  0.0041
12882TIP3    H160137   2.157   4.866  14.580 -0.3867 -0.0865  1.1047
12882TIP3    H260138   2.038   4.921  14.505  0.2834  0.5712  0.5213
12883TIP3   OH260139   1.960   1.929   1.928 -0.1355  0.7815  0.2061
12883TIP3    H160140   1.958   1.910   2.022  1.4253  0.5828  0.2050
12883TIP3    H260141   2.020   2.003   1.920  0.0320  0.5574 -0.6663
12884TIP3   OH260142   1.281   1.953  16.542 -0.0239  0.1237 -0.1120
12884TIP3    H160143   1.331   1.881  16.502 -1.2886 -0.3401 -0.8891
12884TIP3    H260144   1.263   1.924  16.631  1.1745  0.3444  0.2126
12885TIP3   OH260145   2.586   4.244  10.290  0.3127  0.5468  0.8251
12885TIP3    H160146   2.680   4.237  10.274  0.4004  0.9714  1.1372
12885TIP3    H260147   2.564   4.166  10.340  0.3500  0.0519  0.0805
12886TIP3   OH260148   1.091   2.247  12.302 -0.2828  0.1604 -0.1916
12886TIP3    H160149   1.097   2.159  12.340  4.3886  0.3516 -0.1847
12886TIP3    H260150   1.114   2.235  12.210  0.8841  1.4084 -0.0774
12887TIP3   OH260151   4.297   3.959   4.308 -0.4970 -0.3143  0.4543
12887TIP3    H160152   4.255   3.874   4.296 -0.3734 -0.4082  0.6865
12887TIP3    H260153   4.360   3.945   4.378 -1.7440  0.4106  1.7516
12888TIP3   OH260154   2.208   6.703  13.781  0.5172  0.0063  0.7915
12888TIP3    H160155   2.268   6.770  13.747  0.7927 -0.2321  0.8159
12888TIP3    H260156   2.208   6.716  13.875  0.1593  0.3212  0.7493
12889TIP3   OH260157   1.313   0.715  12.689 -0.0796  0.2714  0.3815
12889TIP3    H160158   1.221   0.720  12.717 -0.1608  0.1369  0.1417
12889TIP3    H260159   1.338   0.625  12.707 -0.7312 -0.3707 -1.8103
12890TIP3   OH260160   0.150   2.915  10.653  0.0770  0.7989  0.4272
12890TIP3    H160161   0.176   2.858  10.725  1.9879 -1.0218 -1.6428
12890TIP3    H260162   0.066   2.952  10.680 -0.8309 -2.4023  2.1354
12891TIP3   OH260163   0.663   3.854  15.069 -0.0633  0.5304  0.5399
12891TIP3    H160164   0.630   3.935  15.028 -1.5743 -0.5359 -0.4135
12891TIP3    H260165   0.587   3.796  15.070  1.5137 -1.6021 -0.6264
12892TIP3   OH260166   4.139   3.369   1.756 -0.1490 -0.1403 -0.0424
12892TIP3    H160167   4.075   3.396   1.690 -0.7647 -1.1117  0.1403
12892TIP3    H260168   4.095   3.383   1.840 -0.2105 -1.0152  0.0758
12893TIP3   OH260169   0.159   4.979  11.773 -0.0728  0.2792 -0.1541
12893TIP3    H160170   0.149   4.943  11.861 -1.8647 -0.9020 -0.8137
12893TIP3    H260171   0.178   5.072  11.788 -0.0589  0.0319  1.4923
12894TIP3   OH260172   6.816   1.656  15.012  0.6214 -0.0157 -0.8707
12894TIP3    H160173   6.864   1.739  15.017  1.8858 -0.6260 -2.6722
12894TIP3    H260174   6.748   1.672  14.947  1.6463 -0.7784 -2.1374
12895TIP3   OH260175   5.134   2.510   0.149  0.1118 -0.3789  0.0773
12895TIP3    H160176   5.093   2.566   0.214  1.5111  1.0674 -0.2695
12895TIP3    H260177   5.228   2.522   0.162  0.4109 -0.3369 -1.9651
12896TIP3   OH260178   3.397   5.163  16.787  0.5683  0.0835  0.0664
12896TIP3    H160179   3.315   5.183  16.833  1.2522  0.0858  1.2884
12896TIP3    H260180   3.369   5.111  16.711 -0.5761  0.1858  0.4033
12897TIP3   OH260181   2.759   3.543  11.693  0.0245 -0.0489 -0.2318
12897TIP3    H160182   2.776   3.575  11.604  1.1320 -1.6965 -0.6332
12897TIP3    H260183   2.690   3.478  11.682  0.6250 -0.7322  0.0218
12898TIP3   OH260184   5.355   4.574   3.564  0.2361 -0.2621  0.8961
12898TIP3    H160185   5.417   4.638   3.599  1.4964 -0.9970  0.0334
12898TIP3    H260186   5.271   4.620   3.565  1.3936  2.0208 -1.3426
12899TIP3   OH260187   3.833   4.359   5.743 -0.4893  0.5081  0.0932
12899TIP3    H160188   3.809   4.269   5.724 -1.6606  1.0689 -1.1383
12899TIP3    H260189   3.811   4.408   5.664  1.6953  1.6041  0.1072
12900TIP3   OH260190   2.102   0.387   3.477  0.8182  0.3816 -0.1608
12900TIP3    H160191   2.175   0.416   3.531  0.2888  1.3289  0.0593
12900TIP3    H260192   2.092   0.294   3.498  2.5077  0.0241 -0.8487
12901TIP3   OH260193   6.301   1.317   1.052  0.4741  0.0999 -0.3963
12901TIP3    H160194   6.350   1.391   1.087  0.2710  1.0807 -2.0901
12901TIP3    H260195   6.354   1.240   1.073 -0.2217  0.5032  3.0175
12902TIP3   OH260196   3.467   4.193  12.417  0.9656  0.1577  0.5738
12902TIP3    H160197   3.500   4.116  12.370  2.2821  0.6374  0.6885
12902TIP3    H260198   3.403   4.232  12.358  1.4980 -0.1046 -0.1822
12903TIP3   OH260199   5.338   3.822   5.967 -0.7099  0.1941 -0.7103
12903TIP3    H160200   5.433   3.829   5.962 -0.8170  2.5323 -0.1197
12903TIP3    H260201   5.317   3.841   6.058 -1.8464  1.3975 -1.2030
12904TIP3   OH260202   4.552   2.339  11.167  0.4710 -0.2007  0.5120
12904TIP3    H160203   4.645   2.337  11.189  0.4576  0.4706  0.6708
12904TIP3    H260204   4.542   2.277  11.096  0.9061 -0.8501  1.0132
12905TIP3   OH260205   4.342   5.308   3.340 -0.6350  0.2779  0.2579
12905TIP3    H160206   4.437   5.302   3.340 -0.6271  0.3024  1.5073
12905TIP3    H260207   4.324   5.397   3.369 -1.0326  0.4620 -0.5459
12906TIP3   OH260208   3.377   6.217  13.449 -0.4049 -0.0973 -0.4192
12906TIP3    H160209   3.381   6.128  13.412 -1.3665  0.7503 -2.6672
12906TIP3    H260210   3.296   6.217  13.500  0.4611 -1.0058  0.9859
12907TIP3   OH260211   4.063   1.856  16.678  0.1729  0.3341  0.1926
12907TIP3    H160212   4.141   1.847  16.732  1.6399  0.4353 -1.8364
12907TIP3    H260213   4.085   1.927  16.616 -1.5032  0.3379 -0.4280
12908TIP3   OH260214   0.305   2.036   0.294 -0.3543  0.5343  0.4336
12908TIP3    H160215   0.274   2.046   0.204 -0.3135 -1.0721  0.2208
12908TIP3    H260216   0.229   2.057   0.348 -0.5832  0.8143  0.0099
12909TIP3   OH260217   1.253   1.661  14.064 -0.8184 -0.3457  0.3331
12909TIP3    H160218   1.180   1.602  14.047 -1.4222  0.3246  0.5955
12909TIP3    H260219   1.228   1.743  14.022  0.0277 -0.2766 -0.0420
12910TIP3   OH260220   1.035   5.894   1.661 -0.4055 -0.0233 -0.1053
12910TIP3    H160221   1.105   5.953   1.633 -1.0057  0.1878 -1.2157
12910TIP3    H260222   1.062   5.808   1.629  1.7470 -0.8998  3.7635
12911TIP3   OH260223   4.237   2.382   5.928 -0.3638  0.4918  0.2101
12911TIP3    H160224   4.226   2.366   5.834  1.3892 -0.5386  0.1608
12911TIP3    H260225   4.200   2.470   5.941  1.1691  1.4925 -1.8274
12912TIP3   OH260226   4.440   6.156  11.276  0.2774  0.0296 -0.3915
12912TIP3    H160227   4.470   6.151  11.367  1.7358  1.3716 -0.7898
12912TIP3    H260228   4.437   6.064  11.248  1.8633 -0.2830  0.3676
12913TIP3   OH260229   5.988   4.532   3.852 -0.2346  0.0709 -0.3322
12913TIP3    H160230   6.062   4.472   3.851  0.7708  1.2870 -0.3065
12913TIP3    H260231   5.944   4.514   3.935  0.5796 -0.0086  0.0884
12914TIP3   OH260232   5.143   5.647  15.293  0.6124 -0.0842  0.0198
12914TIP3    H160233   5.168   5.600  15.372  1.7034 -2.3944 -1.6298
12914TIP3    H260234   5.053   5.675  15.309  1.2755  0.7224  2.5854
12915TIP3   OH260235   6.367   6.343   2.053  0.3198 -0.0483  0.3232
12915TIP3    H160236   6.338   6.256   2.026 -0.3459  0.6388 -1.2339
12915TIP3    H260237   6.460   6.344   2.031  0.5951 -0.7565  1.4034
12916TIP3   OH260238   2.035   3.291  15.497  0.2325 -0.8730  0.2642
12916TIP3    H160239   1.967   3.325  15.439 -0.7605 -3.3075 -0.0486
12916TIP3    H260240   2.098   3.363  15.505 -0.7974  0.3224 -1.9677
12917TIP3   OH260241   1.190   4.766  15.818 -0.2240  0.8934 -0.0979
12917TIP3    H160242   1.269   4.756  15.766  0.0596  2.6106 -0.0083
12917TIP3    H260243   1.121   4.729  15.763  0.7036 -1.1515  0.0671
12918TIP3   OH260244   5.556   5.055   1.051  0.1504 -0.0267 -0.7889
12918TIP3    H160245   5.620   5.031   0.984 -0.6594 -1.3865 -1.0982
12918TIP3    H260246   5.483   5.093   1.001  0.6906  1.4925 -0.4431
12919TIP3   OH260247   4.886   2.542  15.410 -0.6684  0.0814  0.0277
12919TIP3    H160248   4.839   2.518  15.331  0.2672  1.0905 -0.8569
12919TIP3    H260249   4.930   2.625  15.388  1.1590 -0.6089  0.9322
12920TIP3   OH260250   0.930   4.909   5.438  0.7445 -0.2605 -0.1215
12920TIP3    H160251   0.870   4.851   5.485 -0.3356  1.2118  0.3500
12920TIP3    H260252   0.979   4.954   5.507  0.8999  0.0947 -0.4591
12921TIP3   OH260253   0.244   6.451   5.212  0.0238 -0.0901  0.0465
12921TIP3    H160254   0.288   6.533   5.189 -0.5828  0.5925  1.2507
12921TIP3    H260255   0.228   6.458   5.306  1.6392 -2.4083  0.5268
12922TIP3   OH260256   3.330   2.937  16.483  0.4856 -0.0626 -1.0356
12922TIP3    H160257   3.331   3.024  16.522 -1.5602 -0.1164 -0.7921
12922TIP3    H260258   3.366   2.949  16.396  2.3482  0.5975 -0.1881
12923TIP3   OH260259   5.374   3.690   3.396  0.0003 -0.4096  1.0602
12923TIP3    H160260   5.378   3.614   3.338 -0.8586  0.0395  0.4051
12923TIP3    H260261   5.420   3.662   3.475  0.4687 -1.3032  0.4787
12924TIP3   OH260262   5.750   2.718  15.974 -0.2308  0.1653 -0.1605
12924TIP3    H160263   5.792   2.795  15.935 -0.0264 -0.3176 -0.9096
12924TIP3    H260264   5.729   2.745  16.064  0.0424  1.0152 -0.3462
12925TIP3   OH260265   3.169   0.543  15.454  0.0729 -0.0696 -0.2008
12925TIP3    H160266   3.195   0.467  15.401 -0.0353  0.4963 -1.0856
12925TIP3    H260267   3.187   0.618  15.397 -2.4133  0.4055 -0.4159
12926TIP3   OH260268   0.120   0.136   4.159  0.1885  0.9310  0.4500
12926TIP3    H160269   0.140   0.213   4.105  1.2924 -1.4853 -2.7625
12926TIP3    H260270   0.201   0.118   4.207  0.8426  0.2311 -0.8712
12927TIP3   OH260271   4.030   6.307   2.770 -0.5044 -0.1752  0.0811
12927TIP3    H160272   4.103   6.269   2.819 -0.8037  0.7985  1.3025
12927TIP3    H260273   3.974   6.232   2.749  0.0350 -0.7120  0.5454
12928TIP3   OH260274   4.744   6.448  13.893 -0.7600 -0.3507  0.2946
12928TIP3    H160275   4.760   6.521  13.953  0.2519  0.6932 -1.1972
12928TIP3    H260276   4.739   6.489  13.807 -1.3337 -1.9290 -0.4378
12929TIP3   OH260277   5.924   2.476   6.363  0.2727 -0.2365 -0.4872
12929TIP3    H160278   5.962   2.563   6.357 -1.0068  0.2234 -2.4932
12929TIP3    H260279   5.998   2.418   6.382  1.0795  1.3059  1.1561
12930TIP3   OH260280   4.262   4.166   0.144  0.1506 -0.1955 -0.0898
12930TIP3    H160281   4.238   4.116   0.222 -0.1654 -0.6500 -0.4722
12930TIP3    H260282   4.307   4.243   0.178 -0.1725 -0.2830  0.5522
12931TIP3   OH260283   3.420   2.798  12.996  0.1629  0.6736  0.2991
12931TIP3    H160284   3.419   2.869  13.060 -0.1633  0.4659  0.5260
12931TIP3    H260285   3.402   2.842  12.913  0.9356  0.9922  0.2960
12932TIP3   OH260286   0.133   5.118  13.845  0.2278 -0.4993 -0.1554
12932TIP3    H160287   0.228   5.105  13.846  0.3461  0.2938  0.0814
12932TIP3    H260288   0.100   5.058  13.779  1.0682  0.2763 -1.3080
12933TIP3   OH260289   3.370   4.475   5.698  0.4990 -0.8424 -0.1959
12933TIP3    H160290   3.306   4.525   5.647  1.3399  0.5948  0.1307
12933TIP3    H260291   3.448   4.473   5.642  0.5109 -1.6992 -0.1527
12934TIP3   OH260292   6.144   0.702   3.146  0.0376 -0.3132  0.3459
12934TIP3    H160293   6.053   0.726   3.161  0.0714  0.8152 -1.1710
12934TIP3    H260294   6.161   0.725   3.055  2.2518  0.9151  1.0265
12935TIP3   OH260295   1.650   1.217   3.142 -0.4529  0.3462  0.5209
12935TIP3    H160296   1.610   1.150   3.086  1.7640 -0.5204 -0.0860
12935TIP3    H260297   1.645   1.297   3.090 -0.5506  0.0540  0.0715
12936TIP3   OH260298   0.723   3.808  13.089 -0.2585 -0.3196 -0.2063
12936TIP3    H160299   0.800   3.751  13.083 -0.8389 -1.0287 -1.1639
12936TIP3    H260300   0.694   3.801  13.180  1.6169  1.0328  0.5184
12937TIP3   OH260301   0.082   3.164   3.519 -0.4678 -0.4210 -0.9995
12937TIP3    H160302   0.081   3.242   3.463 -0.6806 -0.8229 -1.5636
12937TIP3    H260303   0.002   3.117   3.496 -1.1649 -0.0017  0.4999
12938TIP3   OH260304   6.506   1.134  15.518 -0.0279 -0.3666 -0.3590
12938TIP3    H160305   6.427   1.152  15.569  0.3137 -1.8174  0.7054
12938TIP3    H260306   6.567   1.203  15.543 -1.1142  1.0692 -1.5777
12939TIP3   OH260307   1.128   3.800  12.167  0.3520 -0.0824  0.1781
12939TIP3    H160308   1.121   3.801  12.071 -1.3307  1.2086  0.2850
12939TIP3    H260309   1.055   3.745  12.195 -1.2487  2.2797  0.8187
12940TIP3   OH260310   5.001   0.444   1.252 -0.0503 -0.4743 -0.0530
12940TIP3    H160311   5.058   0.458   1.327  0.2614 -0.0052 -0.3780
12940TIP3    H260312   5.047   0.485   1.178 -1.4680  1.1649 -0.0584
12941TIP3   OH260313   5.835   3.950  13.880  0.3548  0.2361  0.1085
12941TIP3    H160314   5.859   3.944  13.787 -0.2965 -0.0185 -0.0470
12941TIP3    H260315   5.909   3.994  13.921  0.5807  0.4879 -0.5599
12942TIP3   OH260316   2.432   5.748   1.583  0.0589 -0.3373  0.3161
12942TIP3    H160317   2.493   5.772   1.513 -0.4519 -1.5951 -0.5863
12942TIP3    H260318   2.359   5.808   1.572 -0.0469 -0.5657 -0.2777
12943TIP3   OH260319   5.548   5.686   1.968 -0.2563  0.0342 -0.0438
12943TIP3    H160320   5.521   5.597   1.992 -0.7258 -0.2759 -1.6926
12943TIP3    H260321   5.629   5.700   2.016 -0.1198 -1.3281  0.1466
12944TIP3   OH260322   5.185   5.412  16.667  0.1216 -0.4986  0.1977
12944TIP3    H160323   5.242   5.343  16.632  1.1619 -0.0107  0.9329
12944TIP3    H260324   5.124   5.366  16.724 -0.0179 -0.9749 -0.3232
12945TIP3   OH260325   6.641   6.457   0.565 -0.2733 -0.1102  0.1854
12945TIP3    H160326   6.710   6.417   0.512 -1.1370 -0.4329 -0.7041
12945TIP3    H260327   6.679   6.462   0.653  0.6608 -0.8436 -0.1611
12946TIP3   OH260328   2.113   1.296  14.459 -0.5491  0.1968 -0.1758
12946TIP3    H160329   2.169   1.349  14.402  0.6432 -1.7890 -0.8949
12946TIP3    H260330   2.173   1.256  14.522 -1.1891 -1.5570 -0.6393
12947TIP3   OH260331   4.899   3.910   1.984 -0.4232  0.7347 -0.1558
12947TIP3    H160332   4.936   3.846   1.923  1.6913  1.4455  0.3466
12947TIP3    H260333   4.804   3.905   1.969 -0.1740 -1.3162 -1.2855
12948TIP3   OH260334   0.840   2.243   6.969 -0.1148 -0.2798  0.6905
12948TIP3    H160335   0.797   2.313   7.018 -1.7273 -0.0228 -1.0537
12948TIP3    H260336   0.779   2.169   6.973 -0.0873 -0.3840 -0.5974
12949TIP3   OH260337   4.196   6.141  16.231 -0.0303 -0.2249 -0.1572
12949TIP3    H160338   4.105   6.155  16.258 -0.2943  1.5714 -1.8544
12949TIP3    H260339   4.248   6.186  16.297 -0.2092 -3.0451  2.0108
12950TIP3   OH260340   4.618   0.910   4.993 -0.4095 -0.6048 -0.1711
12950TIP3    H160341   4.561   0.986   4.980 -0.4570 -0.5207  0.5040
12950TIP3    H260342   4.649   0.919   5.083  0.1119 -1.0334 -0.3065
12951TIP3   OH260343   2.302   2.718   4.584  0.3985  0.0665 -0.0038
12951TIP3    H160344   2.219   2.672   4.579  0.2788  0.2740  0.0727
12951TIP3    H260345   2.324   2.740   4.493 -0.0929  0.8355  0.0554
12952TIP3   OH260346   4.530   5.924  13.064  0.6452 -0.5038  0.0544
12952TIP3    H160347   4.474   5.863  13.111 -0.8519  0.2264 -0.7543
12952TIP3    H260348   4.530   5.892  12.974 -0.8735  1.1549 -0.5692
12953TIP3   OH260349   0.015   2.961   2.936 -0.3580  0.0932 -0.2127
12953TIP3    H160350  -0.049   2.986   2.869  0.7667  0.4117 -1.1977
12953TIP3    H260351  -0.011   2.873   2.962 -0.6590 -0.1418 -1.2693
12954TIP3   OH260352   3.302   6.740   2.143  0.2334 -0.5751  0.3712
12954TIP3    H160353   3.274   6.831   2.150  0.2376 -0.6780  1.9369
12954TIP3    H260354   3.382   6.743   2.091 -0.9851  0.0667 -1.5052
12955TIP3   OH260355   6.529   0.443  16.777  0.0868  0.7442  0.3853
12955TIP3    H160356   6.577   0.521  16.806  1.2437 -0.0651  0.6669
12955TIP3    H260357   6.457   0.478  16.725  0.4689  2.0201  0.6832
12956TIP3   OH260358   3.641   3.731   4.392 -0.1226  0.2150  0.8772
12956TIP3    H160359   3.723   3.778   4.409 -0.5292  0.9171  0.9004
12956TIP3    H260360   3.601   3.778   4.319  0.6316 -1.5737 -0.7372
12957TIP3   OH260361   0.521   1.450  11.810 -0.0053  0.1101 -0.2950
12957TIP3    H160362   0.610   1.476  11.783 -0.5483  1.7477 -0.5570
12957TIP3    H260363   0.463   1.504  11.756 -1.1750 -1.1271 -0.2954
12958TIP3   OH260364   5.928   4.061   4.883  0.4450 -0.0361 -0.5687
12958TIP3    H160365   5.951   3.972   4.857  1.8654  0.3066 -0.5380
12958TIP3    H260366   5.929   4.059   4.979  3.4712  0.7358 -0.5550
12959TIP3   OH260367   0.960   3.692   5.550  0.0738 -0.6497 -0.6872
12959TIP3    H160368   1.007   3.775   5.544  0.5055 -0.8780 -0.5193
12959TIP3    H260369   0.925   3.678   5.463 -0.4168 -0.0503 -0.5897
12960TIP3   OH260370   3.892   0.235  13.156 -0.3449  0.4541 -0.2928
12960TIP3    H160371   3.941   0.304  13.113 -1.9360  1.5368 -0.4140
12960TIP3    H260372   3.851   0.277  13.231 -0.8590 -0.4849 -0.0324
12961TIP3   OH260373   3.487   1.472   3.631  0.3768  0.1555  0.1247
12961TIP3    H160374   3.469   1.470   3.537  0.8694  1.1170 -0.0027
12961TIP3    H260375   3.534   1.390   3.649 -0.8412 -0.6206 -0.2286
12962TIP3   OH260376   3.993   0.256   6.068 -0.2257 -0.9940  0.0457
12962TIP3    H160377   4.013   0.303   6.149  0.9511 -0.0099 -0.7952
12962TIP3    H260378   3.982   0.324   6.002  0.8386 -1.8555 -1.0564
12963TIP3   OH260379   3.800   0.452   2.264 -0.0796  0.1391  0.3176
12963TIP3    H160380   3.889   0.416   2.265  0.7468  2.1499  2.5027
12963TIP3    H260381   3.784   0.478   2.354 -2.5770  0.6252 -0.2329
12964TIP3   OH260382   6.192   2.627  12.644 -0.5624  0.2111  0.4381
12964TIP3    H160383   6.166   2.645  12.554 -0.3808  0.1727  0.3775
12964TIP3    H260384   6.215   2.534  12.644 -0.3273  0.2675  0.4663
12965TIP3   OH260385   2.268   2.715  11.254  0.2281 -0.5705  0.2948
12965TIP3    H160386   2.246   2.623  11.243  0.1800 -0.6975  1.3965
12965TIP3    H260387   2.199   2.762  11.207  0.8217 -1.1157 -1.1354
12966TIP3   OH260388   3.509   0.818  15.364  0.3024  0.4243  0.1232
12966TIP3    H160389   3.568   0.866  15.305  2.4229 -0.7977  1.1765
12966TIP3    H260390   3.549   0.829  15.451  0.4422 -2.6271  0.4774
12967TIP3   OH260391   3.889   0.322   0.738 -0.3336  0.1258 -0.0919
12967TIP3    H160392   3.833   0.263   0.789  0.0326 -0.8330 -0.7873
12967TIP3    H260393   3.892   0.283   0.651  0.1424  1.0296 -0.4825
12968TIP3   OH260394   4.529   5.081   4.023  0.2970 -0.0331  0.5873
12968TIP3    H160395   4.525   5.004   4.079  1.5795  0.2876  1.1438
12968TIP3    H260396   4.438   5.100   4.001 -0.1532 -0.6740  1.8612
12969TIP3   OH260397   0.736   6.711   2.378 -0.3056  0.5083  0.1990
12969TIP3    H160398   0.776   6.795   2.354 -0.6300  0.9945  1.2888
12969TIP3    H260399   0.791   6.645   2.336  1.0751  1.2097  0.8719
12970TIP3   OH260400   4.304   4.845   0.358  0.2212 -0.7376 -0.0331
12970TIP3    H160401   4.381   4.805   0.399  0.6961 -1.1445 -1.2918
12970TIP3    H260402   4.337   4.929   0.326 -0.6843  0.5549  2.2945
12971TIP3   OH260403   2.373   4.840  16.966 -0.2149  0.1589 -0.0560
12971TIP3    H160404   2.301   4.782  16.938 -0.4717  0.3337  0.2352
12971TIP3    H260405   2.344   4.873  17.051  0.6377 -0.5133  0.5045
12972TIP3   OH260406   1.208   1.234  14.717  0.0018 -0.1985 -0.0823
12972TIP3    H160407   1.206   1.271  14.806  1.4952 -2.2464  0.8503
12972TIP3    H260408   1.209   1.310  14.659  2.4595  1.2335  1.7471
12973TIP3   OH260409   5.142   5.362   5.582 -0.0331 -0.7415 -0.1298
12973TIP3    H160410   5.202   5.413   5.528 -0.0158 -1.0007 -0.3563
12973TIP3    H260411   5.181   5.363   5.670  0.1321 -0.6397 -0.2049
12974TIP3   OH260412   6.760   2.880   0.302 -0.3585 -0.6830 -0.4769
12974TIP3    H160413   6.762   2.976   0.309 -0.1246 -0.6412 -1.0125
12974TIP3    H260414   6.669   2.856   0.317 -0.0779 -0.5436  1.5704
12975TIP3   OH260415   3.029   1.327  15.153  0.0335  0.1303  0.1223
12975TIP3    H160416   2.989   1.329  15.239 -2.2522  2.1441 -0.9176
12975TIP3    H260417   3.060   1.237  15.143 -1.5570 -0.6992  2.2023
12976TIP3   OH260418   5.833   3.484  11.181  0.2974  1.0202 -0.5430
12976TIP3    H160419   5.827   3.450  11.270 -0.3356  2.1024 -0.1677
12976TIP3    H260420   5.818   3.407  11.125 -2.0385  0.8361  0.2862
12977TIP3   OH260421   6.358   2.240  15.367 -0.4688 -0.4786 -0.0258
12977TIP3    H160422   6.359   2.203  15.279 -1.8499 -0.8167  0.0856
12977TIP3    H260423   6.395   2.171  15.423 -0.1068 -0.4710 -0.2523
12978TIP3   OH260424   1.413   4.196  12.256 -0.3810  0.4765 -0.5881
12978TIP3    H160425   1.461   4.199  12.339  2.6174 -1.8221 -2.1171
12978TIP3    H260426   1.321   4.202  12.281  0.5188  1.3005  2.7663
12979TIP3   OH260427   4.099   4.111  15.245  0.1418 -0.3653 -0.2443
12979TIP3    H160428   4.189   4.102  15.276  0.0818  1.3025  0.4689
12979TIP3    H260429   4.074   4.199  15.271 -1.7154 -0.8312 -0.4229
12980TIP3   OH260430   3.130   1.593  13.757  0.0814 -0.2668  0.0278
12980TIP3    H160431   3.113   1.584  13.663 -0.1564 -1.6368  0.1899
12980TIP3    H260432   3.220   1.624  13.762 -0.3827  1.2289 -0.6923
12981TIP3   OH260433   1.875   3.887  12.032 -0.4075  1.0529 -0.0655
12981TIP3    H160434   1.839   3.887  12.121 -0.6618  0.8013 -0.1680
12981TIP3    H260435   1.806   3.925  11.978 -1.7315 -2.1557 -0.7307
12982TIP3   OH260436   5.508   2.206  14.278 -0.1063  0.1346 -0.0594
12982TIP3    H160437   5.483   2.205  14.185  0.8924  3.1837 -0.4091
12982TIP3    H260438   5.581   2.144  14.283 -1.0344 -1.0735 -1.0238
12983TIP3   OH260439   2.629   2.612  15.974  0.3655 -0.2167  0.4080
12983TIP3    H160440   2.627   2.522  16.004 -1.1764  0.1091  1.3050
12983TIP3    H260441   2.644   2.606  15.879  3.0981 -1.2985  0.8569
12984TIP3   OH260442   6.777   6.567   5.066 -0.3023  0.1041  0.0325
12984TIP3    H160443   6.789   6.511   5.142 -1.3953 -0.2504 -0.0484
12984TIP3    H260444   6.865   6.585   5.034  0.0964 -0.6849  0.7037
12985TIP3   OH260445   1.529   4.167  16.585 -0.4243 -0.2058 -0.5412
12985TIP3    H160446   1.531   4.222  16.663  2.3051  0.1346 -0.8029
12985TIP3    H260447   1.541   4.078  16.619  1.4587  0.0088 -0.5939
12986TIP3   OH260448   3.983   2.427  11.550  0.2227 -0.0172 -0.2452
12986TIP3    H160449   3.981   2.435  11.646  0.6634 -0.3806 -0.2069
12986TIP3    H260450   3.910   2.369  11.529 -2.1112  2.8368 -0.4165
12987TIP3   OH260451   0.250   6.662  12.033 -0.0008 -0.2780 -0.6290
12987TIP3    H160452   0.237   6.757  12.027  1.7077  0.0086  0.0310
12987TIP3    H260453   0.199   6.636  12.109  0.1400  0.2186 -0.3613
12988TIP3   OH260454   6.617   6.414   2.046  0.1216 -0.3588 -0.2480
12988TIP3    H160455   6.675   6.343   2.077  0.7845  0.9740  1.6590
12988TIP3    H260456   6.666   6.455   1.975  0.7199 -0.3950  0.1402
12989TIP3   OH260457   2.925   5.597  16.151  0.7036  0.2522  0.0022
12989TIP3    H160458   2.979   5.643  16.087 -0.1478 -1.5625 -2.0619
12989TIP3    H260459   2.984   5.575  16.222  2.0622  0.7104 -0.9761
12990TIP3   OH260460   0.800   3.450   5.712  0.0697  0.1307 -0.2637
12990TIP3    H160461   0.832   3.419   5.797  1.2478 -1.3772 -1.2161
12990TIP3    H260462   0.872   3.430   5.651 -1.4819 -0.5372 -1.9205
12991TIP3   OH260463   3.139   5.587   2.569  0.4535 -0.1655 -0.3577
12991TIP3    H160464   3.187   5.573   2.488  1.0323  0.6743 -0.1743
12991TIP3    H260465   3.189   5.656   2.614 -1.4022  1.3669 -0.5557
12992TIP3   OH260466   0.405   2.268   5.999 -0.7668  0.0217 -0.3394
12992TIP3    H160467   0.319   2.240   6.030 -0.6775  0.0168 -0.0961
12992TIP3    H260468   0.386   2.331   5.930 -0.9686 -0.5119 -0.7766
12993TIP3   OH260469   1.545   3.830   3.212  0.0207 -0.0518 -0.1734
12993TIP3    H160470   1.483   3.768   3.250 -1.3756 -0.9359 -3.7582
12993TIP3    H260471   1.620   3.776   3.187  2.0170  0.8906  3.3881
12994TIP3   OH260472   5.564   1.909  11.206 -0.4394  0.3276  0.3893
12994TIP3    H160473   5.561   1.985  11.149 -0.0857 -0.6433 -0.9757
12994TIP3    H260474   5.548   1.943  11.293  3.6248  2.5781  0.3746
12995TIP3   OH260475   3.655   1.563  15.425  0.3590 -0.1857  0.2748
12995TIP3    H160476   3.577   1.594  15.470 -0.1758 -1.0461 -0.0461
12995TIP3    H260477   3.695   1.501  15.487  0.5783 -0.0259  0.2920
12996TIP3   OH260478   0.108   0.074  13.050  0.3234 -0.4273 -0.1975
12996TIP3    H160479   0.101   0.093  13.143  1.0961  2.0300 -0.6137
12996TIP3    H260480   0.022   0.099  13.015  1.0398  1.5680 -0.5993
12997TIP3   OH260481   1.469   5.168  13.436 -0.3098  0.2523 -0.1253
12997TIP3    H160482   1.388   5.214  13.457 -1.5468 -0.1678 -3.5009
12997TIP3    H260483   1.539   5.226  13.465 -1.7958  0.8583  2.3806
12998TIP3   OH260484   4.276   6.297   2.571  0.2281 -0.9000 -0.0802
12998TIP3    H160485   4.295   6.276   2.480  1.2194  1.3237 -0.4093
12998TIP3    H260486   4.191   6.255   2.587 -0.2853 -0.7544 -2.2176
12999TIP3   OH260487   4.487   2.555  16.932 -0.0561 -0.4303  0.0897
12999TIP3    H160488   4.396   2.586  16.934  0.5853  1.4326  1.3274
12999TIP3    H260489   4.513   2.565  16.841 -0.8197 -0.1485 -0.1072
13000TIP3   OH260490   0.731   4.510  12.355  0.3457 -0.0268  0.2118
13000TIP3    H160491   0.641   4.487  12.333  1.2000 -1.2716 -2.2038
13000TIP3    H260492   0.773   4.426  12.375  1.3513  0.3600 -0.2458
13001TIP3   OH260493   4.489   0.899  16.914  0.5106 -0.4066 -0.3418
13001TIP3    H160494   4.443   0.982  16.928  3.4159  0.5459  4.8652
13001TIP3    H260495   4.420   0.833  16.915 -1.3909  1.5359  0.5730
13002TIP3   OH260496   5.359   3.090  16.006  0.2851  0.7915 -0.8764
13002TIP3    H160497   5.316   3.070  15.923 -0.1007  1.3848 -0.8203
13002TIP3    H260498   5.290   3.083  16.072  0.8676 -0.9680 -0.4319
13003TIP3   OH260499   3.260   0.043  12.685 -0.2731 -0.2486 -0.3331
13003TIP3    H160500   3.199  -0.003  12.742 -2.3970  2.3278 -0.4179
13003TIP3    H260501   3.319   0.089  12.746 -1.3491  0.9711 -0.1902
13004TIP3   OH260502   3.850   0.881  14.107 -0.4621  0.1396 -0.6355
13004TIP3    H160503   3.857   0.898  14.013  1.2140  0.3661 -0.4853
13004TIP3    H260504   3.924   0.929  14.145 -2.2631  1.6950  1.0326
13005TIP3   OH260505   3.819   4.122  14.300  0.1588  0.1380 -0.1634
13005TIP3    H160506   3.812   4.122  14.205  0.5508 -0.0128 -0.1925
13005TIP3    H260507   3.815   4.215  14.324  0.8393  0.2254 -0.3873
13006TIP3   OH260508   2.683   6.525  14.606  0.1773 -0.0265 -0.8304
13006TIP3    H160509   2.760   6.475  14.631 -0.1856  0.2711  0.9489
13006TIP3    H260510   2.675   6.593  14.673 -1.8683 -0.3215 -0.7159
13007TIP3   OH260511   2.298   6.471   3.831  0.0303  0.7200 -0.2089
13007TIP3    H160512   2.378   6.419   3.821  0.3758  1.0091  1.0103
13007TIP3    H260513   2.239   6.437   3.764  0.4724 -0.8219  0.1682
13008TIP3   OH260514   2.901   3.365   5.190 -0.4819  0.4276  0.0001
13008TIP3    H160515   2.934   3.276   5.181 -0.1882  0.6562 -1.3292
13008TIP3    H260516   2.884   3.375   5.284 -0.1856 -0.9009  0.2105
13009TIP3   OH260517   0.257   2.215   4.520 -0.1342 -0.3583  0.0140
13009TIP3    H160518   0.192   2.282   4.497 -0.7215 -1.0832 -0.4539
13009TIP3    H260519   0.332   2.265   4.553 -0.4818  0.5497 -0.5424
13010TIP3   OH260520   6.418   2.851  16.534 -0.0090  0.1822  0.2251
13010TIP3    H160521   6.497   2.889  16.570 -0.8942  2.3468 -0.0320
13010TIP3    H260522   6.350   2.869  16.599 -1.1520  2.1594 -1.4652
13011TIP3   OH260523   0.986   0.055  12.738  0.4759 -0.3137 -0.1999
13011TIP3    H160524   0.943   0.135  12.769 -0.9270  0.1210 -3.1621
13011TIP3    H260525   0.924  -0.015  12.760  0.9397 -0.4124  0.8397
13012TIP3   OH260526   3.789   0.415  13.355 -0.2441  0.0392  0.4126
13012TIP3    H160527   3.766   0.407  13.447  0.9874 -0.6479  0.6792
13012TIP3    H260528   3.842   0.494  13.349 -0.4705  0.1798  0.2683
13013TIP3   OH260529   5.381   5.120  14.653  0.2840 -0.5072  0.1667
13013TIP3    H160530   5.464   5.094  14.612  0.5700  1.7753 -0.8043
13013TIP3    H260531   5.343   5.184  14.592 -0.0976  1.7276  2.6268
13014TIP3   OH260532   5.111   4.207  16.338 -0.1014 -0.5266  0.1781
13014TIP3    H160533   5.056   4.268  16.387  0.0191 -1.8167  1.9820
13014TIP3    H260534   5.113   4.242  16.249 -2.1567  0.6622  0.5703
13015TIP3   OH260535   0.791   2.237  16.401  0.0934  0.3075  0.1599
13015TIP3    H160536   0.717   2.255  16.459 -0.7824 -0.8791 -0.5782
13015TIP3    H260537   0.801   2.142  16.403  0.6647  0.3362 -0.8855
13016TIP3   OH260538   4.680   3.557   3.683  0.2301  0.0140 -0.3678
13016TIP3    H160539   4.703   3.510   3.763  0.5833  1.4656  0.4087
13016TIP3    H260540   4.740   3.631   3.680 -2.5638  2.4121  0.3407
13017TIP3   OH260541   3.035   2.645  11.448 -0.0451  0.0947 -0.2005
13017TIP3    H160542   2.978   2.654  11.372 -0.7406  0.3280  0.3440
13017TIP3    H260543   3.008   2.716  11.506  0.6337  0.0531  0.1712
13018TIP3   OH260544   3.377   3.798  17.284  0.3205 -0.2705  0.0012
13018TIP3    H160545   3.312   3.789  17.354 -1.3547  2.0293 -1.1979
13018TIP3    H260546   3.429   3.717  17.289  0.5954  0.0586  4.1993
13019TIP3   OH260547   0.918   1.976  11.506 -0.0942 -0.0419  0.1230
13019TIP3    H160548   0.961   1.891  11.516  1.3113  0.8254  1.5619
13019TIP3    H260549   0.984   2.033  11.468 -0.4235  0.8961  0.9224
13020TIP3   OH260550   1.664   2.262   2.540  0.0848  0.2326  0.4421
13020TIP3    H160551   1.689   2.195   2.476 -0.5737 -1.3170  1.7687
13020TIP3    H260552   1.731   2.256   2.608 -0.7566 -0.0679  1.2560
13021TIP3   OH260553   3.953   0.008   3.982  0.1784  0.3301 -0.6152
13021TIP3    H160554   4.018  -0.040   3.931  1.6916  1.7019  0.0051
13021TIP3    H260555   3.997   0.030   4.064 -0.6403  2.3433 -0.6752
13022TIP3   OH260556   4.464   6.767  11.735  0.1623 -0.4029  0.0823
13022TIP3    H160557   4.507   6.681  11.724 -1.1945 -1.0316 -0.3343
13022TIP3    H260558   4.381   6.759  11.688 -0.8260  0.5132  1.6288
13023TIP3   OH260559   4.644   1.950  14.342  0.1848  0.4098  0.3760
13023TIP3    H160560   4.628   1.998  14.261 -0.5661  0.5137  0.5838
13023TIP3    H260561   4.700   2.008  14.394  0.4044  0.4782  0.0614
13024TIP3   OH260562   5.952   2.520  12.016  0.8373  0.1675 -0.3124
13024TIP3    H160563   6.022   2.467  11.978  0.1923  0.4157 -1.8945
13024TIP3    H260564   5.885   2.523  11.948 -0.9460 -0.4905  1.3842
13025TIP3   OH260565   6.246   2.777   1.615 -0.0828 -0.1535  0.3795
13025TIP3    H160566   6.151   2.763   1.609 -0.0226  0.1363 -1.3916
13025TIP3    H260567   6.281   2.748   1.531  1.2900  0.6243  0.6553
13026TIP3   OH260568   0.365   1.407   2.017 -0.4152 -0.2922  0.6971
13026TIP3    H160569   0.291   1.416   2.077  0.0867 -1.5639  1.5405
13026TIP3    H260570   0.418   1.336   2.055  0.3453 -0.5515 -0.8114
13027TIP3   OH260571   5.883   6.463   2.526 -0.5340  0.8331  0.3384
13027TIP3    H160572   5.882   6.478   2.432  1.7146  1.1228  0.3490
13027TIP3    H260573   5.906   6.548   2.564  0.9453  0.1405  1.0122
13028TIP3   OH260574   4.814   3.452  13.106  0.1818  0.1115  0.2442
13028TIP3    H160575   4.842   3.537  13.070  1.4343 -0.8408 -1.0920
13028TIP3    H260576   4.718   3.453  13.097  0.4242  0.1175 -2.6937
13029TIP3   OH260577   4.664   3.766  15.513  0.2939  0.1034  0.3770
13029TIP3    H160578   4.640   3.742  15.603  0.6637 -0.6775  0.2789
13029TIP3    H260579   4.758   3.751  15.509 -0.2666 -3.5470 -1.2227
13030TIP3   OH260580   3.030   3.714  13.295  0.2684  0.2922  0.6044
13030TIP3    H160581   3.021   3.761  13.379  1.2426  1.3390  0.1368
13030TIP3    H260582   3.123   3.693  13.289 -0.2767 -2.5021  1.1920
13031TIP3   OH260583   1.285   2.266   2.551  0.3590  0.0785 -0.1535
13031TIP3    H160584   1.274   2.204   2.479  2.1823  0.8430 -1.0914
13031TIP3    H260585   1.341   2.335   2.516  0.1370  1.1624  1.5718
13032TIP3   OH260586   0.874   2.475  13.809 -0.3073  0.1599 -0.0527
13032TIP3    H160587   0.893   2.396  13.759  1.4990  0.9563 -0.6897
13032TIP3    H260588   0.812   2.524  13.756  0.2190  0.1594 -0.6688
13033TIP3   OH260589   4.922   1.972  14.033 -0.1072  0.6549  0.0866
13033TIP3    H160590   4.854   1.990  13.968 -0.8723  0.9182  0.9547
13033TIP3    H260591   4.961   2.057  14.051  1.8703  0.2342 -1.9274
13034TIP3   OH260592   2.904   5.683  16.491 -0.4080  0.1018 -0.4544
13034TIP3    H160593   2.898   5.588  16.506  0.3051  0.1060 -0.1550
13034TIP3    H260594   2.817   5.716  16.514 -0.6719 -0.4856 -0.5967
13035TIP3   OH260595   3.440   2.250   6.047  0.4006 -0.1814  0.1636
13035TIP3    H160596   3.444   2.345   6.063  0.1212 -0.2753  0.7843
13035TIP3    H260597   3.412   2.213   6.130  1.2267 -0.8800  0.1394
13036TIP3   OH260598   1.494   3.469  14.784 -0.5634 -0.4621  0.0535
13036TIP3    H160599   1.544   3.466  14.866  0.9527  1.3728 -0.7689
13036TIP3    H260600   1.504   3.382  14.747  2.3326 -0.0546 -0.2405
13037TIP3   OH260601   1.239   6.356   4.174  0.5049 -0.0252  0.9201
13037TIP3    H160602   1.203   6.410   4.245  0.5133  0.6003  0.4575
13037TIP3    H260603   1.217   6.267   4.198 -1.8121  0.3887  0.3806
13038TIP3   OH260604   1.067   1.286  13.851  0.0098  0.3588 -0.5351
13038TIP3    H160605   1.004   1.263  13.919  0.5545  2.4804  0.7269
13038TIP3    H260606   1.150   1.249  13.882  0.0063  0.2071 -0.7012
13039TIP3   OH260607   3.204   6.725   4.605 -0.6042  0.4002 -0.0146
13039TIP3    H160608   3.145   6.673   4.659 -0.2831  1.6800  1.6271
13039TIP3    H260609   3.170   6.815   4.612  1.3940  1.1287  0.7917
13040TIP3   OH260610   6.174   1.944  16.487 -0.2495  0.5635  0.3039
13040TIP3    H160611   6.223   2.026  16.481  3.1139 -1.2798  1.4450
13040TIP3    H260612   6.175   1.909  16.398  1.4536  0.0435  0.5111
13041TIP3   OH260613   6.608   5.891   0.184  0.1135  0.3592 -0.3481
13041TIP3    H160614   6.688   5.858   0.143 -0.4058 -2.3683  0.7580
13041TIP3    H260615   6.638   5.950   0.253  1.2403 -1.4305  0.7281
13042TIP3   OH260616   6.260   6.562  16.780 -0.2590 -0.4335  0.2126
13042TIP3    H160617   6.239   6.582  16.689  0.3168  0.4586  0.2755
13042TIP3    H260618   6.213   6.480  16.797 -1.3722  0.0370 -0.5051
13043TIP3   OH260619   4.551   4.053  14.277 -0.0297 -0.3665 -0.2770
13043TIP3    H160620   4.631   4.083  14.235 -0.6366  2.1580  0.3018
13043TIP3    H260621   4.522   3.979  14.223  1.8069 -0.2946 -1.4019
13044TIP3   OH260622   1.531   5.074   5.421 -0.3976  0.2687 -0.1740
13044TIP3    H160623   1.565   5.122   5.345 -1.5755  1.6249  0.1472
13044TIP3    H260624   1.458   5.024   5.386 -0.0392 -0.2278 -0.2199
13045TIP3   OH260625   2.925   4.696   5.413  0.1288 -0.5142  0.2090
13045TIP3    H160626   2.896   4.709   5.322 -0.6256  0.0567  0.5283
13045TIP3    H260627   2.979   4.617   5.409  0.3573 -0.3245 -0.7962
13046TIP3   OH260628   2.701   4.185   0.018  0.1502  0.1208  0.5599
13046TIP3    H160629   2.699   4.138  -0.065 -3.3249 -0.8425  1.1181
13046TIP3    H260630   2.759   4.134   0.074  0.7696 -0.4291 -0.5790
13047TIP3   OH260631   5.885   0.681  17.084  0.5820 -0.2286  0.4466
13047TIP3    H160632   5.919   0.770  17.084  0.3678 -0.1216 -1.3331
13047TIP3    H260633   5.925   0.639  17.160  0.8399  1.3246  1.1665
13048TIP3   OH260634   1.565   6.575   1.792  0.6899 -0.0775  0.1828
13048TIP3    H160635   1.571   6.559   1.886  3.1350 -1.0334 -0.1091
13048TIP3    H260636   1.653   6.560   1.759 -0.0801  0.4773 -2.2462
13049TIP3   OH260637   6.590   2.770   2.591 -0.7352  0.2469 -0.7311
13049TIP3    H160638   6.512   2.817   2.620 -0.6399  0.1001 -0.2362
13049TIP3    H260639   6.557   2.688   2.555 -0.4765 -2.5637  4.8734
13050TIP3   OH260640   5.486   2.807   4.272 -0.0678  0.0871  0.0436
13050TIP3    H160641   5.531   2.832   4.352 -0.5874 -2.9428  1.3436
13050TIP3    H260642   5.553   2.761   4.220 -0.8150 -1.7370  0.6546
13051TIP3   OH260643   0.505   5.504   3.449  0.3904 -0.1116 -0.1703
13051TIP3    H160644   0.410   5.505   3.439  0.7146 -1.0916 -4.3551
13051TIP3    H260645   0.533   5.593   3.427  0.5831 -0.4248 -1.2321
13052TIP3   OH260646   0.699   5.752   3.642  0.0401 -0.2921 -0.4637
13052TIP3    H160647   0.607   5.752   3.616  0.1385 -2.4369 -0.9363
13052TIP3    H260648   0.699   5.788   3.731 -1.4402 -1.5808  0.0724
13053TIP3   OH260649   1.942   5.134   5.548  0.2846 -0.3160  0.5860
13053TIP3    H160650   1.891   5.163   5.624  0.1519  0.9739  0.0107
13053TIP3    H260651   1.967   5.215   5.503  1.7040 -0.9941  0.1202
13054TIP3   OH260652   4.975   4.595  13.635  0.4736  0.5767 -0.2479
13054TIP3    H160653   5.064   4.598  13.671  0.5759  0.3512 -0.4776
13054TIP3    H260654   4.942   4.509  13.660  0.1506  0.8380  0.2287
13055TIP3   OH260655   0.773   3.401  10.566 -0.1608 -0.2736  0.6946
13055TIP3    H160656   0.839   3.443  10.622  1.2568  0.8877 -1.7643
13055TIP3    H260657   0.792   3.308  10.572  1.7915  0.0518 -0.0499
13056TIP3   OH260658   3.601   4.065   3.239 -0.5728  0.5514  0.1774
13056TIP3    H160659   3.675   4.118   3.268  0.7504 -1.5161  0.6883
13056TIP3    H260660   3.596   3.993   3.302 -2.4136  0.1239 -0.4082
13057TIP3   OH260661   5.826   5.052   4.452 -0.4759  0.0477 -0.0255
13057TIP3    H160662   5.774   5.120   4.409 -1.5946 -0.8553 -0.1183
13057TIP3    H260663   5.775   4.971   4.439  0.0312 -0.5252  1.4983
13058TIP3   OH260664   6.241   4.125  11.338  0.1147  0.3172  0.3260
13058TIP3    H160665   6.176   4.158  11.400 -0.8410 -3.0196  1.2612
13058TIP3    H260666   6.288   4.057  11.388 -0.6911 -2.4727 -2.5532
13059TIP3   OH260667   3.562   3.506  14.775  0.0300 -0.2050  0.1966
13059TIP3    H160668   3.587   3.481  14.687  0.9636 -1.1268  0.7128
13059TIP3    H260669   3.537   3.599  14.768  0.5269 -0.1523 -0.9260
13060TIP3   OH260670   0.228   0.774   0.515 -0.3643 -0.1003  0.2652
13060TIP3    H160671   0.313   0.816   0.500 -0.8741  0.6489 -0.5526
13060TIP3    H260672   0.244   0.681   0.499  0.5042 -0.0785  0.9662
13061TIP3   OH260673   1.384   3.760  17.209 -0.1201  0.0831  0.3012
13061TIP3    H160674   1.320   3.821  17.246 -1.1996  0.2159 -1.6961
13061TIP3    H260675   1.346   3.674  17.223 -0.1006  0.0792  0.3303
13062TIP3   OH260676   1.143   3.767   3.366  0.1202 -0.6564  0.4774
13062TIP3    H160677   1.100   3.775   3.451  0.9898  0.0901  0.8655
13062TIP3    H260678   1.227   3.726   3.385  0.7718  0.4828  0.1473
13063TIP3   OH260679   3.413   4.118   6.215  0.5210  0.4749 -0.1851
13063TIP3    H160680   3.478   4.053   6.240  0.1393  0.3730  0.5358
13063TIP3    H260681   3.341   4.105   6.276 -0.4125  0.2305 -1.3065
13064TIP3   OH260682   5.665   1.471   1.928  0.0872 -0.0698  0.4573
13064TIP3    H160683   5.663   1.562   1.901 -1.6634 -0.6115 -1.3502
13064TIP3    H260684   5.587   1.460   1.982  0.2819 -0.4832  0.6564
13065TIP3   OH260685   2.774   4.346   5.840  0.6939 -0.4084  0.3402
13065TIP3    H160686   2.838   4.336   5.769  2.0056 -0.5757  1.5191
13065TIP3    H260687   2.819   4.312   5.917 -0.1314  1.2327  1.5597
13066TIP3   OH260688   4.723   0.574  11.264 -0.1807  0.1050 -0.5200
13066TIP3    H160689   4.693   0.544  11.179 -1.5077 -1.5708  0.5133
13066TIP3    H260690   4.653   0.550  11.325 -0.5453  3.7553  0.6520
13067TIP3   OH260691   0.140   5.058   6.540  0.7087  0.3245 -0.4455
13067TIP3    H160692   0.225   5.085   6.504  0.2031  0.9492 -1.1893
13067TIP3    H260693   0.147   4.963   6.549  1.0114  0.2064 -1.7814
13068TIP3   OH260694   3.188   5.664  14.770  0.2509 -0.0981 -0.6069
13068TIP3    H160695   3.253   5.677  14.840 -1.0536 -0.5021  0.7176
13068TIP3    H260696   3.195   5.743  14.716  0.0537  1.0573  1.0072
13069TIP3   OH260697   4.495   5.973  11.885  0.0125 -0.1582  0.1491
13069TIP3    H160698   4.431   5.904  11.865  1.0313 -0.8389 -0.8244
13069TIP3    H260699   4.442   6.052  11.895 -1.0341 -0.8013 -0.2204
13070TIP3   OH260700   2.814   1.039  15.118 -0.4659 -0.1927 -0.0539
13070TIP3    H160701   2.807   0.955  15.165 -1.4458 -0.2837 -0.3408
13070TIP3    H260702   2.843   1.101  15.184 -1.7411 -0.3416  0.6581
13071TIP3   OH260703   4.846   1.212  11.931 -0.2138  0.6685  0.3766
13071TIP3    H160704   4.853   1.307  11.940  0.8065  0.5958  0.3451
13071TIP3    H260705   4.779   1.187  11.996  0.3694  1.2653  1.2175
13072TIP3   OH260706   6.570   1.893   1.364 -0.3359  0.6034  0.6454
13072TIP3    H160707   6.624   1.842   1.424  0.8085  1.5809  0.4568
13072TIP3    H260708   6.509   1.940   1.421  0.9535  1.7778  1.1010
13073TIP3   OH260709   5.953   5.265   4.192 -0.2020  0.0958  0.4057
13073TIP3    H160710   5.978   5.176   4.168  0.8439  0.6058 -0.4904
13073TIP3    H260711   5.858   5.267   4.186 -0.2132 -0.9161  0.2755
13074TIP3   OH260712   1.317   2.942  11.309  0.5003  0.2146 -0.5399
13074TIP3    H160713   1.223   2.959  11.313  0.8844  1.9141  1.9556
13074TIP3    H260714   1.357   3.015  11.356  2.9583 -1.4935  0.1178
13075TIP3   OH260715   0.639   5.209   3.952 -0.2898 -0.3188  0.2701
13075TIP3    H160716   0.687   5.258   4.019  0.7994 -0.5733 -0.3194
13075TIP3    H260717   0.577   5.273   3.915 -0.5392 -0.0416  1.1569
13076TIP3   OH260718   0.448   1.593   5.242 -0.4328  0.0370 -0.1384
13076TIP3    H160719   0.421   1.539   5.168  1.5016 -0.5825 -0.3943
13076TIP3    H260720   0.500   1.534   5.297 -1.7576  0.5106  1.6915
13077TIP3   OH260721   2.645   6.478  15.629 -0.7085 -0.2652  0.4699
13077TIP3    H160722   2.575   6.531  15.592 -0.7277  0.6797  1.8351
13077TIP3    H260723   2.614   6.388  15.618 -0.3571 -0.0712 -2.4901
13078TIP3   OH260724   2.700   4.927  13.221 -0.0327  0.1645 -0.2013
13078TIP3    H160725   2.794   4.907  13.221 -0.0598  0.0021  0.5569
13078TIP3    H260726   2.658   4.841  13.221 -0.1897  0.2391 -1.2178
13079TIP3   OH260727   5.080   5.803   0.991  0.4416  0.0838 -0.4999
13079TIP3    H160728   5.097   5.875   1.053  0.1194 -0.5385  0.3279
13079TIP3    H260729   5.061   5.847   0.908  0.4804  0.9488 -0.0647
13080TIP3   OH260730   5.660   6.370   3.780 -0.3881 -0.2590 -0.3027
13080TIP3    H160731   5.684   6.277   3.773  1.7607  0.3938 -2.3050
13080TIP3    H260732   5.693   6.397   3.866 -0.1583 -1.0985 -0.1246
13081TIP3   OH260733   5.146   5.188   3.565 -0.1631 -0.2648 -0.2499
13081TIP3    H160734   5.121   5.096   3.558 -1.0459 -0.0039 -0.6082
13081TIP3    H260735   5.106   5.218   3.646  1.8589 -0.7200  0.9618
13082TIP3   OH260736   5.622   5.829  11.382 -0.0724  0.3220  0.1465
13082TIP3    H160737   5.710   5.818  11.347 -0.1208  1.1451 -0.2587
13082TIP3    H260738   5.588   5.906  11.337 -0.9203  0.1388  0.4614
13083TIP3   OH260739   6.255   2.883   2.926 -0.5979  0.2309 -0.2914
13083TIP3    H160740   6.215   2.956   2.972  0.3581 -0.1453  1.1824
13083TIP3    H260741   6.299   2.832   2.995 -0.2267 -1.0535 -1.4478
13084TIP3   OH260742   4.989   4.994   5.354  0.4730 -0.4996  0.0426
13084TIP3    H160743   5.078   5.008   5.321 -0.3089 -1.6167 -2.6820
13084TIP3    H260744   4.998   4.998   5.449  3.4427 -0.6197 -0.1870
13085TIP3   OH260745   2.076   1.952   4.595 -0.5955  0.1806 -0.9365
13085TIP3    H160746   1.988   1.921   4.616  0.1116 -0.1062  1.8249
13085TIP3    H260747   2.109   1.891   4.529 -1.5790 -1.1481 -0.2206
13086TIP3   OH260748   3.123   4.381  15.397  0.1255 -0.1672 -0.8754
13086TIP3    H160749   3.100   4.377  15.304  0.7153  1.2318 -1.0917
13086TIP3    H260750   3.060   4.442  15.435  1.5204  1.2779 -0.8690
13087TIP3   OH260751   6.051   0.930  13.298 -0.5546  0.0426  0.4551
13087TIP3    H160752   6.013   0.896  13.217 -0.8233  0.4849  0.3966
13087TIP3    H260753   6.145   0.930  13.282 -0.5587 -0.5728  0.4151
13088TIP3   OH260754   4.421   5.937   1.610 -0.2370 -0.0757  0.0343
13088TIP3    H160755   4.399   5.924   1.703 -0.5090 -0.0403 -0.0247
13088TIP3    H260756   4.415   5.850   1.571  1.3536 -0.3500  0.3569
13089TIP3   OH260757   2.766   6.717   2.928 -0.7187 -0.7118  0.4630
13089TIP3    H160758   2.822   6.640   2.942  1.6720  1.3048  2.7376
13089TIP3    H260759   2.692   6.703   2.987 -1.9494 -2.7446 -1.5098
13090TIP3   OH260760   3.362   1.688   3.178 -0.5632 -0.3341  0.2495
13090TIP3    H160761   3.293   1.754   3.183 -0.3698 -0.0925 -0.2068
13090TIP3    H260762   3.443   1.737   3.191 -0.3277 -0.2706 -1.3426
13091TIP3   OH260763   5.089   0.489   2.323  0.2992  0.1619 -0.3580
13091TIP3    H160764   5.065   0.453   2.238  0.6987 -0.3623 -0.2445
13091TIP3    H260765   5.145   0.564   2.302  2.9016 -1.7725 -0.4890
13092TIP3   OH260766   1.296   6.079  11.942 -0.5397  0.1346 -0.0651
13092TIP3    H160767   1.387   6.061  11.919 -0.3812 -0.4041  0.9276
13092TIP3    H260768   1.246   6.049  11.866 -0.1397 -3.0756  0.8412
13093TIP3   OH260769   2.372   2.968  16.348 -0.7469 -0.2302  0.0289
13093TIP3    H160770   2.409   2.973  16.260 -2.0267 -0.9060 -0.5532
13093TIP3    H260771   2.309   3.040  16.351  0.9253  1.2571  1.2023
13094TIP3   OH260772   4.598   3.253  13.666  0.1988  0.2358 -0.0768
13094TIP3    H160773   4.658   3.287  13.599 -0.5970  0.6174 -0.6066
13094TIP3    H260774   4.528   3.211  13.616  0.2365 -0.5639  0.5470
13095TIP3   OH260775   1.334   1.313  16.932 -0.2665  0.6110 -0.2021
13095TIP3    H160776   1.320   1.349  17.020 -0.6833 -0.6387  0.2616
13095TIP3    H260777   1.252   1.268  16.912  0.0951  0.2709 -0.9273
13096TIP3   OH260778   1.924   4.085   4.852  0.0222  0.1545 -0.2419
13096TIP3    H160779   1.833   4.095   4.825  0.3950  0.5276 -1.4175
13096TIP3    H260780   1.969   4.161   4.815  1.2454 -1.2454 -1.7895
13097TIP3   OH260781   5.437   2.829  16.211  0.2716  0.1002 -0.0609
13097TIP3    H160782   5.497   2.822  16.284 -0.4238  1.4784  0.6740
13097TIP3    H260783   5.357   2.866  16.249 -1.8298 -3.6597 -0.5849
13098TIP3   OH260784   4.367   2.557   6.789  0.4247 -0.5194 -0.0125
13098TIP3    H160785   4.393   2.627   6.730  1.1414  0.5050  1.5022
13098TIP3    H260786   4.272   2.551   6.778  0.3679  0.6197 -0.2209
13099TIP3   OH260787   5.180   5.033   5.945 -0.2341 -0.3122  0.0772
13099TIP3    H160788   5.153   4.941   5.948 -0.7748 -0.2535 -1.9904
13099TIP3    H260789   5.097   5.082   5.939  0.0120  0.3687  1.8776
13100TIP3   OH260790   4.118   3.233  14.851 -0.0917 -0.1192 -0.4484
13100TIP3    H160791   4.051   3.241  14.783 -1.6620  0.3274  1.1138
13100TIP3    H260792   4.158   3.320  14.856 -0.0479 -0.1236 -0.7253
13101TIP3   OH260793   4.013   4.799  10.107  0.1700 -0.0190  0.2790
13101TIP3    H160794   3.968   4.809  10.023  0.0928 -2.8667 -0.0474
13101TIP3    H260795   4.097   4.759  10.085  1.0911  1.2822  1.3481
13102TIP3   OH260796   5.697   1.888   5.911  0.1355  0.4383 -0.1680
13102TIP3    H160797   5.663   1.799   5.901  1.0365  0.0460  0.2240
13102TIP3    H260798   5.718   1.895   6.004  2.7622  0.0840 -0.7134
13103TIP3   OH260799   5.621   1.956  15.055 -0.4965  0.6342  0.5952
13103TIP3    H160800   5.575   1.910  14.985  0.1624  1.3524 -0.3347
13103TIP3    H260801   5.675   1.888  15.097  0.7856  0.6065 -1.0307
13104TIP3   OH260802   5.373   1.264  16.024 -0.6860 -0.6851  0.0742
13104TIP3    H160803   5.341   1.275  16.113 -0.6606  0.9811 -0.1025
13104TIP3    H260804   5.336   1.180  15.996 -0.2032 -1.5063  1.8373
13105TIP3   OH260805   3.275   0.969  15.339 -0.4929  0.1313  0.0101
13105TIP3    H160806   3.217   0.894  15.328 -0.8672  0.3774  0.3016
13105TIP3    H260807   3.354   0.933  15.379 -0.1612 -0.3220 -1.0308
13106TIP3   OH260808   5.661   0.848  16.229 -0.2955  0.5178  0.0709
13106TIP3    H160809   5.645   0.756  16.208 -0.2780  0.5546 -0.1075
13106TIP3    H260810   5.749   0.865  16.193  0.0210  0.3916  0.7832
13107TIP3   OH260811   4.857   6.795   4.372 -0.2389  0.0249  0.2233
13107TIP3    H160812   4.769   6.804   4.411 -0.3923  0.1979 -0.1662
13107TIP3    H260813   4.906   6.870   4.406  0.3915 -1.1972  2.1347
13108TIP3   OH260814   2.707   6.581   2.194  0.3607  0.0007  0.3010
13108TIP3    H160815   2.737   6.631   2.117  0.3078 -1.7574 -0.8877
13108TIP3    H260816   2.785   6.536   2.225  0.1032 -0.3468  0.4485
13109TIP3   OH260817   2.684   2.758   5.792  0.2071 -0.0574  0.3626
13109TIP3    H160818   2.734   2.699   5.849  0.8351 -0.3573 -0.4919
13109TIP3    H260819   2.731   2.841   5.795  0.4842 -0.1964 -0.0482
13110TIP3   OH260820   6.038   1.104  10.988  0.4783 -0.2794 -0.3110
13110TIP3    H160821   6.046   1.009  10.996 -0.8781 -0.5914 -2.4867
13110TIP3    H260822   6.014   1.133  11.076  1.2581 -1.8974  0.4620
13111TIP3   OH260823   6.671   3.077   4.764  0.3326  0.3348  0.3715
13111TIP3    H160824   6.622   3.018   4.821  0.0715 -0.3936 -0.5917
13111TIP3    H260825   6.734   3.120   4.821  2.1791 -2.6668  0.6752
13112TIP3   OH260826   5.937   0.462   1.660 -0.1039 -0.3682 -0.4239
13112TIP3    H160827   5.949   0.535   1.599  0.3289 -0.1486 -0.0741
13112TIP3    H260828   6.020   0.414   1.657 -0.7363 -1.4188 -1.4056
13113TIP3   OH260829   5.990   0.623   0.400  0.3356 -0.3690 -0.8760
13113TIP3    H160830   6.016   0.655   0.314 -1.1481  1.4355 -0.6790
13113TIP3    H260831   6.056   0.656   0.460 -0.9195  2.0217 -0.7446
13114TIP3   OH260832   6.216   4.604   2.423  0.5862  0.1641 -0.7403
13114TIP3    H160833   6.303   4.591   2.462 -0.0784 -0.7709  0.4667
13114TIP3    H260834   6.214   4.543   2.350  1.4569  1.1928 -1.6469
13115TIP3   OH260835   0.888   3.461   0.423 -0.0030 -0.0475  0.6148
13115TIP3    H160836   0.850   3.381   0.387 -1.6113  1.2470 -0.6815
13115TIP3    H260837   0.878   3.526   0.353 -0.2391  1.7073  2.2266
13116TIP3   OH260838   3.886   4.414   3.798  0.6008 -0.1919 -0.0741
13116TIP3    H160839   3.958   4.407   3.860  0.9367 -2.0918 -0.6289
13116TIP3    H260840   3.821   4.468   3.842  0.8548 -1.4658  1.9189
13117TIP3   OH260841   1.674   1.020   1.941  0.1559  0.2254  0.0345
13117TIP3    H160842   1.673   0.937   1.989 -0.4370 -0.3174 -0.8994
13117TIP3    H260843   1.685   0.995   1.850  0.0303  1.1817 -0.2499
13118TIP3   OH260844   1.338   0.636  11.508 -0.8858 -0.0831  0.2272
13118TIP3    H160845   1.311   0.660  11.419 -2.0565  0.4903  0.7285
13118TIP3    H260846   1.423   0.594  11.496 -0.0882  1.7967 -0.9672
13119TIP3   OH260847   1.198   5.902   1.344 -0.3778 -0.4644  0.2090
13119TIP3    H160848   1.149   5.821   1.357  1.6836 -1.4191  2.3530
13119TIP3    H260849   1.227   5.897   1.253 -3.3653 -0.3211 -0.8238
13120TIP3   OH260850   3.164   2.156  13.977 -0.1871  0.1944 -0.5854
13120TIP3    H160851   3.091   2.209  13.945 -1.9621 -2.4361 -1.0530
13120TIP3    H260852   3.195   2.203  14.055 -0.3215  2.9965 -2.1603
13121TIP3   OH260853   4.085   5.985  15.594  0.4396 -0.1499  0.6029
13121TIP3    H160854   3.990   5.987  15.606  0.3920 -2.2244  0.6245
13121TIP3    H260855   4.118   5.936  15.669  1.3166 -1.5751 -0.7091
13122TIP3   OH260856   6.416   0.924   0.704 -0.6964 -0.0562 -0.8657
13122TIP3    H160857   6.370   0.943   0.785 -1.1771  0.4426 -1.2505
13122TIP3    H260858   6.369   0.848   0.668  0.1255 -0.8876 -0.1983
13123TIP3   OH260859   5.316   1.676  13.745  0.1271  0.0977  0.2317
13123TIP3    H160860   5.328   1.696  13.652 -1.1881 -0.3984 -0.0662
13123TIP3    H260861   5.353   1.588  13.755  0.7457  0.3671  0.2864
13124TIP3   OH260862   2.786   4.295   3.134 -0.5001  0.4309 -0.5622
13124TIP3    H160863   2.767   4.233   3.064 -0.3206  1.4991 -1.5660
13124TIP3    H260864   2.882   4.305   3.133 -0.5980  1.3891 -0.9887
13125TIP3   OH260865   3.622   2.698  16.250  0.2833  0.4997 -0.4000
13125TIP3    H160866   3.694   2.713  16.311  1.1740 -2.0308 -0.8073
13125TIP3    H260867   3.595   2.608  16.266 -2.2547  1.1551 -0.8354
13126TIP3   OH260868   6.133   1.438  11.705 -0.3511 -0.0798 -0.4479
13126TIP3    H160869   6.167   1.392  11.628  2.1912  0.9963 -0.0062
13126TIP3    H260870   6.080   1.509  11.670  1.0389  0.5821 -1.2361
13127TIP3   OH260871   3.679   1.541   5.798 -0.7948 -0.0493 -0.2012
13127TIP3    H160872   3.765   1.513   5.767  0.3135  1.6996  1.1427
13127TIP3    H260873   3.681   1.525   5.892 -1.6988  0.5827 -0.0643
13128TIP3   OH260874   3.406   2.190   5.798  0.5483  0.1869  0.1145
13128TIP3    H160875   3.485   2.220   5.753  2.0356 -0.9559  1.8758
13128TIP3    H260876   3.417   2.219   5.888 -2.0492  1.8160 -0.0346
13129TIP3   OH260877   1.045   0.689   0.928  0.1234  0.3618 -0.6242
13129TIP3    H160878   1.044   0.775   0.886 -1.9519  0.9672  0.6023
13129TIP3    H260879   1.121   0.691   0.986  0.8006  0.8902 -1.5175
13130TIP3   OH260880   5.298   3.566  11.584  0.0340  0.2774 -0.2272
13130TIP3    H160881   5.205   3.553  11.601  0.3385  0.1634  1.4290
13130TIP3    H260882   5.331   3.479  11.563 -0.0988  0.2123 -0.1673
13131TIP3   OH260883   1.694   5.480   2.266 -0.6924  0.1942  0.7995
13131TIP3    H160884   1.697   5.557   2.209 -1.8398  1.8323  2.8734
13131TIP3    H260885   1.776   5.483   2.315 -0.1396 -0.6686 -0.0632
13132TIP3   OH260886   3.851   6.156   5.334  0.0360  0.2500 -0.2115
13132TIP3    H160887   3.927   6.142   5.390  0.0727  1.7100  0.1226
13132TIP3    H260888   3.827   6.248   5.348 -1.5381 -0.0885 -0.6277
13133TIP3   OH260889   2.514   5.407   3.978 -0.0454 -0.3028 -0.1340
13133TIP3    H160890   2.571   5.423   4.053  1.4652 -0.3062 -1.2419
13133TIP3    H260891   2.574   5.389   3.906 -1.4914 -1.4094 -1.1016
13134TIP3   OH260892   5.396   0.755  17.225  0.2806 -0.3983 -0.0455
13134TIP3    H160893   5.482   0.792  17.241 -0.2346  0.4880  0.6905
13134TIP3    H260894   5.366   0.797  17.145  0.6710 -0.9771 -0.5012
13135TIP3   OH260895   0.436   3.428  16.504  0.1317 -0.1111 -0.0964
13135TIP3    H160896   0.368   3.425  16.437  1.7798  2.0871 -1.9384
13135TIP3    H260897   0.428   3.344  16.550 -2.9833 -0.4111 -1.0455
13136TIP3   OH260898   2.040   5.710   0.791  0.1212  0.0553 -0.2560
13136TIP3    H160899   2.114   5.764   0.819  0.8989 -0.2671 -1.6628
13136TIP3    H260900   1.976   5.773   0.757  0.3722  0.2177 -0.4266
13137TIP3   OH260901   2.587   5.041   3.875 -0.1835 -0.2089  0.3561
13137TIP3    H160902   2.675   5.027   3.911 -1.0944  1.1271  3.2514
13137TIP3    H260903   2.591   5.128   3.835  0.3778 -1.0334 -1.4341
13138TIP3   OH260904   6.336   3.889   5.279  0.0833 -0.3043  0.0451
13138TIP3    H160905   6.388   3.937   5.214 -3.4695  4.3631  0.4023
13138TIP3    H260906   6.375   3.913   5.363  1.1380 -1.7910 -0.0014
13139TIP3   OH260907   2.994   6.023  16.011 -0.6987  0.5370 -0.0484
13139TIP3    H160908   2.970   6.094  16.071 -2.1071  1.1198 -1.2823
13139TIP3    H260909   3.079   6.049  15.976  0.2660  0.0662  1.8664
13140TIP3   OH260910   0.550   6.385  13.973  0.0904  0.1325 -0.1401
13140TIP3    H160911   0.464   6.355  14.004  0.5193  0.4869  1.4333
13140TIP3    H260912   0.529   6.448  13.904 -0.9738  1.2918  1.1899
13141TIP3   OH260913   0.216   4.974   0.734 -0.1065 -0.3051  0.2147
13141TIP3    H160914   0.297   4.929   0.758 -0.6052 -0.9844  0.6323
13141TIP3    H260915   0.184   5.011   0.817  0.1156  0.5283 -0.0599
13142TIP3   OH260916   5.500   5.042   4.404  0.7073 -0.5009 -0.0140
13142TIP3    H160917   5.437   4.999   4.347 -1.3879 -1.7988  3.1642
13142TIP3    H260918   5.532   4.973   4.462  2.8307  0.7616  0.3853
13143TIP3   OH260919   2.751   5.205  10.852 -0.0475  0.0861  0.0752
13143TIP3    H160920   2.656   5.194  10.843  0.2881 -2.0713 -1.3226
13143TIP3    H260921   2.781   5.120  10.884  1.4222  0.7715  0.5466
13144TIP3   OH260922   4.995   2.599   4.586 -0.1100 -0.1939 -0.1971
13144TIP3    H160923   5.034   2.676   4.545  0.5753  0.2004  1.1603
13144TIP3    H260924   4.961   2.547   4.513  1.3208  0.3545 -1.2691
13145TIP3   OH260925   4.208   4.805  11.174  0.2506  0.0330 -0.4853
13145TIP3    H160926   4.255   4.844  11.247 -1.1650 -0.0211  0.4878
13145TIP3    H260927   4.133   4.863  11.160 -0.8807 -1.3186 -0.2116
13146TIP3   OH260928   0.467   1.915  11.378  0.1024  0.1255 -1.0458
13146TIP3    H160929   0.483   1.822  11.394 -0.2927  0.3086  0.4160
13146TIP3    H260930   0.551   1.948  11.345  1.0688 -0.1804  1.0324
13147TIP3   OH260931   3.575   0.561  15.249 -0.1381  0.3044  0.3991
13147TIP3    H160932   3.574   0.568  15.153 -0.5406 -1.0313  0.3040
13147TIP3    H260933   3.551   0.649  15.279 -0.0503  0.7200 -0.7252
13148TIP3   OH260934   2.815   0.158   3.963 -0.3726  0.7605  0.1175
13148TIP3    H160935   2.795   0.078   3.915  0.5912  0.7002 -0.1815
13148TIP3    H260936   2.784   0.228   3.906  1.7501  0.7359 -1.0913
13149TIP3   OH260937   6.085   3.689  15.254  0.1379  0.8353 -0.4663
13149TIP3    H160938   6.105   3.706  15.162 -1.9014 -0.9667 -1.2750
13149TIP3    H260939   6.015   3.750  15.275  0.5188  1.1616 -0.1289
13150TIP3   OH260940   4.545   5.263  11.051  0.1162  0.0053  0.1904
13150TIP3    H160941   4.590   5.308  10.980 -0.0659  0.2350  0.2200
13150TIP3    H260942   4.602   5.189  11.073  0.7876  0.6606  0.6615
13151TIP3   OH260943   3.619   3.944  13.393  0.1133 -0.3475  0.2836
13151TIP3    H160944   3.664   3.859  13.385  1.9791  0.6275  0.1268
13151TIP3    H260945   3.592   3.965  13.303 -0.4354 -0.8249  0.3384
13152TIP3   OH260946   5.801   6.804  14.476 -0.0225  0.1588  0.2335
13152TIP3    H160947   5.714   6.777  14.504  0.0895  0.1396  0.5746
13152TIP3    H260948   5.796   6.899  14.471 -0.5321  0.0602 -1.3602
13153TIP3   OH260949   6.171   6.508   2.570 -0.4218  0.0268  0.1000
13153TIP3    H160950   6.088   6.463   2.553 -0.4976 -0.2225  1.0863
13153TIP3    H260951   6.156   6.557   2.650  0.5834 -0.5568  0.6631
13154TIP3   OH260952   0.592   2.549  16.001 -0.1736 -0.7216  0.3264
13154TIP3    H160953   0.541   2.566  16.080 -1.3428 -2.9426  0.0913
13154TIP3    H260954   0.573   2.622  15.943  0.6365  0.8949  2.0480
13155TIP3   OH260955   5.125   2.582   2.035  0.3863  0.3918  0.2910
13155TIP3    H160956   5.102   2.596   2.127 -0.9846  2.3026 -0.3222
13155TIP3    H260957   5.203   2.636   2.022  1.9673 -1.6771  0.8958
13156TIP3   OH260958   0.716   0.400  12.433 -0.1675  0.3794 -0.0774
13156TIP3    H160959   0.740   0.492  12.445  0.3143  0.0348  1.7584
13156TIP3    H260960   0.798   0.357  12.410  0.0204  0.0842  1.0860
13157TIP3   OH260961   2.063   1.192   5.690 -0.4604  0.1188  0.2703
13157TIP3    H160962   2.146   1.228   5.660 -0.6204  1.5626  1.4916
13157TIP3    H260963   2.029   1.258   5.751 -1.3109 -1.5947  1.6943
13158TIP3   OH260964   1.455   0.654   3.612  0.0203  0.1894 -0.4938
13158TIP3    H160965   1.426   0.587   3.673  0.0152 -0.0346 -0.7414
13158TIP3    H260966   1.420   0.627   3.527  3.0461 -1.4735 -1.3082
13159TIP3   OH260967   4.010   6.352   5.033 -0.1211  0.0686  0.0672
13159TIP3    H160968   4.017   6.398   5.117 -0.6855 -0.7183  0.5495
13159TIP3    H260969   4.048   6.266   5.050  1.1724  0.4380 -0.9036
13160TIP3   OH260970   4.176   0.155   5.840  0.4411 -0.4521  0.3727
13160TIP3    H160971   4.114   0.167   5.912  0.8280 -1.5549  0.8967
13160TIP3    H260972   4.123   0.165   5.761 -0.2610 -0.6365  0.8124
13161TIP3   OH260973   4.813   6.327  11.856  0.2883  0.4087 -0.6173
13161TIP3    H160974   4.780   6.240  11.877 -0.4974  0.8909  0.2037
13161TIP3    H260975   4.734   6.381  11.849  0.6430  0.6984 -2.8314
13162TIP3   OH260976   0.189   2.509  11.968 -0.2414 -0.4088 -0.1535
13162TIP3    H160977   0.115   2.532  12.023  0.0061  0.0367 -0.0087
13162TIP3    H260978   0.187   2.413  11.964 -1.6283 -0.3514 -1.2608
13163TIP3   OH260979   1.911   4.800   1.597 -0.4712  0.4646  0.8568
13163TIP3    H160980   1.847   4.869   1.581  0.7088  1.8189  1.7648
13163TIP3    H260981   1.865   4.735   1.650 -2.0424 -0.1978 -1.2909
13164TIP3   OH260982   3.983   2.526   3.324  1.2478 -0.6834 -0.1984
13164TIP3    H160983   4.010   2.610   3.362 -0.4844 -0.4464  0.5453
13164TIP3    H260984   3.980   2.466   3.399  0.2882 -0.8430 -0.3572
13165TIP3   OH260985   3.002   1.637   6.450  0.0402 -0.3782  0.1919
13165TIP3    H160986   2.911   1.623   6.421 -0.5678 -1.0732  2.3240
13165TIP3    H260987   3.010   1.732   6.459 -0.4401 -0.3081 -0.0954
13166TIP3   OH260988   4.788   3.985   1.688  0.6790  0.2053 -0.4006
13166TIP3    H160989   4.799   4.079   1.671 -0.9567  0.5185  0.1617
13166TIP3    H260990   4.696   3.968   1.668  0.6541 -1.0130  0.6951
13167TIP3   OH260991   0.743   2.626   0.188  0.0161  0.3369  0.2290
13167TIP3    H160992   0.789   2.564   0.246 -0.1611  0.4376  0.4771
13167TIP3    H260993   0.658   2.640   0.230  0.2710  1.1822  0.4668
13168TIP3   OH260994   3.466   4.137   5.385  0.2287  0.6012 -0.9091
13168TIP3    H160995   3.394   4.116   5.326  0.3315 -2.1695 -0.1018
13168TIP3    H260996   3.424   4.177   5.461 -0.4818 -1.1052 -0.3909
13169TIP3   OH260997   6.160   4.263  13.836 -0.0234 -0.4108  0.1542
13169TIP3    H160998   6.128   4.176  13.857  0.9511 -0.7940  0.1001
13169TIP3    H260999   6.084   4.320  13.846 -0.6722 -1.2704  0.1529
13170TIP3   OH261000   1.111   6.395   2.079  0.7419 -0.2201  0.2758
13170TIP3    H161001   1.050   6.452   2.033  1.9935  2.4996  1.8638
13170TIP3    H261002   1.056   6.328   2.120 -0.7019 -0.4786 -1.9953
13171TIP3   OH261003   4.245   0.886   1.363 -0.6967 -0.0454  0.2242
13171TIP3    H161004   4.337   0.894   1.387 -0.8640 -0.0567  0.8780
13171TIP3    H261005   4.246   0.859   1.271 -0.0343 -0.7008  0.4177
13172TIP3   OH261006   4.180   2.980   6.040 -0.2256 -0.4371  0.6728
13172TIP3    H161007   4.157   2.917   5.972 -0.7521 -0.0368  0.4815
13172TIP3    H261008   4.202   3.060   5.992 -4.4143  1.0918  1.0977
13173TIP3   OH261009   5.889   5.225   1.381  0.0030  0.1339 -0.3101
13173TIP3    H161010   5.907   5.131   1.370 -0.3499 -0.3043  2.4804
13173TIP3    H261011   5.801   5.237   1.344 -0.0203 -0.6693 -0.5261
13174TIP3   OH261012   2.903   4.789  13.620 -0.0688  0.5562  0.1056
13174TIP3    H161013   2.854   4.721  13.668 -1.2541  1.3381  0.0347
13174TIP3    H261014   2.963   4.825  13.685 -0.2237  0.2091  0.4455
13175TIP3   OH261015   3.329   2.561   5.209  0.2347  0.4742  0.2867
13175TIP3    H161016   3.239   2.533   5.194  0.1290  1.3546 -0.7173
13175TIP3    H261017   3.363   2.497   5.272 -1.3180  0.5967  1.2876
13176TIP3   OH261018   6.528   1.127   2.735 -0.3768  0.1909  0.3910
13176TIP3    H161019   6.612   1.171   2.720 -0.2166  0.5121  2.1344
13176TIP3    H261020   6.552   1.044   2.776 -0.8215 -0.5765 -0.8543
13177TIP3   OH261021   3.046   3.396  13.246  0.3963  0.0657  0.6650
13177TIP3    H161022   3.117   3.429  13.191  2.3330 -2.5991  1.4356
13177TIP3    H261023   3.006   3.326  13.195 -1.4293  1.2535  0.4189
13178TIP3   OH261024   5.596   3.498  14.413  0.2867  0.1574  0.5130
13178TIP3    H161025   5.585   3.570  14.476 -0.9495  1.1612 -0.8267
13178TIP3    H261026   5.532   3.433  14.440 -0.6800  0.8604 -0.0858
13179TIP3   OH261027   0.521   2.208   7.176 -0.4974 -0.7470  0.3491
13179TIP3    H161028   0.552   2.145   7.112  0.0220 -1.5169  1.3468
13179TIP3    H261029   0.452   2.162   7.225 -1.9853  0.3454 -0.6605
13180TIP3   OH261030   0.876   2.473  15.720  0.2780 -0.2122 -0.4143
13180TIP3    H161031   0.914   2.526  15.790 -0.6512  0.1511 -0.1802
13180TIP3    H261032   0.934   2.488  15.645  1.1443 -0.4176  0.2019
13181TIP3   OH261033   6.686   4.818  12.255  0.6148 -0.2058 -1.3760
13181TIP3    H161034   6.688   4.726  12.230  1.3211 -0.2707 -1.0901
13181TIP3    H261035   6.640   4.861  12.183 -0.6061 -0.9158 -1.0425
13182TIP3   OH261036   0.659   3.508  16.182 -0.0771  0.0933  0.0841
13182TIP3    H161037   0.750   3.526  16.156 -0.2597 -0.4519 -0.9760
13182TIP3    H261038   0.618   3.594  16.188  0.5431  0.3471  0.6785
13183TIP3   OH261039   0.419   3.864  16.266 -0.0342 -0.0723  0.2077
13183TIP3    H161040   0.352   3.850  16.198 -2.2686 -0.4948  2.4324
13183TIP3    H261041   0.501   3.872  16.217 -1.9684  2.7924 -2.7849
13184TIP3   OH261042   6.526   2.524  11.151  0.0225 -0.8720 -0.0759
13184TIP3    H161043   6.498   2.613  11.130  1.6731  0.2612  2.3409
13184TIP3    H261044   6.535   2.481  11.066 -1.6991  0.9638 -1.2356
13185TIP3   OH261045   5.130   2.348   1.625  0.3090  0.4647 -0.5981
13185TIP3    H161046   5.102   2.403   1.698 -1.2684 -0.3720 -0.5579
13185TIP3    H261047   5.209   2.391   1.592  0.0997  1.7694  0.5513
13186TIP3   OH261048   5.113   5.141  15.453  0.3652  0.5463  0.5947
13186TIP3    H161049   5.042   5.181  15.504 -0.3645  1.6213 -1.1931
13186TIP3    H261050   5.191   5.152  15.507 -0.7312 -0.1769  2.3626
13187TIP3   OH261051   4.156   5.609   5.423 -0.0168  0.5008 -0.1060
13187TIP3    H161052   4.174   5.588   5.514 -0.2501  2.0411  0.2992
13187TIP3    H261053   4.241   5.632   5.386  0.4627 -2.3840 -0.9020
13188TIP3   OH261054   6.301   6.146  15.492 -0.1105 -0.0694  0.1843
13188TIP3    H161055   6.326   6.148  15.399 -1.4930 -1.7263 -0.2614
13188TIP3    H261056   6.381   6.122  15.538  0.3386 -0.2614 -0.6813
13189TIP3   OH261057   4.028   3.345  14.276 -0.5734  0.4094  0.3488
13189TIP3    H161058   4.075   3.427  14.296 -0.5922  0.4351  0.2841
13189TIP3    H261059   4.040   3.332  14.182 -0.2671  0.1474  0.4251
13190TIP3   OH261060   2.901   4.980  12.596  0.0167  0.0142 -0.1558
13190TIP3    H161061   2.959   4.931  12.654 -0.3758 -0.2234  0.0402
13190TIP3    H261062   2.826   5.003  12.651 -0.5818 -0.6364 -0.6941
13191TIP3   OH261063   5.665   2.869  14.297 -0.0322 -0.2770 -0.0892
13191TIP3    H161064   5.734   2.912  14.347  0.2557  1.1390 -1.6677
13191TIP3    H261065   5.700   2.781  14.279  1.4658  0.4738 -1.0131
13192TIP3   OH261066   5.662   5.426  12.897  0.1091  0.1102  0.4023
13192TIP3    H161067   5.570   5.409  12.874  0.1183  0.4606  0.0873
13192TIP3    H261068   5.677   5.517  12.869 -0.3615  1.1460  3.3546
13193TIP3   OH261069   1.538   3.847   0.998 -0.1164 -0.2448 -0.2988
13193TIP3    H161070   1.531   3.841   0.902  0.6713 -1.1414 -0.3028
13193TIP3    H261071   1.609   3.788   1.021 -0.1516  0.1380  0.8300
13194TIP3   OH261072   1.456   3.109   5.213  0.4197 -0.1662  0.3778
13194TIP3    H161073   1.445   3.014   5.211 -0.4048 -0.0654  0.1389
13194TIP3    H261074   1.463   3.131   5.306 -1.0814 -0.2658  0.5175
13195TIP3   OH261075   0.220   6.254  13.873 -0.2819  0.0878 -0.1068
13195TIP3    H161076   0.234   6.340  13.911 -0.0755  0.1546 -0.3378
13195TIP3    H261077   0.151   6.267  13.808  0.6496  0.3333 -1.0598
13196TIP3   OH261078   1.507   5.505  14.602 -0.1905  0.3441 -0.0676
13196TIP3    H161079   1.570   5.570  14.569  0.2987 -0.2109 -0.2210
13196TIP3    H261080   1.559   5.426  14.617 -1.0208 -0.3972 -1.0539
13197TIP3   OH261081   4.396   5.441   0.998  0.4222  0.2654 -0.2365
13197TIP3    H161082   4.487   5.459   0.973  0.6303 -0.2017  0.1912
13197TIP3    H261083   4.347   5.451   0.916  1.0359 -0.7220 -0.7459
13198TIP3   OH261084   3.698   1.924   2.773  0.3624 -0.0502  0.0694
13198TIP3    H161085   3.767   1.983   2.803 -2.1292  1.9068  2.1853
13198TIP3    H261086   3.658   1.970   2.699 -0.6586  0.2955  0.8202
13199TIP3   OH261087   6.342   5.711  15.286 -0.1209  0.3589 -0.0502
13199TIP3    H161088   6.375   5.625  15.312 -0.9296 -0.1263 -0.5793
13199TIP3    H261089   6.420   5.765  15.274  0.4326 -0.5453 -0.5595
13200TIP3   OH261090   0.752   5.092  13.186 -0.1011  0.4529 -0.2339
13200TIP3    H161091   0.831   5.090  13.131 -0.4091  3.5832 -0.8666
13200TIP3    H261092   0.715   5.179  13.172 -0.9602  0.8568  3.8937
13201TIP3   OH261093   3.693   2.830  12.635  0.3728 -0.1628  0.6856
13201TIP3    H161094   3.716   2.919  12.607  0.3088  0.2160  1.8312
13201TIP3    H261095   3.598   2.832  12.647  0.4197 -0.2810  1.0783
13202TIP3   OH261096   5.171   1.029  14.932  0.0769 -0.2736 -0.2428
13202TIP3    H161097   5.266   1.019  14.933  0.3344  1.8699  1.6909
13202TIP3    H261098   5.157   1.124  14.937 -2.1783 -0.3925 -2.7619
13203TIP3   OH261099   4.531   1.317   4.685  0.3198  0.0248  0.4128
13203TIP3    H161100   4.470   1.323   4.611 -1.6109  0.0607  1.9742
13203TIP3    H261101   4.615   1.346   4.649 -0.5460 -0.1468 -1.8164
13204TIP3   OH261102   3.567   2.176   5.421 -0.1385 -0.1010 -0.8231
13204TIP3    H161103   3.515   2.096   5.433 -0.8096  0.4747  0.2534
13204TIP3    H261104   3.574   2.212   5.510 -0.8622  1.6649 -1.4715
13205TIP3   OH261105   0.126   2.352  11.106  0.0464 -0.4594 -0.8735
13205TIP3    H161106   0.102   2.277  11.053  1.8550 -1.7808  0.1230
13205TIP3    H261107   0.221   2.352  11.107  0.0730  1.4419 -0.2779
13206TIP3   OH261108   4.656   4.853  16.910  0.1593 -0.1445 -0.0720
13206TIP3    H161109   4.695   4.848  16.823 -1.3376  2.0973 -0.9329
13206TIP3    H261110   4.572   4.897  16.895 -0.1542  0.1662  2.4825
13207TIP3   OH261111   4.331   3.927   5.287 -0.1604 -0.1569  0.2300
13207TIP3    H161112   4.271   3.854   5.269 -1.6894  1.1374 -0.1113
13207TIP3    H261113   4.282   3.982   5.348  0.4697  1.2007 -0.4819
13208TIP3   OH261114   3.625   4.326   5.206 -0.3007 -0.1104  0.0945
13208TIP3    H161115   3.632   4.244   5.255  1.5009  0.4483  0.8350
13208TIP3    H261116   3.716   4.351   5.188 -0.8777  0.9347 -1.4476
13209TIP3   OH261117   1.271   2.999  12.358  0.0926  0.0820 -0.2923
13209TIP3    H161118   1.219   3.016  12.437  1.7097 -0.8205  0.9962
13209TIP3    H261119   1.273   2.903  12.350 -0.6928  0.1758 -1.8822
13210TIP3   OH261120   6.307   3.851   0.190  0.0725  0.4387 -0.1747
13210TIP3    H161121   6.338   3.913   0.256  0.8301  0.1456 -0.2569
13210TIP3    H261122   6.219   3.882   0.169  0.3568  1.3601 -0.0529
13211TIP3   OH261123   4.899   3.398  16.848  0.6157 -0.1911 -0.3993
13211TIP3    H161124   4.873   3.434  16.933  3.4665  1.2374 -0.0705
13211TIP3    H261125   4.827   3.422  16.789 -0.1493  1.1335  1.0352
13212TIP3   OH261126   3.670   6.581   0.530 -0.3950  0.3864 -0.2908
13212TIP3    H161127   3.606   6.513   0.552 -0.7583  1.2355  1.3218
13212TIP3    H261128   3.640   6.614   0.445 -1.0041 -0.5083 -0.4381
13213TIP3   OH261129   1.223   1.704  12.376  0.4550 -0.1701 -0.3371
13213TIP3    H161130   1.249   1.667  12.292  0.4540  1.4087 -1.0441
13213TIP3    H261131   1.285   1.667  12.439  1.8563  0.3837 -1.3803
13214TIP3   OH261132   1.053   2.476  14.359  0.0168 -0.5169 -0.5861
13214TIP3    H161133   1.106   2.528  14.299  0.7096 -1.4444 -0.7873
13214TIP3    H261134   1.111   2.405  14.387  0.1656  0.7043  2.3164
13215TIP3   OH261135   2.379   1.912  17.001 -0.9280 -0.1834  0.0564
13215TIP3    H161136   2.322   1.969  16.950 -0.2500 -0.3391 -0.8909
13215TIP3    H261137   2.465   1.922  16.961 -0.2376  0.2338  1.6284
13216TIP3   OH261138   3.710   0.888   1.681 -0.2796 -0.0609 -0.3636
13216TIP3    H161139   3.626   0.859   1.646 -0.3586  0.1987 -0.3894
13216TIP3    H261140   3.723   0.834   1.759 -1.7080  1.6514  1.1103
13217TIP3   OH261141   3.551   1.766  10.792  0.4179  0.0517 -0.5218
13217TIP3    H161142   3.646   1.765  10.806 -0.0081 -0.0763  2.7562
13217TIP3    H261143   3.523   1.677  10.812 -0.2044 -0.3688 -3.1905
13218TIP3   OH261144   5.884   1.727   3.257 -0.2281 -0.2332  0.6613
13218TIP3    H161145   5.914   1.642   3.288  0.9319  0.5931  1.8386
13218TIP3    H261146   5.811   1.750   3.316 -0.4555 -0.3409  0.4255
13219TIP3   OH261147   1.178   0.918  12.498  0.0504 -0.0995 -0.1236
13219TIP3    H161148   1.219   0.832  12.494 -0.7269 -0.5013  0.4198
13219TIP3    H261149   1.188   0.954  12.410 -0.1143 -0.9786 -0.5077
13220TIP3   OH261150   3.844   2.656   5.879 -0.3370  0.7414  0.7375
13220TIP3    H161151   3.794   2.729   5.843  3.0731  2.9583  0.2328
13220TIP3    H261152   3.920   2.648   5.822  0.5329 -1.7560  2.1351
13221TIP3   OH261153   3.395   6.284   0.204 -0.0863 -0.2738  0.0794
13221TIP3    H161154   3.352   6.324   0.128  1.1145  1.2417  0.1768
13221TIP3    H261155   3.460   6.349   0.232  0.9945 -1.7467  1.0590
13222TIP3   OH261156   0.287   5.937   5.605 -0.5398 -0.1573 -0.3056
13222TIP3    H161157   0.281   5.993   5.682 -0.0088 -0.8468  0.2501
13222TIP3    H261158   0.375   5.899   5.610  0.1261  1.1039 -2.1775
13223TIP3   OH261159   2.541   3.966   5.507 -0.2245 -0.0877  1.0766
13223TIP3    H161160   2.449   3.943   5.522 -0.4980  0.6952  0.6087
13223TIP3    H261161   2.538   4.055   5.473  0.5643 -0.8273 -0.9604
13224TIP3   OH261162   3.759   4.413  10.505 -0.1072  0.3434 -0.0976
13224TIP3    H161163   3.786   4.322  10.499  0.0077  0.1613  2.3602
13224TIP3    H261164   3.667   4.409  10.528  0.0040  0.8323  0.4512
13225TIP3   OH261165   3.536   1.077  15.605 -0.0586 -0.0164  0.2049
13225TIP3    H161166   3.601   1.039  15.546 -2.3155 -1.7047 -1.2780
13225TIP3    H261167   3.512   1.160  15.565  1.1736  0.6062  0.7532
13226TIP3   OH261168   3.093   1.777   1.371  0.4871  0.3128 -0.0603
13226TIP3    H161169   3.181   1.813   1.372  0.8851 -0.6562  0.1509
13226TIP3    H261170   3.043   1.835   1.429  1.0317  0.7117  0.0170
13227TIP3   OH261171   3.135   2.188   4.526 -0.3449  0.3926 -0.1251
13227TIP3    H161172   3.063   2.133   4.557 -2.3312  3.5190  1.0934
13227TIP3    H261173   3.206   2.174   4.589 -1.3779  0.3811  1.0458
13228TIP3   OH261174   6.167   3.804   3.820 -0.0816  0.0202  0.3022
13228TIP3    H161175   6.259   3.787   3.802  0.5474 -0.3040  3.4700
13228TIP3    H261176   6.123   3.721   3.802  0.8443 -0.9253  2.1984
13229TIP3   OH261177   6.252   4.570  12.575 -0.2493 -0.5519  0.0488
13229TIP3    H161178   6.190   4.534  12.639 -0.3806 -0.8084 -0.2170
13229TIP3    H261179   6.245   4.511  12.500  0.6883 -0.8597  0.2078
13230TIP3   OH261180   3.053   3.405   5.457  0.5564  0.2960  0.4963
13230TIP3    H161181   3.038   3.463   5.532 -0.0997  0.0396  0.5653
13230TIP3    H261182   3.000   3.327   5.475 -1.6302  1.2660 -1.4275
13231TIP3   OH261183   6.249   1.425   2.852 -0.1139 -0.2948 -0.1086
13231TIP3    H161184   6.335   1.466   2.860 -0.6329  0.5145  1.3172
13231TIP3    H261185   6.210   1.432   2.939 -2.6995  1.7364 -1.3516
13232TIP3   OH261186   5.534   5.420   5.976 -0.3618 -0.2298 -0.6358
13232TIP3    H161187   5.448   5.391   6.005  0.4277 -0.2259  1.7911
13232TIP3    H261188   5.589   5.342   5.980  0.0988  0.0840 -0.7623
13233TIP3   OH261189   2.252   2.934   1.069  0.2152 -0.1380  0.0675
13233TIP3    H161190   2.298   2.851   1.059  1.0898  0.3628 -0.1199
13233TIP3    H261191   2.281   2.967   1.154  1.2544  0.8223 -0.6542
13234TIP3   OH261192   6.428   0.826   3.217 -0.5583  0.5042  0.1755
13234TIP3    H161193   6.358   0.777   3.174 -0.5164  1.1079 -0.5799
13234TIP3    H261194   6.465   0.764   3.280 -0.4972 -0.4369 -0.7749
13235TIP3   OH261195   3.391   0.425   3.652  0.0831 -0.4466 -0.0434
13235TIP3    H161196   3.380   0.438   3.746  1.8075  0.3258  0.0732
13235TIP3    H261197   3.379   0.512   3.615  1.0233 -0.4445 -0.3611
13236TIP3   OH261198   1.325   3.292  15.282  0.1488 -0.0104  0.3703
13236TIP3    H161199   1.259   3.226  15.260  0.9113 -0.5773 -0.2368
13236TIP3    H261200   1.352   3.271  15.371  0.0713 -0.2450  0.3373
13237TIP3   OH261201   5.492   2.638   5.742 -0.4746  0.2749  0.0353
13237TIP3    H161202   5.449   2.692   5.676 -1.0581 -0.8675 -0.5223
13237TIP3    H261203   5.523   2.561   5.695 -0.0141 -0.0839  0.9031
13238TIP3   OH261204   0.245   5.150   0.368  0.1184  1.1722 -0.0232
13238TIP3    H161205   0.204   5.151   0.281 -0.7035  0.1288  0.3336
13238TIP3    H261206   0.310   5.080   0.363  0.9917  1.9829 -0.1923
13239TIP3   OH261207   3.353   2.193  11.755 -0.2891  0.2743 -0.0175
13239TIP3    H161208   3.268   2.162  11.787 -0.1577  0.3187  0.3864
13239TIP3    H261209   3.334   2.233  11.671 -0.7432  0.6620  0.2636
13240TIP3   OH261210   3.523   1.632  12.028  0.0493 -0.6603 -0.0136
13240TIP3    H161211   3.469   1.562  11.990 -0.3321 -0.0199 -0.6749
13240TIP3    H261212   3.605   1.629  11.978  1.0277 -2.2521  1.6211
13241TIP3   OH261213   2.771   0.068  13.814  0.1845  0.1285  0.3897
13241TIP3    H161214   2.692   0.121  13.824 -0.6149 -0.9580 -0.0657
13241TIP3    H261215   2.842   0.125  13.844 -0.7796  1.0783  0.9119
13242TIP3   OH261216   2.667   2.357  15.509  0.6965  0.2391  0.1649
13242TIP3    H161217   2.679   2.263  15.498  0.4940 -0.0149  1.9482
13242TIP3    H261218   2.574   2.372  15.492  0.7756  0.1599 -0.3468
13243TIP3   OH261219   2.086   3.823  13.002 -0.3230  0.3052  0.0037
13243TIP3    H161220   2.021   3.796  12.937  0.5747  1.0309 -1.2325
13243TIP3    H261221   2.117   3.741  13.040 -1.7312 -0.0627  0.3862
13244TIP3   OH261222   5.896   5.922   2.832  0.6387  0.4221  0.1813
13244TIP3    H161223   5.947   5.867   2.891 -0.4332  0.1265  0.8503
13244TIP3    H261224   5.937   5.910   2.746  0.2622 -1.6508  0.2639
13245TIP3   OH261225   2.115   4.827  12.682 -0.2445 -0.0650  0.2436
13245TIP3    H161226   2.026   4.839  12.651  0.2538  2.1636 -0.4051
13245TIP3    H261227   2.111   4.751  12.740 -2.5128 -0.0380  0.1335
13246TIP3   OH261228   4.688   4.317   1.130  0.3592 -0.0913  0.3340
13246TIP3    H161229   4.667   4.269   1.050 -0.5290  2.2767 -0.9342
13246TIP3    H261230   4.631   4.278   1.196  0.8981 -1.8969 -0.2371
13247TIP3   OH261231   0.504   0.220  12.072  0.2669 -0.1299 -0.7312
13247TIP3    H161232   0.484   0.131  12.103 -0.0317  0.3142  0.3912
13247TIP3    H261233   0.540   0.207  11.985  0.0885 -1.3517 -0.6420
13248TIP3   OH261234   1.256   1.715  12.786  0.4166  0.5061 -0.3860
13248TIP3    H161235   1.309   1.639  12.810 -0.3696 -0.2681 -1.0954
13248TIP3    H261236   1.313   1.767  12.729  0.4867 -0.2110 -0.9696
13249TIP3   OH261237   3.391   6.359   5.531 -0.5846  0.2138  0.3268
13249TIP3    H161238   3.309   6.356   5.581 -0.6347 -1.4628  0.1679
13249TIP3    H261239   3.452   6.306   5.583 -0.2125 -0.2988 -0.6242
13250TIP3   OH261240   3.550   3.476   4.283 -0.7730  0.0848  0.6007
13250TIP3    H161241   3.539   3.477   4.188  1.4730 -3.9109  0.1976
13250TIP3    H261242   3.582   3.563   4.305  2.1348 -0.0563 -2.7886
13251TIP3   OH261243   4.637   2.462  16.727 -0.3126 -0.4438  0.5128
13251TIP3    H161244   4.731   2.477  16.723 -0.5954  1.1608 -0.9106
13251TIP3    H261245   4.617   2.409  16.650 -0.9898  1.8636 -0.9491
13252TIP3   OH261246   5.286   5.360  11.028  0.3683  0.0796 -0.1821
13252TIP3    H161247   5.306   5.450  11.053  0.8121  0.2263 -1.0442
13252TIP3    H261248   5.304   5.356  10.934  0.1999 -0.8646 -0.1836
13253TIP3   OH261249   1.360   3.648  12.218 -0.0640  0.4129  0.6756
13253TIP3    H161250   1.374   3.619  12.128  0.5701  1.9556  0.2507
13253TIP3    H261251   1.278   3.697  12.215 -0.5276 -0.3226  1.1420
13254TIP3   OH261252   3.115   2.159  11.882 -0.2882  0.0385  0.3884
13254TIP3    H161253   3.100   2.097  11.953 -0.0062 -0.4608  0.0163
13254TIP3    H261254   3.149   2.237  11.925  0.1245 -0.3521  0.7778
13255TIP3   OH261255   3.086   3.298  15.074  0.2462  0.2564 -0.1691
13255TIP3    H161256   3.099   3.384  15.115 -0.0459  0.7394 -1.0916
13255TIP3    H261257   3.132   3.305  14.990  0.4657 -0.5884 -0.1174
13256TIP3   OH261258   4.261   2.214  17.269 -0.2239  0.2132  0.9289
13256TIP3    H161259   4.258   2.172  17.183  2.1973  2.0382 -0.1255
13256TIP3    H261260   4.348   2.191  17.303 -0.7462  0.4077  2.4068
13257TIP3   OH261261   3.122   6.771   1.879 -0.0125  0.1150 -0.3859
13257TIP3    H161262   3.078   6.838   1.930  0.7821 -0.6640  1.3867
13257TIP3    H261263   3.098   6.689   1.922  2.8327 -0.3501  0.4316
13258TIP3   OH261264   0.216   5.816  14.491 -0.3244  0.0860 -0.4659
13258TIP3    H161265   0.196   5.725  14.470  0.2671 -0.2467  0.3775
13258TIP3    H261266   0.302   5.813  14.532 -0.4629  0.9827 -0.0835
13259TIP3   OH261267   0.379   2.542   1.741 -0.5555 -0.2539  0.0330
13259TIP3    H161268   0.336   2.615   1.785 -0.6595 -0.9704  1.1291
13259TIP3    H261269   0.310   2.477   1.727 -0.2447 -0.5921  0.0447
13260TIP3   OH261270   1.361   2.414  16.962  0.6970 -0.1195  0.2786
13260TIP3    H161271   1.431   2.479  16.973 -0.8287  1.5058  0.5185
13260TIP3    H261272   1.301   2.454  16.899  0.9581 -2.3595 -1.4683
13261TIP3   OH261273   2.131   1.842   1.349 -0.1176 -0.3931 -0.1935
13261TIP3    H161274   2.056   1.787   1.374  0.0050 -0.5827 -0.2506
13261TIP3    H261275   2.186   1.844   1.427 -0.0233 -0.5121 -0.2576
13262TIP3   OH261276   4.374   6.205   1.634 -0.2667 -0.1782  0.9209
13262TIP3    H161277   4.379   6.112   1.611 -0.2987  0.0606 -0.0505
13262TIP3    H261278   4.299   6.238   1.585 -0.3376  0.3408  1.3670
13263TIP3   OH261279   5.553   6.271   5.569  0.0864 -0.0297  0.5126
13263TIP3    H161280   5.552   6.365   5.585 -0.3646  0.2570 -1.1717
13263TIP3    H261281   5.572   6.262   5.476 -0.2100 -1.5964  0.5869
13264TIP3   OH261282   0.966   4.265  17.083 -1.0020  0.1493  0.2868
13264TIP3    H161283   0.915   4.240  17.007 -0.5869 -0.2752  0.1498
13264TIP3    H261284   0.989   4.183  17.126  0.2844  0.2809 -0.1161
13265TIP3   OH261285   4.928   6.168  15.266  0.3224  0.2467 -0.1893
13265TIP3    H161286   4.924   6.199  15.175  1.5475 -0.4036 -0.4846
13265TIP3    H261287   4.848   6.119  15.278 -0.0662  0.7189 -0.7760
13266TIP3   OH261288   3.969   0.339   2.993  0.2341  0.3725 -0.3937
13266TIP3    H161289   3.894   0.390   3.025 -0.1629  1.0413 -2.3151
13266TIP3    H261290   3.965   0.348   2.898  1.0291 -2.0694 -0.6898
13267TIP3   OH261291   4.748   0.658  13.078 -0.8841 -0.2245  0.2002
13267TIP3    H161292   4.819   0.594  13.081  0.1764  0.7149 -2.6357
13267TIP3    H261293   4.792   0.741  13.060 -2.4917  0.7826  0.9078
13268TIP3   OH261294   3.665   6.684   3.551  0.3540 -0.2689  0.1508
13268TIP3    H161295   3.590   6.680   3.609 -0.8546  0.2431 -1.3628
13268TIP3    H261296   3.683   6.777   3.540  1.5951 -0.3894  0.9635
13269TIP3   OH261297   0.513   0.604  14.613  0.1109  0.0879  0.4113
13269TIP3    H161298   0.584   0.547  14.585  3.5615  5.1482 -1.8065
13269TIP3    H261299   0.533   0.624  14.705 -0.6377 -1.4444  0.9330
13270TIP3   OH261300   6.799   5.847  14.709  0.1758 -0.1483 -0.3770
13270TIP3    H161301   6.855   5.924  14.702 -0.8089  0.6880  0.7851
13270TIP3    H261302   6.712   5.878  14.682 -0.3703 -0.6678  0.7478
13271TIP3   OH261303   5.532   6.662   0.514  0.2470  0.3967  0.2133
13271TIP3    H161304   5.537   6.756   0.499  0.3591  0.5720  1.2836
13271TIP3    H261305   5.593   6.645   0.586 -1.5896 -0.0927  1.6991
13272TIP3   OH261306   4.031   2.215   2.301  0.5427 -0.3212  0.5135
13272TIP3    H161307   4.085   2.295   2.305 -0.3908  0.3668 -0.2955
13272TIP3    H261308   3.958   2.239   2.244  0.4838 -1.9044 -0.0868
13273TIP3   OH261309   2.417   0.213   0.668  0.3671 -0.0802  0.1231
13273TIP3    H161310   2.477   0.282   0.697  0.1258 -0.4131  1.4398
13273TIP3    H261311   2.456   0.179   0.588  0.3160  1.8183 -0.7306
13274TIP3   OH261312   1.439   3.191   3.775 -0.1173  0.1018  0.1620
13274TIP3    H161313   1.425   3.116   3.833  0.4532  1.2613  1.8362
13274TIP3    H261314   1.524   3.173   3.734  0.4459  0.2324  1.2318
13275TIP3   OH261315   5.961   2.678  14.955 -0.4448  0.3593 -0.0842
13275TIP3    H161316   5.896   2.689  14.885  1.4563 -2.0349 -2.3718
13275TIP3    H261317   5.942   2.591  14.991  1.0085 -0.1021 -0.3637
13276TIP3   OH261318   2.980   5.346   2.717  0.5297 -0.0048 -0.3556
13276TIP3    H161319   3.038   5.416   2.747  2.9125 -1.7926 -0.6209
13276TIP3    H261320   2.978   5.356   2.622  0.7481 -0.1923 -0.3807
13277TIP3   OH261321   2.266   2.005  14.405 -0.0739 -0.1771 -0.0809
13277TIP3    H161322   2.283   1.912  14.421  2.4853 -0.0619 -1.8608
13277TIP3    H261323   2.241   2.009  14.312  0.1134  0.9444 -0.0890
13278TIP3   OH261324   4.882   1.892   3.699 -0.4509 -0.4276 -0.2906
13278TIP3    H161325   4.933   1.816   3.726  1.0950  0.4386 -0.7155
13278TIP3    H261326   4.792   1.861   3.695 -0.0048 -1.8866  0.8417
13279TIP3   OH261327   4.215   2.656  14.354 -0.0270  0.0462  0.5655
13279TIP3    H161328   4.276   2.596  14.312 -0.6807 -0.0471 -0.2604
13279TIP3    H261329   4.203   2.726  14.290  0.1769  0.6997  1.2365
13280TIP3   OH261330   5.381   1.310   0.732 -0.0849  0.3666 -0.3841
13280TIP3    H161331   5.361   1.338   0.821 -1.2444  0.9383 -0.8039
13280TIP3    H261332   5.306   1.256   0.707 -0.4400  1.3424 -1.4925
13281TIP3   OH261333   5.344   4.287  11.860 -0.1525  0.5815  0.4315
13281TIP3    H161334   5.318   4.287  11.768 -0.6677  1.7997  0.5578
13281TIP3    H261335   5.397   4.367  11.869 -0.8356  0.9387  1.3756
13282TIP3   OH261336   3.598   2.250   3.834 -0.6954 -0.1595  0.1019
13282TIP3    H161337   3.517   2.200   3.824 -0.4286 -1.0468  2.2163
13282TIP3    H261338   3.593   2.286   3.923  1.4499 -0.5916  0.4086
13283TIP3   OH261339   1.785   3.052   3.864 -0.1105 -0.3288  0.5274
13283TIP3    H161340   1.736   3.082   3.788  0.9593  1.5723  0.5595
13283TIP3    H261341   1.873   3.087   3.851 -0.0380  0.4482  2.8943
13284TIP3   OH261342   2.379   2.483   1.292  0.6559  0.1340 -0.1049
13284TIP3    H161343   2.392   2.464   1.199  1.0220 -0.9843  0.1665
13284TIP3    H261344   2.293   2.525   1.296  0.5498  0.0037 -0.9299
13285TIP3   OH261345   4.104   2.960  11.269 -0.5101  0.1190  0.1581
13285TIP3    H161346   4.189   3.002  11.266 -0.2907 -0.3654 -0.7797
13285TIP3    H261347   4.104   2.900  11.194 -2.2217  1.2031 -0.7535
13286TIP3   OH261348   0.563   2.687   0.381  0.3877  0.3933  0.2120
13286TIP3    H161349   0.570   2.726   0.469  1.7629  0.7637 -0.0480
13286TIP3    H261350   0.479   2.641   0.382 -0.2788  1.5804  1.2477
13287TIP3   OH261351   1.777   5.260  16.764 -0.7029  0.9772 -0.3491
13287TIP3    H161352   1.709   5.284  16.826  0.2620 -1.2276  1.6557
13287TIP3    H261353   1.732   5.205  16.699 -1.0284  0.2483  0.4810
13288TIP3   OH261354   6.657   0.701  13.517 -0.5006  0.5067  0.6526
13288TIP3    H161355   6.634   0.765  13.584  0.5818  1.8189 -0.2143
13288TIP3    H261356   6.752   0.708  13.509 -0.8142  1.8732 -2.5019
13289TIP3   OH261357   4.476   5.127  10.517  0.8853 -0.4125 -0.3787
13289TIP3    H161358   4.384   5.101  10.503  0.5013  1.1444 -0.8057
13289TIP3    H261359   4.481   5.216  10.483  1.8987  0.5401  2.1808
13290TIP3   OH261360   4.701   4.431  14.715 -0.0247 -0.1348 -0.0640
13290TIP3    H161361   4.728   4.345  14.747 -0.2666 -0.4047 -0.5806
13290TIP3    H261362   4.781   4.472  14.683 -0.0943 -0.6378 -0.9061
13291TIP3   OH261363   5.316   2.347   2.849 -0.0555  0.1835  0.1937
13291TIP3    H161364   5.362   2.309   2.774  0.3288  0.1186  0.4619
13291TIP3    H261365   5.383   2.397   2.896 -0.2404  0.0319  0.6256
13292TIP3   OH261366   2.858   4.563  16.220  0.1657  0.4041  0.2837
13292TIP3    H161367   2.824   4.640  16.263  0.2827  0.2945  0.5740
13292TIP3    H261368   2.830   4.490  16.275  0.1350  0.2498  0.0622
13293TIP3   OH261369   4.295   0.748  11.039 -0.1313  0.2117  0.5632
13293TIP3    H161370   4.247   0.751  11.121 -0.3967 -0.1610  0.4217
13293TIP3    H261371   4.384   0.722  11.064 -0.5500 -1.2088  0.5858
13294TIP3   OH261372   6.595   2.966  12.720 -0.7396  0.2079  0.2369
13294TIP3    H161373   6.508   2.927  12.709 -0.5239 -0.2521  0.1617
13294TIP3    H261374   6.656   2.895  12.698 -0.3494  0.7660 -0.4757
13295TIP3   OH261375   3.526   4.012  10.925  0.1917 -0.2337 -0.2461
13295TIP3    H161376   3.504   4.102  10.901 -0.4587 -0.6644 -1.3243
13295TIP3    H261377   3.577   3.980  10.850  1.4212 -0.3968  0.6481
13296TIP3   OH261378   6.643   0.338  11.351 -0.3591  0.0769  0.1227
13296TIP3    H161379   6.607   0.261  11.394  0.9461 -0.4323  0.3203
13296TIP3    H261380   6.650   0.313  11.259 -1.0676  0.3928 -0.0240
13297TIP3   OH261381   3.506   3.344   0.334 -0.1961 -0.8110 -0.1356
13297TIP3    H161382   3.527   3.413   0.396  0.1018 -0.4470 -0.6373
13297TIP3    H261383   3.589   3.296   0.323 -0.4757 -1.4261  0.4358
13298TIP3   OH261384   2.841   6.460   0.890  0.7809  0.1800 -0.3370
13298TIP3    H161385   2.752   6.471   0.923  0.9971 -0.0131  0.3381
13298TIP3    H261386   2.857   6.365   0.896  0.9286  0.1824 -0.7172
13299TIP3   OH261387   6.469   4.479   0.381 -0.0473  0.3098  0.5101
13299TIP3    H161388   6.440   4.395   0.347  0.5292  0.6810 -0.8969
13299TIP3    H261389   6.525   4.457   0.456 -1.3164 -0.4968  1.2391
13300TIP3   OH261390   6.093   1.094  13.740 -0.2773 -0.2659 -0.3699
13300TIP3    H161391   6.114   1.174  13.693  2.6169 -1.4345 -1.1876
13300TIP3    H261392   6.013   1.062  13.699 -1.0566  1.8000 -0.5141
13301TIP3   OH261393   3.129   1.908   6.193 -0.5595 -0.3226 -0.1357
13301TIP3    H161394   3.131   1.989   6.245 -0.2538 -0.9132  0.7664
13301TIP3    H261395   3.187   1.926   6.119 -0.8219  0.4414 -0.1601
13302TIP3   OH261396   3.793   1.870   2.413 -0.5548 -0.3666 -0.1512
13302TIP3    H161397   3.809   1.828   2.329 -0.1065 -0.2566 -0.1189
13302TIP3    H261398   3.845   1.820   2.476  1.2184  1.1662 -0.3463
13303TIP3   OH261399   4.502   2.867   0.672  0.0296  0.2412 -0.0960
13303TIP3    H161400   4.472   2.783   0.638 -0.0015  0.7127 -1.2502
13303TIP3    H261401   4.447   2.932   0.629  3.5340  1.2438 -3.4135
13304TIP3   OH261402   2.127   4.630   3.555 -0.2055  0.0733 -0.2008
13304TIP3    H161403   2.188   4.679   3.611 -0.1919 -0.9640  0.7037
13304TIP3    H261404   2.041   4.661   3.581 -0.1416  0.4990 -0.4839
13305TIP3   OH261405   2.320   5.194   4.844  0.2757  0.0241 -0.3509
13305TIP3    H161406   2.241   5.170   4.894  0.4157  0.9947  0.3627
13305TIP3    H261407   2.307   5.154   4.759 -0.3880 -0.9310  0.1834
13306TIP3   OH261408   6.545   4.213  14.919  0.2947  0.1802  0.1913
13306TIP3    H161409   6.470   4.270  14.932  1.0166  0.5220  3.2465
13306TIP3    H261410   6.617   4.258  14.962  1.5778 -1.5521 -0.0998
13307TIP3   OH261411   2.155   4.691  16.407 -0.4287 -0.0187  0.2023
13307TIP3    H161412   2.187   4.651  16.327  0.4634 -0.9064  0.9895
13307TIP3    H261413   2.227   4.748  16.436  0.3922 -1.7996  1.8231
13308TIP3   OH261414   2.584   4.578  15.850  0.5564 -0.1763 -0.1473
13308TIP3    H161415   2.532   4.502  15.876  1.2340 -1.0035 -1.1573
13308TIP3    H261416   2.562   4.591  15.758  4.0159 -2.1250 -1.3265
13309TIP3   OH261417   4.306   6.233  12.680  0.0906  0.1533  0.3039
13309TIP3    H161418   4.250   6.271  12.612 -0.9441 -2.4708 -0.3981
13309TIP3    H261419   4.253   6.238  12.760 -0.0899  0.0870  0.1893
13310TIP3   OH261420   2.899   5.599  14.261  0.3623 -0.1103  0.0497
13310TIP3    H161421   2.969   5.647  14.216 -1.1557  0.0228 -2.2326
13310TIP3    H261422   2.818   5.637  14.228 -0.8440 -2.9650 -0.4039
13311TIP3   OH261423   0.881   0.607  17.064  0.6039  0.1816 -0.3757
13311TIP3    H161424   0.968   0.628  17.099  0.3167  0.6202  0.0859
13311TIP3    H261425   0.866   0.673  16.996  0.4259  0.4066 -0.1186
13312TIP3   OH261426   3.374   5.425  10.935 -0.2307  0.4327 -0.8286
13312TIP3    H161427   3.427   5.350  10.960 -2.4544 -1.4890 -1.7354
13312TIP3    H261428   3.413   5.499  10.982  1.4931 -1.4074  0.7078
13313TIP3   OH261429   5.601   3.789   2.348 -0.2480 -0.4640  0.0767
13313TIP3    H161430   5.687   3.760   2.317  0.4601  1.3399  0.2810
13313TIP3    H261431   5.618   3.873   2.391 -2.5470  1.3458 -2.3935
13314TIP3   OH261432   1.278   2.325   3.675  0.2097 -0.0533  0.4077
13314TIP3    H161433   1.289   2.254   3.739 -1.9886 -0.1225  0.7425
13314TIP3    H261434   1.210   2.381   3.713 -0.1683  0.6360 -1.2554
13315TIP3   OH261435   2.306   2.614   2.231 -0.1863 -0.2094  0.3276
13315TIP3    H161436   2.252   2.665   2.292 -0.8006 -0.7075  0.2102
13315TIP3    H261437   2.322   2.532   2.276  0.2861 -0.1506  0.2663
13316TIP3   OH261438   4.385   0.321  15.560 -0.2524  0.4495 -0.9984
13316TIP3    H161439   4.406   0.393  15.502  1.8710  0.9329  0.3137
13316TIP3    H261440   4.467   0.273  15.570 -0.9721 -0.5439  0.3174
13317TIP3   OH261441   6.293   5.186   0.322  0.2884 -0.3788 -0.7598
13317TIP3    H161442   6.209   5.227   0.340 -0.3306 -2.2493  0.7688
13317TIP3    H261443   6.277   5.132   0.245  0.5210  0.4776 -1.4197
13318TIP3   OH261444   5.962   0.504   4.722 -0.3207  0.5102 -0.3005
13318TIP3    H161445   6.007   0.507   4.807  1.6659  1.5599 -1.3442
13318TIP3    H261446   5.936   0.595   4.707 -1.7625  0.1075 -0.2560
13319TIP3   OH261447   3.961   3.375   1.539  0.0613  0.0850 -0.3983
13319TIP3    H161448   3.989   3.418   1.458  0.3731 -1.7459 -1.2911
13319TIP3    H261449   3.886   3.322   1.513  1.5798 -2.3423 -0.0335
13320TIP3   OH261450   6.043   6.778  15.983 -0.2641  0.3248 -0.3255
13320TIP3    H161451   6.134   6.776  16.015 -0.4296 -0.0058  0.1402
13320TIP3    H261452   6.018   6.686  15.978 -0.7065  0.4318 -0.0695
13321TIP3   OH261453   3.926   5.685  13.165 -0.3066  0.0840  0.4041
13321TIP3    H161454   3.884   5.610  13.208 -1.2299  0.6147  0.4532
13321TIP3    H261455   3.989   5.718  13.229 -0.6037 -0.0528  0.7695
13322TIP3   OH261456   6.159   1.766   2.982 -0.0387 -0.0284 -0.0451
13322TIP3    H161457   6.216   1.699   3.020 -0.5805 -0.6850 -0.3771
13322TIP3    H261458   6.164   1.751   2.888  0.4896  0.9369 -0.1796
13323TIP3   OH261459   3.355   1.405  14.401  0.4598 -0.2153  0.5627
13323TIP3    H161460   3.298   1.482  14.399  0.7681  0.0067  0.0218
13323TIP3    H261461   3.296   1.330  14.394  0.1299 -0.0396  1.4775
13324TIP3   OH261462   2.797   4.548   0.444  0.2518  0.0423  0.1446
13324TIP3    H161463   2.810   4.514   0.533 -0.4796 -0.8401 -0.0847
13324TIP3    H261464   2.841   4.484   0.388 -0.6588 -0.2396 -0.2466
13325TIP3   OH261465   4.549   5.358   0.571 -0.0446 -0.4656 -0.2095
13325TIP3    H161466   4.483   5.324   0.632  0.8241 -0.6380  0.6547
13325TIP3    H261467   4.608   5.284   0.555 -0.4283 -0.5022 -1.4948
13326TIP3   OH261468   1.996   0.932   2.391 -0.1719 -0.4092 -0.1880
13326TIP3    H161469   2.007   0.910   2.299 -1.8839 -1.3857 -0.1741
13326TIP3    H261470   2.042   0.861   2.438  0.2158 -0.2170 -0.2770
13327TIP3   OH261471   0.856   4.010  14.806 -0.8006 -0.4033 -0.0260
13327TIP3    H161472   0.816   4.053  14.731 -0.0099  1.2326  0.4610
13327TIP3    H261473   0.809   3.926  14.814 -1.5543 -0.1626 -1.7158
13328TIP3   OH261474   5.617   0.187   5.963  0.3648  0.3484  0.3979
13328TIP3    H161475   5.593   0.121   5.898  1.0288 -0.9202  1.4241
13328TIP3    H261476   5.711   0.199   5.950  0.4196  0.3948  0.8536
13329TIP3   OH261477   5.414   1.285  12.953 -0.8650  0.1154  0.7079
13329TIP3    H161478   5.471   1.303  13.028 -2.1992  3.2726  1.0442
13329TIP3    H261479   5.468   1.232  12.894  3.3572  4.8583 -0.0599
13330TIP3   OH261480   3.213   5.554  16.177  0.2625 -0.5605  0.1137
13330TIP3    H161481   3.188   5.574  16.087 -0.4956 -0.1013  0.4161
13330TIP3    H261482   3.209   5.459  16.182 -0.1181 -0.5657 -0.2207
13331TIP3   OH261483   6.078   4.243   1.662  0.8066 -0.2151  0.1052
13331TIP3    H161484   6.090   4.148   1.655 -0.3155 -0.2621 -1.3446
13331TIP3    H261485   6.123   4.280   1.586 -0.7319  0.2157 -0.6334
13332TIP3   OH261486   0.255   5.194   3.446  0.6986  0.1951  0.1903
13332TIP3    H161487   0.198   5.141   3.502 -0.2832  1.7399  0.6684
13332TIP3    H261488   0.244   5.283   3.478  0.1706  1.1010 -2.4124
13333TIP3   OH261489   4.008   0.214   5.605 -0.4537 -0.0036  0.2284
13333TIP3    H161490   3.957   0.293   5.620  0.6027  0.8193 -0.4094
13333TIP3    H261491   3.966   0.170   5.531 -3.4109 -2.1184  3.0321
13334TIP3   OH261492   4.796   3.241   4.243 -0.3618 -0.5621  0.4006
13334TIP3    H161493   4.740   3.201   4.176  0.6017  0.8823 -1.3363
13334TIP3    H261494   4.866   3.177   4.257 -0.3525 -0.7075 -0.2848
13335TIP3   OH261495   0.288   2.044   4.764  0.0432  0.2110 -0.6462
13335TIP3    H161496   0.311   2.087   4.681 -0.3487  0.6858 -0.5078
13335TIP3    H261497   0.318   2.105   4.831 -1.0327  0.5287 -0.4522
13336TIP3   OH261498   4.387   1.515   4.911 -0.2480 -0.4017  0.0612
13336TIP3    H161499   4.310   1.497   4.858 -1.0687 -0.3024  1.2114
13336TIP3    H261500   4.461   1.492   4.855 -1.0536  1.0657 -1.6685
13337TIP3   OH261501   6.662   3.407   3.773 -0.0823  0.2867  0.3400
13337TIP3    H161502   6.679   3.360   3.854 -2.2494  0.4559  0.9198
13337TIP3    H261503   6.609   3.347   3.720  0.1612  0.6981 -0.3903
13338TIP3   OH261504   4.764   5.177   4.148 -0.2093 -0.3025  0.1284
13338TIP3    H161505   4.684   5.209   4.190 -0.0085 -1.1079  1.1381
13338TIP3    H261506   4.734   5.120   4.078 -0.5187 -1.0363  0.8551
13339TIP3   OH261507   1.200   5.581  15.666 -0.0955 -0.0881  0.1695
13339TIP3    H161508   1.136   5.554  15.731 -1.3992 -1.2631 -1.5577
13339TIP3    H261509   1.176   5.533  15.587  3.4823 -1.3087 -0.2841
13340TIP3   OH261510   2.462   2.930   5.723  0.0762 -0.2175  0.2881
13340TIP3    H161511   2.414   2.863   5.673  0.4134 -0.7909  0.7268
13340TIP3    H261512   2.531   2.881   5.768 -0.9339  0.0967  2.2470
13341TIP3   OH261513   5.901   2.393  13.096  0.8543  0.2501  0.0962
13341TIP3    H161514   5.925   2.315  13.047  1.6880 -0.0656  0.9906
13341TIP3    H261515   5.973   2.454  13.081  1.2029  0.0824  1.0730
13342TIP3   OH261516   6.389   4.947   5.565 -0.8372 -0.1730 -0.0920
13342TIP3    H161517   6.330   5.006   5.519 -1.3497 -0.7312 -0.1652
13342TIP3    H261518   6.343   4.928   5.647 -0.0743  0.5688  0.5077
13343TIP3   OH261519   3.641   3.892  16.104 -0.1922 -0.1462 -0.6022
13343TIP3    H161520   3.614   3.880  16.195  0.5861 -3.7748 -0.7900
13343TIP3    H261521   3.631   3.986  16.089  0.4681  0.6990  3.4834
13344TIP3   OH261522   6.398   0.405   1.224 -0.3972  0.3398 -0.3210
13344TIP3    H161523   6.436   0.472   1.281 -1.1061  0.5497 -0.0939
13344TIP3    H261524   6.463   0.394   1.154  1.1556 -0.9237  1.2436
13345TIP3   OH261525   0.527   3.650   3.022  0.3501  0.1746 -0.5812
13345TIP3    H161526   0.441   3.691   3.031  0.5530  0.0365  2.7449
13345TIP3    H261527   0.530   3.618   2.932 -2.9120  0.5220 -0.8565
13346TIP3   OH261528   1.699   0.711   5.901 -0.2889 -0.0002 -0.1795
13346TIP3    H161529   1.632   0.690   5.966 -1.2207  1.7166 -0.5317
13346TIP3    H261530   1.676   0.658   5.825 -0.3342 -0.5745  0.2332
13347TIP3   OH261531   2.019   4.221  15.211 -0.2963 -0.0880  0.0591
13347TIP3    H161532   2.039   4.313  15.230  0.4480 -0.2173 -0.0854
13347TIP3    H261533   2.004   4.219  15.116 -0.9807 -0.0010  0.1575
13348TIP3   OH261534   0.561   4.708  14.975  0.5414  0.0706  0.4434
13348TIP3    H161535   0.574   4.622  15.014  1.8246  0.2458  0.4262
13348TIP3    H261536   0.468   4.726  14.986  0.2791 -1.2908  0.5052
13349TIP3   OH261537   6.656   3.681   3.716 -0.0706  0.1499  0.1249
13349TIP3    H161538   6.648   3.588   3.738  1.5166 -0.3832 -1.4092
13349TIP3    H261539   6.721   3.683   3.646 -2.0953  2.1638 -1.7579
13350TIP3   OH261540   1.480   4.238   0.357 -0.5572  0.0688  0.3253
13350TIP3    H161541   1.563   4.196   0.382 -0.3804 -0.1184 -0.5411
13350TIP3    H261542   1.421   4.165   0.338 -1.1210  0.2000  1.5791
13351TIP3   OH261543   1.111   0.601   1.277  0.1050 -0.0416  0.6075
13351TIP3    H161544   1.145   0.530   1.223  0.2495  0.8868 -0.5354
13351TIP3    H261545   1.028   0.625   1.236  0.2406  0.7107  0.7637
13352TIP3   OH261546   5.883   4.106  12.690  0.1695  0.0583  0.5876
13352TIP3    H161547   5.831   4.026  12.680 -1.0926  0.7036  1.7934
13352TIP3    H261548   5.886   4.120  12.785 -0.4234  1.9605  0.3388
13353TIP3   OH261549   0.278   6.256  13.128 -0.1859 -0.1893  0.8605
13353TIP3    H161550   0.360   6.206  13.121 -0.0303  0.1919 -0.0784
13353TIP3    H261551   0.210   6.189  13.132 -0.0220 -0.5165 -0.9860
13354TIP3   OH261552   2.211   0.969   2.675  0.2979  0.5702  0.6195
13354TIP3    H161553   2.216   0.878   2.648 -1.9562  1.2340 -2.3313
13354TIP3    H261554   2.265   1.016   2.611 -0.3484  1.5378  0.7741
13355TIP3   OH261555   3.665   1.897  11.911  0.4274 -0.0561 -0.0476
13355TIP3    H161556   3.665   1.802  11.912 -0.6790 -0.0625 -0.0552
13355TIP3    H261557   3.620   1.921  11.830  2.0504  0.4839 -0.8181
13356TIP3   OH261558   0.214   0.870   4.872 -0.2045 -0.0447  0.2374
13356TIP3    H161559   0.281   0.832   4.929  0.1491 -0.5478 -0.4994
13356TIP3    H261560   0.238   0.962   4.865  0.8233 -0.3523 -0.5626
13357TIP3   OH261561   0.627   3.203   0.104 -0.0836 -0.5539  0.1470
13357TIP3    H161562   0.686   3.203   0.028 -0.5937 -0.7011 -0.2489
13357TIP3    H261563   0.679   3.165   0.174  0.7723  0.6091  0.1716
13358TIP3   OH261564   6.338   5.372  16.221  0.5107 -0.5314 -0.1849
13358TIP3    H161565   6.277   5.311  16.263  0.9809  0.1287  1.4660
13358TIP3    H261566   6.284   5.449  16.201 -0.1890 -1.5938 -2.6659
13359TIP3   OH261567   1.176   4.035  12.969 -0.5429 -0.0970 -0.8045
13359TIP3    H161568   1.229   4.022  13.048 -2.1046  0.8343  0.4291
13359TIP3    H261569   1.155   4.128  12.969 -2.5391 -0.5211 -1.0173
13360TIP3   OH261570   2.559   1.417   1.267 -0.2484 -0.4543 -0.0584
13360TIP3    H161571   2.521   1.499   1.298 -0.0384 -0.9382  1.5381
13360TIP3    H261572   2.653   1.428   1.280 -0.3103 -1.3964  1.3510
13361TIP3   OH261573   1.690   3.002   2.752 -0.0554 -0.0870 -0.0661
13361TIP3    H161574   1.642   2.968   2.827  0.6692  1.3469  1.0910
13361TIP3    H261575   1.650   3.087   2.733  0.9224  0.3771 -0.1340
13362TIP3   OH261576   5.552   0.219   1.718 -0.3955  0.0107 -0.1470
13362TIP3    H161577   5.533   0.202   1.626 -1.7944  1.3839 -0.1376
13362TIP3    H261578   5.470   0.197   1.764  0.3939 -0.9976  0.8185
13363TIP3   OH261579   4.187   4.760   4.319 -0.3878  0.2884 -0.0946
13363TIP3    H161580   4.281   4.777   4.308 -0.4485  1.0751  0.6277
13363TIP3    H261581   4.165   4.704   4.244  0.5409  0.5360 -0.5665
13364TIP3   OH261582   1.254   2.149  13.442  0.1096 -0.0837  0.1845
13364TIP3    H161583   1.326   2.168  13.502  0.5571 -0.5393 -0.2024
13364TIP3    H261584   1.221   2.064  13.469 -2.7908  1.7827  2.7817
13365TIP3   OH261585   5.270   5.102   5.363  0.3547  0.3455  0.1477
13365TIP3    H161586   5.295   5.132   5.275 -1.4777  0.1752 -0.4467
13365TIP3    H261587   5.353   5.091   5.409  1.4139 -0.6985 -1.9394
13366TIP3   OH261588   0.012   6.337   4.913 -0.1693  0.1869  0.7798
13366TIP3    H161589  -0.060   6.314   4.972 -0.6456 -0.9031 -0.2159
13366TIP3    H261590  -0.030   6.378   4.838  0.5153  2.5055  1.6156
13367TIP3   OH261591   0.115   2.380   0.350 -0.1651 -0.1301 -0.2391
13367TIP3    H161592   0.090   2.292   0.378 -2.3363  0.3366 -0.6374
13367TIP3    H261593   0.053   2.402   0.280 -0.7341  2.3774  0.9845
13368TIP3   OH261594   4.631   6.251   1.459 -0.3069  0.0609 -0.0914
13368TIP3    H161595   4.637   6.159   1.487  0.3652  0.8153  2.3002
13368TIP3    H261596   4.543   6.259   1.423 -0.6501 -1.3411  0.3989
13369TIP3   OH261597   5.574   4.170  12.050  0.0443  0.0889 -0.2988
13369TIP3    H161598   5.605   4.089  12.092 -0.4867 -0.3424 -0.7288
13369TIP3    H261599   5.481   4.154  12.034  0.2693  0.1936 -1.7677
13370TIP3   OH261600   5.730   1.631  13.138  0.1552 -0.7037  0.6646
13370TIP3    H161601   5.707   1.705  13.083  2.2063  0.6921  1.6561
13370TIP3    H261602   5.649   1.611  13.186 -0.3100  1.0910  0.6412
13371TIP3   OH261603   2.642   4.784  17.027  0.9468  0.1210 -0.5641
13371TIP3    H161604   2.637   4.717  16.958  2.3912  0.1261 -0.6885
13371TIP3    H261605   2.552   4.793  17.058  0.8168 -2.2884 -0.1661
13372TIP3   OH261606   4.832   0.413   3.428  0.1545 -0.0500 -0.2026
13372TIP3    H161607   4.801   0.381   3.343  2.0788 -1.5408 -0.3592
13372TIP3    H261608   4.757   0.401   3.486 -0.8523  0.0586 -1.4502
13373TIP3   OH261609   2.170   5.121  12.285  0.0838 -0.3227  0.1711
13373TIP3    H161610   2.262   5.094  12.282  0.2716  0.5258 -2.3009
13373TIP3    H261611   2.123   5.040  12.304  1.0155 -1.6635 -2.8562
13374TIP3   OH261612   0.498   0.081  13.608 -0.0393 -0.4922  0.5331
13374TIP3    H161613   0.529   0.121  13.527  0.5943 -1.8128  0.1029
13374TIP3    H261614   0.567   0.019  13.632 -0.9372 -1.2317  1.2389
13375TIP3   OH261615   5.194   0.678   1.363 -0.2180  0.3217  0.2313
13375TIP3    H161616   5.143   0.629   1.427  0.8336  0.1515  0.9639
13375TIP3    H261617   5.264   0.719   1.415 -0.1760  1.3293 -0.5990
13376TIP3   OH261618   0.086   1.676   2.784 -0.7331 -0.3775 -0.4019
13376TIP3    H161619   0.081   1.715   2.697  0.9993 -0.0106 -0.3555
13376TIP3    H261620   0.171   1.705   2.819 -2.8155  2.2187  2.7569
13377TIP3   OH261621   4.696   5.831  12.446 -0.0722  0.0186  0.1401
13377TIP3    H161622   4.716   5.907  12.500  0.5337  0.5170 -0.7683
13377TIP3    H261623   4.729   5.756  12.496  0.6048  0.4848  0.4013
13378TIP3   OH261624   6.047   2.402   4.101  0.3091 -0.2246  0.4495
13378TIP3    H161625   5.993   2.359   4.036  0.1412 -0.2430  0.6013
13378TIP3    H261626   6.082   2.479   4.056  0.1345 -0.1970  0.3620
13379TIP3   OH261627   0.238   4.556  14.228 -0.2069 -0.6675  0.3851
13379TIP3    H161628   0.167   4.614  14.199 -0.8585 -1.6502 -0.0094
13379TIP3    H261629   0.267   4.594  14.311  0.6438  1.2831 -0.8031
13380TIP3   OH261630   2.064   0.739  13.570 -0.1797 -0.3018  0.3397
13380TIP3    H161631   2.040   0.764  13.659 -0.8261  1.4483 -0.3084
13380TIP3    H261632   2.099   0.819  13.531 -1.0982 -0.7156 -1.3694
13381TIP3   OH261633   3.709   2.212   3.600 -0.1759 -0.7613 -0.6271
13381TIP3    H161634   3.695   2.218   3.694  0.2750  0.3342 -0.6174
13381TIP3    H261635   3.635   2.259   3.562  1.4054  1.8109 -0.6888
13382TIP3   OH261636   2.425   4.886  12.919 -0.0274  0.0431 -0.0096
13382TIP3    H161637   2.479   4.945  12.972 -2.2093  1.3823  0.7790
13382TIP3    H261638   2.425   4.925  12.831 -1.3266  1.1918  0.4699
13383TIP3   OH261639   3.858   2.130   2.873 -0.0460 -0.4823 -0.0711
13383TIP3    H161640   3.849   2.089   2.959  0.1305  0.0340  0.1941
13383TIP3    H261641   3.948   2.111   2.847  0.6258  1.3125  0.8719
13384TIP3   OH261642   3.054   1.218  16.203 -0.2522 -0.3672  0.0159
13384TIP3    H161643   2.976   1.172  16.234 -0.7285  1.7838  2.1271
13384TIP3    H261644   3.021   1.300  16.167  0.7493 -0.8533 -2.0601
13385TIP3   OH261645   4.492   2.865   3.055  0.2655 -0.3434 -0.0044
13385TIP3    H161646   4.583   2.888   3.034  0.2372 -0.0480  0.2000
13385TIP3    H261647   4.475   2.787   3.003  1.1943 -1.4056  1.2366
13386TIP3   OH261648   3.909   1.938   2.010  0.3198  0.2840 -0.2343
13386TIP3    H161649   3.930   1.844   2.011  0.3536  0.2701 -1.4743
13386TIP3    H261650   3.850   1.950   2.083  0.2932 -0.7194 -0.0797
13387TIP3   OH261651   4.219   3.205  13.824  0.1483  0.1411 -0.1941
13387TIP3    H161652   4.260   3.220  13.909  1.2488 -1.2185 -0.4613
13387TIP3    H261653   4.200   3.111  13.823  0.6310  0.0466 -1.6368
13388TIP3   OH261654   2.611   3.565  16.513  0.0426  0.2870 -0.3216
13388TIP3    H161655   2.551   3.608  16.574  2.0355  1.5694  0.8054
13388TIP3    H261656   2.582   3.474  16.511  0.0225  0.1593  2.7173
13389TIP3   OH261657   4.133   4.340  11.076 -0.0739 -0.0645 -0.1799
13389TIP3    H161658   4.175   4.394  11.143  0.3516 -0.4179 -0.1587
13389TIP3    H261659   4.073   4.284  11.125 -0.5479  0.4156 -0.2057
13390TIP3   OH261660   5.809   4.147  15.094  0.0686 -0.2492 -0.5228
13390TIP3    H161661   5.747   4.209  15.135  0.4760 -1.9520  2.8436
13390TIP3    H261662   5.757   4.069  15.078  0.1203  0.1209 -2.6372
13391TIP3   OH261663   3.819   0.867  12.942 -0.0983  0.2376 -0.2449
13391TIP3    H161664   3.847   0.944  12.893 -0.3745  0.5896  0.1526
13391TIP3    H261665   3.731   0.848  12.910  0.1320 -0.1765 -0.6535
13392TIP3   OH261666   1.181   0.680  11.990 -0.8543 -0.2787 -0.2298
13392TIP3    H161667   1.150   0.704  11.902  0.0188 -0.3659 -0.5631
13392TIP3    H261668   1.223   0.595  11.978  0.4706  0.3359  0.0225
13393TIP3   OH261669   6.250   2.844   3.393 -0.6195 -0.1332 -0.2787
13393TIP3    H161670   6.205   2.913   3.345  0.3755 -1.3496 -3.0983
13393TIP3    H261671   6.211   2.845   3.480 -1.6304  2.9858 -0.7210
13394TIP3   OH261672   0.772   6.734  16.925  0.5249  0.3536 -0.2305
13394TIP3    H161673   0.722   6.715  17.004  1.2938  0.2721  0.2487
13394TIP3    H261674   0.790   6.828  16.930  0.9434  0.2686 -0.0825
13395TIP3   OH261675   4.993   3.461  13.989  0.1176  0.3586 -0.1535
13395TIP3    H161676   4.897   3.460  13.988  0.1074  0.3921  0.5061
13395TIP3    H261677   5.018   3.434  13.900 -0.4988  0.0052 -0.2262
13396TIP3   OH261678   1.995   0.772  14.950  1.0679 -0.2920  0.8112
13396TIP3    H161679   2.034   0.734  15.029 -0.9052 -0.7002  1.6380
13396TIP3    H261680   1.902   0.783  14.973  1.0484  2.4043 -0.4120
13397TIP3   OH261681   0.215   6.742  12.827 -0.1700 -0.0146 -0.3784
13397TIP3    H161682   0.170   6.739  12.911 -0.3320 -1.0311 -0.5004
13397TIP3    H261683   0.255   6.829  12.825 -0.2810  0.0722  0.6894
13398TIP3   OH261684   6.699   5.507  13.120 -0.3498 -0.1277 -0.1178
13398TIP3    H161685   6.779   5.503  13.068 -0.7348 -0.0653 -0.7258
13398TIP3    H261686   6.686   5.418  13.153 -0.0206 -0.1323 -0.0039
13399TIP3   OH261687   0.302   5.573   1.643  0.2861  0.5770 -0.1633
13399TIP3    H161688   0.224   5.527   1.674  0.5889 -0.1099 -0.4278
13399TIP3    H261689   0.272   5.664   1.632 -0.3081  0.4526  0.3463
13400TIP3   OH261690   5.456   4.423  15.814  0.4891 -0.3605 -0.5054
13400TIP3    H161691   5.371   4.452  15.846  0.9507  0.5306 -0.0387
13400TIP3    H261692   5.437   4.357  15.748 -0.5166 -1.6951  1.0789
13401TIP3   OH261693   1.250   3.118  15.653  0.0865 -0.3112 -0.0548
13401TIP3    H161694   1.245   3.036  15.603  1.8810 -1.3441  1.3992
13401TIP3    H261695   1.334   3.156  15.627 -0.6187  0.9709 -0.5216
13402TIP3   OH261696   1.919   3.931   0.907 -0.0933 -0.2429 -0.0325
13402TIP3    H161697   1.885   4.019   0.923  1.1243  0.2911 -0.4280
13402TIP3    H261698   2.014   3.940   0.910  0.0456 -2.0723  2.8721
13403TIP3   OH261699   5.752   3.349   3.153  0.4126 -0.0725 -0.0687
13403TIP3    H161700   5.800   3.287   3.207  1.8028 -0.1386 -1.3279
13403TIP3    H261701   5.792   3.341   3.066 -1.1229  0.7138 -0.8724
13404TIP3   OH261702   5.436   2.974   2.896 -0.1264 -0.1326  0.0340
13404TIP3    H161703   5.445   2.952   2.804  1.1100 -1.9776  0.5614
13404TIP3    H261704   5.432   3.070   2.898 -1.1735 -0.1141 -1.9881
13405TIP3   OH261705   0.709   2.512  15.223 -0.3057  0.4265 -0.7341
13405TIP3    H161706   0.722   2.451  15.296  0.4390 -1.5817 -2.4753
13405TIP3    H261707   0.618   2.499  15.198  0.0048 -0.3864 -1.4542
13406TIP3   OH261708   0.477   2.993  13.613 -0.2163 -0.3132 -0.1519
13406TIP3    H161709   0.418   3.066  13.598 -1.9936 -1.4382  1.1709
13406TIP3    H261710   0.475   2.979  13.708 -1.0784 -2.9940 -0.5185
13407TIP3   OH261711   1.142   0.298  14.619 -0.0824 -0.5911 -0.2797
13407TIP3    H161712   1.150   0.378  14.671 -0.9555 -0.6959  0.0238
13407TIP3    H261713   1.219   0.246  14.643 -0.2512 -0.4524  0.5929
13408TIP3   OH261714   6.525   6.466   1.719 -0.6005  0.2705 -0.3738
13408TIP3    H161715   6.498   6.485   1.629 -0.2126  0.8139 -0.3799
13408TIP3    H261716   6.516   6.371   1.728 -1.2096  0.2852 -0.7970
13409TIP3   OH261717   0.913   1.455  14.433  0.5063 -0.1707  0.0402
13409TIP3    H161718   0.860   1.477  14.510  1.0147 -1.6129  0.8191
13409TIP3    H261719   0.927   1.360  14.440  2.0725 -0.0179 -0.8593
13410TIP3   OH261720   4.135   3.612   0.446 -0.1199 -0.2557 -0.7524
13410TIP3    H161721   4.049   3.580   0.472  1.6311 -1.3730  4.1111
13410TIP3    H261722   4.185   3.532   0.427  0.5800  0.2592 -1.1093
13411TIP3   OH261723   0.411   4.915   0.340 -0.1388  0.0439  0.2781
13411TIP3    H161724   0.488   4.938   0.393 -0.6700 -0.8811  1.4643
13411TIP3    H261725   0.393   4.824   0.363 -0.9205 -0.0868 -0.8347
13412TIP3   OH261726   5.581   6.257   5.280 -0.7877 -0.0376 -0.3250
13412TIP3    H161727   5.663   6.301   5.302 -0.9380 -0.6079  1.4228
13412TIP3    H261728   5.576   6.264   5.184  2.3393 -1.8146 -0.6921
13413TIP3   OH261729   2.888   0.742   3.690  0.1308  0.1961  0.3676
13413TIP3    H161730   2.968   0.692   3.707  1.7886  3.0234  1.2919
13413TIP3    H261731   2.908   0.795   3.613 -0.5515  1.5313  1.0904
13414TIP3   OH261732   2.909   4.852  12.875  0.0146 -0.3042 -0.3908
13414TIP3    H161733   2.913   4.843  12.971  1.2613  0.8411 -0.3154
13414TIP3    H261734   3.001   4.848  12.847 -0.3539 -0.6978 -1.5417
13415TIP3   OH261735   4.348   2.734  10.743  0.2011 -0.1622 -0.8863
13415TIP3    H161736   4.375   2.652  10.783 -0.1772 -0.0682 -0.4340
13415TIP3    H261737   4.430   2.773  10.711  0.8801  0.9987  2.1311
13416TIP3   OH261738   0.707   5.498  15.716 -0.3568  0.3429 -0.7339
13416TIP3    H161739   0.779   5.439  15.695  0.3118  0.8453  0.0827
13416TIP3    H261740   0.643   5.485  15.646 -0.4647 -1.7236 -0.2777
13417TIP3   OH261741   1.204   3.732   0.323  0.3053 -0.3790 -0.2585
13417TIP3    H161742   1.138   3.763   0.260 -0.9405 -0.8903  0.7790
13417TIP3    H261743   1.181   3.775   0.405  2.5175  1.0490 -0.3294
13418TIP3   OH261744   1.938   0.813  15.639 -0.2239 -0.2530 -0.4802
13418TIP3    H161745   1.883   0.857  15.573  1.4554  0.0668 -1.6903
13418TIP3    H261746   2.012   0.873  15.652 -0.3442 -0.5053  1.4208
13419TIP3   OH261747   5.233   0.975  11.283 -0.6696  0.2688 -0.3347
13419TIP3    H161748   5.188   0.986  11.367 -1.3164  1.5700 -0.8472
13419TIP3    H261749   5.315   1.022  11.293 -0.0701 -0.8398  0.0760
13420TIP3   OH261750   2.066   1.014   0.485  0.2096 -0.0824 -0.6165
13420TIP3    H161751   2.000   0.951   0.515 -0.8263 -0.1825 -2.9954
13420TIP3    H261752   2.016   1.092   0.463  1.3392  1.1336  0.9535
13421TIP3   OH261753   2.485   3.903   1.985 -0.1263  0.0820 -0.5766
13421TIP3    H161754   2.433   3.875   2.060  1.8413 -1.0155  0.4245
13421TIP3    H261755   2.452   3.852   1.912 -0.8901 -0.1308 -0.0863
13422TIP3   OH261756   5.355   4.532   5.436  0.2381 -0.2357 -0.0811
13422TIP3    H161757   5.373   4.622   5.410 -1.9560 -0.0438 -1.0657
13422TIP3    H261758   5.397   4.479   5.368 -0.3511  0.1129 -0.7223
13423TIP3   OH261759   3.336   4.618  15.548  0.2721 -0.5920  0.0084
13423TIP3    H161760   3.400   4.650  15.612 -0.2713 -0.7679  0.6477
13423TIP3    H261761   3.346   4.523  15.550 -0.8068 -0.6989  0.9700
13424TIP3   OH261762   1.455   3.390   6.286  0.3423  0.4128  0.6032
13424TIP3    H161763   1.510   3.384   6.364  0.0041  1.1070  0.9014
13424TIP3    H261764   1.396   3.315   6.292 -0.0027  0.7283  1.2710
13425TIP3   OH261765   4.470   4.271  12.179 -0.3770 -0.1909  0.4164
13425TIP3    H161766   4.375   4.281  12.182 -0.4028 -0.1766 -0.2943
13425TIP3    H261767   4.500   4.299  12.265 -0.8833  1.3475  0.1136
13426TIP3   OH261768   4.875   0.693   3.390 -0.1533  0.3503  0.4209
13426TIP3    H161769   4.787   0.731   3.397  0.0504  0.6766  1.2607
13426TIP3    H261770   4.862   0.599   3.402 -0.8535 -0.0603 -3.1248
13427TIP3   OH261771   1.275   0.389  15.064 -0.2241 -0.3261  0.4975
13427TIP3    H161772   1.323   0.468  15.042  2.1406 -1.8568  0.0087
13427TIP3    H261773   1.321   0.353  15.139 -1.4598 -1.0956  0.9015
13428TIP3   OH261774   1.559   3.172  11.788 -0.2281 -0.5788  0.2889
13428TIP3    H161775   1.542   3.130  11.704 -1.9335 -0.2276  0.4362
13428TIP3    H261776   1.489   3.238  11.796  1.9050  1.7272  0.4271
13429TIP3   OH261777   2.717   1.060   3.071 -0.1458  0.4314 -0.4057
13429TIP3    H161778   2.738   1.090   2.983  1.6052  0.0071 -0.1512
13429TIP3    H261779   2.751   1.128   3.129  0.5273 -0.2420  0.0132
13430TIP3   OH261780   3.231   1.587  15.295  0.4081 -0.5067  0.4515
13430TIP3    H161781   3.310   1.612  15.247  0.6969 -0.0792  1.1324
13430TIP3    H261782   3.220   1.656  15.361 -1.7936  0.6169 -1.0430
13431TIP3   OH261783   1.366   0.280  16.370  0.3726  0.2900 -0.1386
13431TIP3    H161784   1.351   0.329  16.289  0.2102  0.0124 -0.2756
13431TIP3    H261785   1.442   0.224  16.351 -1.1098 -1.5183 -0.8863
13432TIP3   OH261786   3.753   5.734   2.744  0.4191  0.3938  0.5151
13432TIP3    H161787   3.780   5.763   2.832 -0.6327  0.8179  0.6981
13432TIP3    H261788   3.719   5.813   2.702  3.3514  0.7923 -1.2399
13433TIP3   OH261789   6.291   0.267   2.339 -0.2155 -0.4292 -0.3739
13433TIP3    H161790   6.242   0.214   2.402  0.2172 -0.8426 -0.3865
13433TIP3    H261791   6.237   0.346   2.328  0.1661  0.0846  1.2561
13434TIP3   OH261792   2.253   1.457   3.158 -0.3979 -0.1539  0.0027
13434TIP3    H161793   2.287   1.499   3.237 -1.3595  1.4585 -0.4218
13434TIP3    H261794   2.279   1.515   3.086  0.6318 -1.7065 -0.9055
13435TIP3   OH261795   2.168   6.777   0.079 -0.0388  0.0910  0.3851
13435TIP3    H161796   2.170   6.684   0.054 -1.1049  0.0021  0.6233
13435TIP3    H261797   2.144   6.823  -0.001  1.7957  0.2938 -0.0701
13436TIP3   OH261798   3.905   6.522  14.615  0.4842  0.1356 -0.3922
13436TIP3    H161799   3.990   6.561  14.592 -0.4958  1.8418 -1.2279
13436TIP3    H261800   3.912   6.431  14.586  2.2308  0.0853  0.0888
13437TIP3   OH261801   0.079   3.129  13.017  0.1016  0.3613 -0.0015
13437TIP3    H161802   0.096   3.054  12.959  1.8530  0.0247  0.9280
13437TIP3    H261803   0.147   3.124  13.083 -1.0624  1.5588  1.3081
13438TIP3   OH261804   6.204   1.995  11.460  0.4839  0.0315  0.4715
13438TIP3    H161805   6.115   1.996  11.494  0.2230 -0.9020 -0.1526
13438TIP3    H261806   6.255   2.043  11.524 -0.3690  0.0767  1.1243
13439TIP3   OH261807   5.395   6.564  14.874  0.2783  0.3193 -0.0060
13439TIP3    H161808   5.448   6.625  14.822  1.5560 -0.4698  0.3626
13439TIP3    H261809   5.370   6.495  14.813  0.4735  0.1949  0.0554
13440TIP3   OH261810   4.398   4.880  12.744 -0.4073 -0.3250  0.8636
13440TIP3    H161811   4.323   4.828  12.770 -0.6571  0.2309  1.2718
13440TIP3    H261812   4.364   4.940  12.677 -0.4839  0.3537  1.4962
13441TIP3   OH261813   2.609   3.186   2.887  0.0531  0.1451 -0.0730
13441TIP3    H161814   2.651   3.099   2.890  0.0938  0.1253 -1.0848
13441TIP3    H261815   2.516   3.168   2.898  0.3148  0.1989  2.3378
13442TIP3   OH261816   1.031   0.403  11.963 -0.2401  0.2998  0.0241
13442TIP3    H161817   0.959   0.405  12.025 -0.5654 -2.1939 -0.2127
13442TIP3    H261818   0.998   0.450  11.886 -1.1814  0.1943  0.3595
13443TIP3   OH261819   3.786   2.242  11.473 -0.1829 -0.5997 -0.0410
13443TIP3    H161820   3.691   2.252  11.460 -0.1702  0.2165  0.4119
13443TIP3    H261821   3.816   2.195  11.396 -0.8359 -0.1172 -0.6026
13444TIP3   OH261822   6.517   3.567   2.524 -0.1770 -0.0975  0.0051
13444TIP3    H161823   6.584   3.501   2.505 -0.7815 -0.2363 -1.6203
13444TIP3    H261824   6.561   3.628   2.584  1.7253  0.3193 -1.7491
13445TIP3   OH261825   4.436   4.018  17.117 -0.3519  0.2764  0.4707
13445TIP3    H161826   4.345   4.011  17.144 -1.1619  0.4522 -2.0840
13445TIP3    H261827   4.435   4.002  17.022  2.2690  0.2475  0.3878
13446TIP3   OH261828   2.773   0.197  11.767 -0.1177 -1.0888 -0.2902
13446TIP3    H161829   2.821   0.190  11.850 -0.3329  1.2726  0.0692
13446TIP3    H261830   2.695   0.144  11.780  0.3115 -1.5075  0.6748
13447TIP3   OH261831   3.021   3.118  15.827  0.0175 -0.0102  0.7832
13447TIP3    H161832   3.079   3.150  15.758  0.7767  1.2502  2.0035
13447TIP3    H261833   3.065   3.140  15.909 -0.9109 -1.4278  1.6973
13448TIP3   OH261834   4.052   2.923   1.607 -0.3485  0.2214  0.2570
13448TIP3    H161835   4.017   2.960   1.525 -0.4219  1.0005  0.6379
13448TIP3    H261836   3.982   2.936   1.671 -1.4164 -2.9200 -0.1849
13449TIP3   OH261837   5.195   3.985   3.089 -0.0808  0.3013  0.1455
13449TIP3    H161838   5.233   4.069   3.061  0.9628 -0.2484 -0.0966
13449TIP3    H261839   5.204   3.986   3.184  3.2659 -1.0972 -0.1050
13450TIP3   OH261840   6.608   1.502   5.726 -0.4319  0.6634  0.8584
13450TIP3    H161841   6.521   1.532   5.752 -1.0768  0.3748 -0.8601
13450TIP3    H261842   6.594   1.412   5.695  0.1924  1.1208 -0.8204
13451TIP3   OH261843   4.659   4.839  15.134  0.1575 -0.2956  0.4756
13451TIP3    H161844   4.620   4.784  15.202 -1.3215 -0.5324 -0.5340
13451TIP3    H261845   4.706   4.907  15.182 -1.8420  0.2339  1.7460
13452TIP3   OH261846   3.920   0.964  11.421 -0.4358  0.0919 -0.3634
13452TIP3    H161847   3.931   0.870  11.438 -1.2300  0.0033 -0.3185
13452TIP3    H261848   3.840   0.969  11.369  0.0860  0.6738 -1.1177
13453TIP3   OH261849   5.403   5.927  14.211 -0.3728  0.1207 -0.4837
13453TIP3    H161850   5.383   5.849  14.262  0.0884  0.8793  0.8650
13453TIP3    H261851   5.347   5.996  14.248 -0.4470  0.5470 -1.3673
13454TIP3   OH261852   2.651   2.472  13.938 -0.6867  0.5462 -0.0253
13454TIP3    H161853   2.566   2.431  13.922 -0.9840  1.2776 -0.3648
13454TIP3    H261854   2.674   2.513  13.854  0.1666  0.0462 -0.0384
13455TIP3   OH261855   1.897   6.720  10.388  0.1951 -0.0307  0.4392
13455TIP3    H161856   1.980   6.712  10.341  0.4070  0.2572  0.7546
13455TIP3    H261857   1.856   6.634  10.380 -0.1000  0.2193 -0.8713
13456TIP3   OH261858   5.071   5.085   3.958  0.3875  0.0101 -0.3486
13456TIP3    H161859   5.016   5.154   3.922 -0.2804  0.1438  0.9029
13456TIP3    H261860   5.156   5.127   3.973  1.0699 -0.3632 -2.8832
13457TIP3   OH261861   4.675   6.015   2.886 -0.3028  0.2614  0.3929
13457TIP3    H161862   4.716   6.091   2.927  2.1308 -0.5165 -0.4936
13457TIP3    H261863   4.731   5.941   2.911 -1.3464 -0.8965 -0.6060
13458TIP3   OH261864   4.059   3.925  10.088  0.1978 -0.4918 -0.0423
13458TIP3    H161865   4.021   3.984  10.023 -2.7573 -1.4201  0.7263
13458TIP3    H261866   4.006   3.941  10.167  2.0946 -1.1748  1.3919
13459TIP3   OH261867   0.808   1.712   3.776 -0.3748 -0.9697  0.0560
13459TIP3    H161868   0.785   1.620   3.789  0.7863 -1.1375  1.1051
13459TIP3    H261869   0.904   1.713   3.775 -0.3589  0.3224  0.8780
13460TIP3   OH261870   1.573   4.595   1.497 -0.1590  0.0939  0.3568
13460TIP3    H161871   1.594   4.668   1.556 -1.6646  0.3639  0.5808
13460TIP3    H261872   1.555   4.637   1.413  2.0522 -0.2971 -0.3466
13461TIP3   OH261873   6.084   0.183   0.413  0.2481  0.5640  0.2303
13461TIP3    H161874   6.011   0.172   0.473 -2.2496  0.8371 -2.6354
13461TIP3    H261875   6.099   0.096   0.377 -0.8885  1.1089 -1.6205
13462TIP3   OH261876   5.537   2.558   3.476 -1.0273 -0.3576  0.4365
13462TIP3    H161877   5.442   2.562   3.491 -1.0239 -1.3029  0.7418
13462TIP3    H261878   5.569   2.643   3.505 -1.8911  0.3004 -0.4951
13463TIP3   OH261879   5.368   0.718  15.757 -0.0678 -0.3515  0.3008
13463TIP3    H161880   5.370   0.781  15.685  0.3560 -2.1601 -1.3100
13463TIP3    H261881   5.451   0.731  15.803 -0.1049  0.4442  0.1566
13464TIP3   OH261882   2.529   3.983   2.587  0.1187  0.2677  0.0263
13464TIP3    H161883   2.579   3.958   2.665  0.2509 -4.9706 -1.5517
13464TIP3    H261884   2.438   3.968   2.611  0.0502  0.1913 -0.2759
13465TIP3   OH261885   0.187   0.915   3.825  0.1433 -0.6739 -0.1981
13465TIP3    H161886   0.130   0.988   3.802  1.5573  0.3571 -0.5283
13465TIP3    H261887   0.139   0.866   3.891 -0.5787  0.9011  0.4535
13466TIP3   OH261888   2.603   6.307   6.291  0.2211  0.2116 -0.4038
13466TIP3    H161889   2.557   6.291   6.374  0.0114  1.2165 -0.3249
13466TIP3    H261890   2.693   6.324   6.317 -0.1982  2.2422 -0.2385
13467TIP3   OH261891   6.423   4.618   2.599  0.2091  0.0322  0.6673
13467TIP3    H161892   6.498   4.600   2.543  1.2781  2.4738  1.2695
13467TIP3    H261893   6.435   4.559   2.674  2.1593  1.2038  1.3084
13468TIP3   OH261894   0.567   1.034   3.521  0.5140  0.0417  0.1288
13468TIP3    H161895   0.473   1.044   3.535  0.3126 -1.1324 -0.3601
13468TIP3    H261896   0.605   1.053   3.607 -0.1690  0.5599  0.3215
13469TIP3   OH261897   6.230   6.734   0.846  0.5151 -0.0338  0.1790
13469TIP3    H161898   6.156   6.701   0.898  0.6772 -1.4110 -0.4268
13469TIP3    H261899   6.234   6.827   0.866  0.0841 -0.3918  2.0261
13470TIP3   OH261900   1.107   5.864   0.319 -0.4309  0.2948 -0.6896
13470TIP3    H161901   1.059   5.789   0.353 -0.3839 -0.5453 -2.3973
13470TIP3    H261902   1.042   5.913   0.269  0.0866  0.0553 -1.6079
13471TIP3   OH261903   4.013   0.059   2.913 -0.3353  0.0214  0.3385
13471TIP3    H161904   3.995   0.153   2.903  0.1691 -0.1533 -2.7589
13471TIP3    H261905   3.931   0.017   2.888 -0.2432 -0.4112  0.7629
13472TIP3   OH261906   4.489   0.858   0.366  1.0576  0.3256  0.1589
13472TIP3    H161907   4.569   0.808   0.383  0.2624 -1.2346 -0.6634
13472TIP3    H261908   4.433   0.798   0.317  0.1875  2.1073 -1.0732
13473TIP3   OH261909   5.074   5.643   3.398  0.2962 -0.0512  0.1093
13473TIP3    H161910   5.063   5.548   3.398 -0.1150 -0.0043  0.1597
13473TIP3    H261911   5.153   5.658   3.449 -0.3017 -0.2926  1.1189
13474TIP3   OH261912   5.231   4.480  10.788 -0.3987  0.3943 -0.1476
13474TIP3    H161913   5.231   4.397  10.836  1.6244 -0.5655 -1.7432
13474TIP3    H261914   5.190   4.460  10.705 -0.7430  1.2294 -0.1884
13475TIP3   OH261915   1.769   6.469   1.609  0.2943 -0.0197  0.0085
13475TIP3    H161916   1.699   6.459   1.545 -0.0986 -2.8686  0.7881
13475TIP3    H261917   1.849   6.449   1.560  0.2977  0.7856 -0.3081
13476TIP3   OH261918   6.160   5.757   2.741 -0.1228  0.0678 -0.7803
13476TIP3    H161919   6.190   5.667   2.726 -0.3300 -0.0583 -0.4373
13476TIP3    H261920   6.096   5.772   2.671  0.2749  0.1180 -1.1323
13477TIP3   OH261921   5.541   1.277   2.862  0.3723  0.1612 -0.5186
13477TIP3    H161922   5.597   1.201   2.874  0.5522  0.3302 -0.2687
13477TIP3    H261923   5.580   1.324   2.788  1.1019  0.7584  0.2379
13478TIP3   OH261924   5.929   0.727   2.385  0.6693  0.5268 -0.3887
13478TIP3    H161925   6.013   0.707   2.426  0.9755  1.0962 -0.7221
13478TIP3    H261926   5.953   0.766   2.300  0.0520 -0.2557 -0.9209
13479TIP3   OH261927   6.558   3.436   0.102  0.2425  0.2659 -0.1493
13479TIP3    H161928   6.506   3.502   0.057 -0.6798  0.0252  0.5452
13479TIP3    H261929   6.587   3.479   0.183 -0.9905 -0.4033  0.6694
13480TIP3   OH261930   6.233   6.507   3.614  0.6572  0.2666  0.0600
13480TIP3    H161931   6.205   6.479   3.527  1.3318 -0.2200 -0.0066
13480TIP3    H261932   6.158   6.556   3.650  0.4356  0.5885 -0.8436
13481TIP3   OH261933   1.155   6.692   3.135 -0.4840  0.0861  0.4742
13481TIP3    H161934   1.085   6.629   3.151 -0.8786  1.1656  3.2088
13481TIP3    H261935   1.120   6.749   3.067 -1.8048 -0.0748  1.0014
13482TIP3   OH261936   6.300   2.259  16.737  0.1863  0.3767  0.6548
13482TIP3    H161937   6.226   2.263  16.676  0.3656  0.9039  0.4630
13482TIP3    H261938   6.260   2.261  16.824 -0.0186  0.7795  0.5519
13483TIP3   OH261939   1.099   2.197  15.946 -0.0040  0.3696 -0.4244
13483TIP3    H161940   1.136   2.255  15.879 -0.9377  0.9798 -0.4120
13483TIP3    H261941   1.068   2.256  16.015  0.1881 -0.2124  0.1694
13484TIP3   OH261942   2.917   1.093   0.094 -0.4755 -0.2950  0.2882
13484TIP3    H161943   2.895   1.027   0.029  3.7612  0.5004 -2.1407
13484TIP3    H261944   2.877   1.174   0.062 -1.1861 -0.5673  0.4730
13485TIP3   OH261945   6.541   0.678  12.492 -0.2166  0.3663 -0.5138
13485TIP3    H161946   6.492   0.615  12.439 -1.1769  1.5837 -1.0860
13485TIP3    H261947   6.563   0.630  12.572  0.4836 -1.2102 -1.6219
13486TIP3   OH261948   2.289   1.914   3.936  0.1651 -0.5474  0.3300
13486TIP3    H161949   2.222   1.877   3.992  1.2271  1.1426  2.8013
13486TIP3    H261950   2.282   2.009   3.949  2.1048 -0.2702 -0.4274
13487TIP3   OH261951   5.030   4.278  12.505 -1.2321  0.3721 -0.0224
13487TIP3    H161952   5.011   4.216  12.435  0.3594 -0.6324  0.4183
13487TIP3    H261953   4.987   4.242  12.582  1.9329 -1.6616  0.8684
13488TIP3   OH261954   3.710   5.433   1.355 -0.1964  0.0980 -0.2388
13488TIP3    H161955   3.752   5.420   1.440 -0.3410 -1.1286 -0.3526
13488TIP3    H261956   3.767   5.388   1.292 -0.7234 -0.0284 -0.6336
13489TIP3   OH261957   1.664   2.286  16.907  0.0376 -0.3604 -0.2886
13489TIP3    H161958   1.687   2.263  16.818 -1.8668  0.6410 -1.0767
13489TIP3    H261959   1.584   2.236  16.925 -0.5732  0.7700  0.2197
13490TIP3   OH261960   5.075   3.512  14.231  0.8751 -0.6131 -0.4846
13490TIP3    H161961   5.070   3.421  14.262 -0.5105 -0.7196 -0.9521
13490TIP3    H261962   5.068   3.505  14.136 -1.1801  0.0775 -0.4136
13491TIP3   OH261963   1.518   1.822  16.398  0.0998 -0.0358  0.3908
13491TIP3    H161964   1.474   1.738  16.411 -0.2050  0.1751  0.7446
13491TIP3    H261965   1.510   1.840  16.305 -0.8044  0.1316  0.4977
13492TIP3   OH261966   5.544   6.434   4.191  0.1196  0.1128  0.2163
13492TIP3    H161967   5.450   6.448   4.202  0.1842 -0.2182  1.2774
13492TIP3    H261968   5.581   6.456   4.277  1.0193  0.3353 -0.2253
13493TIP3   OH261969   1.342   0.626   3.366  0.2466  0.2834 -0.0023
13493TIP3    H161970   1.284   0.550   3.370  0.9445 -0.2522  0.0509
13493TIP3    H261971   1.291   0.693   3.321  0.3117 -0.8448 -1.8124
13494TIP3   OH261972   2.466   0.677   3.925 -0.3132 -0.1193  0.3687
13494TIP3    H161973   2.561   0.688   3.916  0.1033 -1.6139  2.5876
13494TIP3    H261974   2.430   0.722   3.848  2.1959 -0.0016 -0.8088
13495TIP3   OH261975   1.359   5.673   3.454  0.1443  0.0361  0.1981
13495TIP3    H161976   1.386   5.691   3.544  0.3916 -2.0153  0.5767
13495TIP3    H261977   1.330   5.757   3.420 -2.6818  0.3148  3.0972
13496TIP3   OH261978   1.217   2.441  14.864 -0.0047  0.1727  0.5825
13496TIP3    H161979   1.221   2.375  14.795  0.4424 -0.7482  1.4802
13496TIP3    H261980   1.228   2.392  14.945  0.0559  1.3159  1.2768
13497TIP3   OH261981   3.460   0.123   2.452 -0.0071  0.2610  0.5699
13497TIP3    H161982   3.540   0.100   2.405  0.9955  1.3907  1.6967
13497TIP3    H261983   3.423   0.196   2.402  0.0794  0.2647  0.5107
13498TIP3   OH261984   5.902   0.634   1.436  0.0931 -0.1295 -0.2631
13498TIP3    H161985   5.887   0.651   1.343  0.3863  1.1880 -0.0746
13498TIP3    H261986   5.995   0.653   1.449 -0.2359  0.9589  0.5624
13499TIP3   OH261987   0.877   5.631  16.686  0.0424  0.1037 -0.1481
13499TIP3    H161988   0.924   5.683  16.752  0.6912 -0.5231 -0.1117
13499TIP3    H261989   0.840   5.558  16.735 -0.8539  0.5147 -0.2032
13500TIP3   OH261990   0.677   6.657  10.624  0.0037 -0.0048  0.1885
13500TIP3    H161991   0.595   6.635  10.581 -0.5651 -1.1002  1.7882
13500TIP3    H261992   0.655   6.731  10.682  0.1112 -0.3569  0.6853
13501TIP3   OH261993   3.761   5.061   6.585  0.4425 -0.1213  0.2513
13501TIP3    H161994   3.677   5.016   6.576  0.1587  0.8229 -2.2334
13501TIP3    H261995   3.825   5.002   6.545  0.7218 -0.0864  0.6352
13502TIP3   OH261996   1.257   1.162  14.292  0.1001 -0.0998  0.1139
13502TIP3    H161997   1.287   1.090  14.347  0.6026 -0.1381 -0.2140
13502TIP3    H261998   1.312   1.236  14.317  1.5338 -0.5677 -1.5866
13503TIP3   OH261999   0.855   1.955   3.190 -0.5169  0.2163 -0.3788
13503TIP3    H162000   0.825   2.042   3.164  1.4799  0.8392 -0.6851
13503TIP3    H262001   0.888   1.915   3.109  1.0450  0.2330  0.2173
13504TIP3   OH262002   5.371   2.075  14.661 -0.0373 -0.0726 -0.2089
13504TIP3    H162003   5.290   2.039  14.696  0.5281 -2.4633 -1.2991
13504TIP3    H262004   5.438   2.011  14.684  1.6343  2.0622  1.0068
13505TIP3   OH262005   1.202   5.325  14.119  0.3869  0.1160  0.5887
13505TIP3    H162006   1.212   5.407  14.070  0.3137  0.9350  1.9364
13505TIP3    H262007   1.111   5.325  14.149 -0.0957 -1.2507 -0.7744
13506TIP3   OH262008   4.505   0.057  12.896 -0.3240  0.1273 -0.0079
13506TIP3    H162009   4.475  -0.005  12.830 -0.1405 -0.0828  0.1034
13506TIP3    H262010   4.425   0.097  12.930 -0.5828 -1.3923  1.2322
13507TIP3   OH262011   3.752   4.529   1.685  0.6537  0.4071 -0.2114
13507TIP3    H162012   3.702   4.485   1.617  0.2750  1.5857 -0.7168
13507TIP3    H262013   3.795   4.459   1.733 -0.1508 -0.5136 -0.8253
13508TIP3   OH262014   5.680   4.722  14.650 -0.1083 -0.1853 -0.2706
13508TIP3    H162015   5.761   4.719  14.599 -0.4295  0.0151 -0.8033
13508TIP3    H262016   5.697   4.788  14.717  0.3426 -0.4995 -0.0763
13509TIP3   OH262017   0.221   2.395  17.179 -0.4625  0.0995  0.4155
13509TIP3    H162018   0.157   2.364  17.243 -1.9728  1.2784 -0.4812
13509TIP3    H262019   0.298   2.419  17.231 -1.6947  1.1459  1.8074
13510TIP3   OH262020   2.447   3.241   4.975  0.5717  0.6139 -0.1889
13510TIP3    H162021   2.393   3.318   4.994 -0.5991 -0.2333 -0.0251
13510TIP3    H262022   2.525   3.253   5.029 -0.4756  0.7302  1.3345
13511TIP3   OH262023   4.833   2.847   1.456  0.1246  0.0645  0.0687
13511TIP3    H162024   4.823   2.802   1.539  0.4506 -2.2161 -1.0803
13511TIP3    H262025   4.924   2.878   1.456  0.5221 -1.0856  0.0128
13512TIP3   OH262026   0.593   6.581  11.691 -0.6801  0.1013  0.2894
13512TIP3    H162027   0.649   6.581  11.613 -1.8750  2.7830 -0.6569
13512TIP3    H262028   0.654   6.586  11.765  0.4385 -1.6499 -0.4924
13513TIP3   OH262029   0.875   4.126  13.106  0.2791 -0.2068 -0.4262
13513TIP3    H162030   0.787   4.161  13.087  0.1078  0.5108  1.5946
13513TIP3    H262031   0.930   4.203  13.116  0.5908 -0.5804  0.8575
13514TIP3   OH262032   6.061   6.381   4.040 -0.2718  0.5308  0.1419
13514TIP3    H162033   6.103   6.295   4.039 -1.0917  0.1145  0.4363
13514TIP3    H262034   6.127   6.440   4.076  1.0112  0.4127 -1.9639
13515TIP3   OH262035   4.739   6.396   3.872 -0.0702  0.6473  0.3614
13515TIP3    H162036   4.774   6.338   3.805  0.3746  2.4783 -1.0335
13515TIP3    H262037   4.700   6.469   3.823 -0.3570  1.6690  2.0656
13516TIP3   OH262038   3.743   1.166   2.959  0.3299 -0.3010  0.8209
13516TIP3    H162039   3.661   1.205   2.988  0.5998  1.2286 -0.4778
13516TIP3    H262040   3.811   1.225   2.992  0.9135 -1.3865  1.6127
13517TIP3   OH262041   2.450   4.982  13.516  0.0263 -0.1083 -0.2006
13517TIP3    H162042   2.404   4.983  13.600  0.2639 -2.8254 -0.0055
13517TIP3    H262043   2.388   4.941  13.456  0.5466  0.2187 -0.9640
13518TIP3   OH262044   0.145   4.302   4.915 -0.3033 -0.2134 -0.1433
13518TIP3    H162045   0.206   4.339   4.979  0.6569 -1.0532 -0.5483
13518TIP3    H262046   0.178   4.333   4.831 -2.2199  1.8246 -0.1994
13519TIP3   OH262047   4.643   4.514   0.388 -0.4852  0.0532 -0.0560
13519TIP3    H162048   4.713   4.560   0.342 -1.5658  0.5709 -1.1985
13519TIP3    H262049   4.599   4.582   0.438 -0.0404 -0.3155  0.8571
13520TIP3   OH262050   4.211   2.492   1.645 -0.5586  0.1397  0.1098
13520TIP3    H162051   4.264   2.550   1.701  0.0239 -1.0446  0.7981
13520TIP3    H262052   4.274   2.429   1.610 -1.3291 -0.5877  0.0334
13521TIP3   OH262053   6.020   0.813  12.679  0.0261 -0.0167  0.3522
13521TIP3    H162054   6.079   0.769  12.618 -0.0759 -0.6211  0.6782
13521TIP3    H262055   6.074   0.881  12.720  0.1237  0.3086 -0.3219
13522TIP3   OH262056   1.373   5.597  16.111 -0.5319  0.3535 -0.4947
13522TIP3    H162057   1.347   5.574  16.021 -0.5947  0.3286 -0.4672
13522TIP3    H262058   1.425   5.522  16.140  0.0480  0.6558 -0.7472
13523TIP3   OH262059   4.920   3.614  17.251 -0.1363  0.1823 -0.0211
13523TIP3    H162060   4.989   3.664  17.294  0.7470 -2.6007  1.9120
13523TIP3    H262061   4.964   3.572  17.177  0.0816 -0.8653  0.6851
13524TIP3   OH262062   5.194   5.859   3.244  0.1402 -0.1267  0.0069
13524TIP3    H162063   5.252   5.881   3.318  0.6833 -1.6228  0.0389
13524TIP3    H262064   5.127   5.802   3.282 -2.1947  2.6519  0.2571
13525TIP3   OH262065   6.385   3.277  10.485 -0.2481 -0.3487 -0.3828
13525TIP3    H162066   6.454   3.287  10.549 -0.4643 -1.7531  0.0922
13525TIP3    H262067   6.321   3.344  10.508 -1.9255 -2.9558  2.9976
13526TIP3   OH262068   6.187   5.206  16.379 -0.4566 -0.3530  0.2050
13526TIP3    H162069   6.212   5.116  16.398 -0.7853 -0.4318  0.2583
13526TIP3    H262070   6.092   5.204  16.373 -0.3639 -0.4198 -1.8345
13527TIP3   OH262071   5.546   6.708  13.693  0.5398 -0.3154 -0.0477
13527TIP3    H162072   5.626   6.760  13.702 -0.4353  1.3382 -0.7897
13527TIP3    H262073   5.506   6.739  13.612 -0.2709 -1.9621 -0.2921
13528TIP3   OH262074   1.167   0.610   1.968  0.3188 -0.5390  0.1375
13528TIP3    H162075   1.198   0.676   1.905  1.4409 -0.3112  0.9281
13528TIP3    H262076   1.232   0.610   2.037 -1.0606 -0.5967  1.4542
13529TIP3   OH262077   5.612   2.274  13.295 -0.0717  0.3543 -0.2197
13529TIP3    H162078   5.657   2.196  13.262  1.2702  1.1890 -0.3551
13529TIP3    H262079   5.539   2.286  13.234 -3.0913 -3.4255  2.3552
13530TIP3   OH262080   0.920   6.322   3.749  0.5195  0.3336 -0.0715
13530TIP3    H162081   0.852   6.283   3.803 -0.1633 -0.6173 -1.5793
13530TIP3    H262082   0.913   6.416   3.766 -0.1423  0.1071  0.9521
13531TIP3   OH262083   2.409   1.369  15.995 -0.4043 -0.0850 -0.0679
13531TIP3    H162084   2.382   1.449  16.040  1.4203  0.3380  0.3148
13531TIP3    H262085   2.448   1.314  16.063 -1.0886 -1.0359 -0.4422
13532TIP3   OH262086   4.723   6.566  13.644 -0.0246  0.1565 -0.8229
13532TIP3    H162087   4.761   6.654  13.641  1.1413 -0.3202  0.0280
13532TIP3    H262088   4.689   6.553  13.555 -1.1547  1.8781 -0.6683
13533TIP3   OH262089   1.162   5.552  12.100 -0.0958 -0.0704 -0.6717
13533TIP3    H162090   1.106   5.550  12.022  0.2990  0.9883 -0.9827
13533TIP3    H262091   1.110   5.506  12.167 -1.0959  0.3936 -1.1108
13534TIP3   OH262092   5.059   1.310   1.073  0.1359  0.0770 -0.0904
13534TIP3    H162093   5.046   1.227   1.119  0.9577 -0.7186 -1.2575
13534TIP3    H262094   5.101   1.366   1.137 -1.3392 -0.0632  1.0334
13535TIP3   OH262095   4.592   0.641   1.434 -0.0632  0.3425 -0.0298
13535TIP3    H162096   4.609   0.554   1.471 -0.1774  0.3413  0.0198
13535TIP3    H262097   4.604   0.630   1.340 -0.6363  0.1422 -0.0796
13536TIP3   OH262098   5.807   1.614   5.363 -0.0020  0.9725  0.2319
13536TIP3    H162099   5.867   1.686   5.385  2.5163 -0.4587 -1.7361
13536TIP3    H262100   5.778   1.634   5.274  1.2421 -0.7685 -0.5797
13537TIP3   OH262101   2.929   0.772  15.038 -0.0384 -0.6340  0.3047
13537TIP3    H162102   2.842   0.734  15.030 -0.5661  0.7888 -0.9255
13537TIP3    H262103   2.976   0.742  14.960 -0.2087  0.5491 -0.2720
13538TIP3   OH262104   2.294   3.744   5.060  0.0015  0.1190  0.0417
13538TIP3    H162105   2.277   3.677   4.993 -0.8650  0.6171 -0.2465
13538TIP3    H262106   2.367   3.795   5.026  0.4699 -0.4838  0.1215
13539TIP3   OH262107   0.228   4.789   2.389 -0.1652 -0.4898 -0.5742
13539TIP3    H162108   0.248   4.883   2.397 -1.4676 -0.1415 -1.1616
13539TIP3    H262109   0.232   4.772   2.295  1.8470 -1.4580 -0.3342
13540TIP3   OH262110   1.189   6.419   0.864  0.7512 -0.0868  0.5184
13540TIP3    H162111   1.161   6.501   0.905  0.5985  0.1024  0.0344
13540TIP3    H262112   1.127   6.353   0.897  0.3479  0.1484  0.2402
13541TIP3   OH262113   5.583   6.178  12.727  0.0755  0.2949 -0.0693
13541TIP3    H162114   5.643   6.110  12.757  1.7916  1.7186 -0.1884
13541TIP3    H262115   5.500   6.156  12.768  0.5089 -2.0514 -0.3695
13542TIP3   OH262116   5.882   3.829   0.197  0.1307  0.4725 -0.3081
13542TIP3    H162117   5.802   3.834   0.248  0.6360  1.4462  0.4051
13542TIP3    H262118   5.882   3.741   0.160 -0.9693  0.2708  0.1633
13543TIP3   OH262119   0.987   1.898  11.971  0.0464  0.2850 -0.1591
13543TIP3    H162120   1.080   1.916  11.959  0.2172 -0.2269  0.3808
13543TIP3    H262121   0.984   1.819  12.024 -0.6931  1.6921  1.9836
13544TIP3   OH262122   0.883   6.792   2.689 -0.1476 -0.2214 -0.1156
13544TIP3    H162123   0.854   6.749   2.609 -1.3533 -1.2706  0.8664
13544TIP3    H262124   0.812   6.852   2.711 -0.5905 -1.1450  1.0526
13545TIP3   OH262125   1.531   0.199   5.539 -0.4258 -0.2763 -0.0429
13545TIP3    H162126   1.455   0.160   5.582 -1.0753 -0.0465 -0.9617
13545TIP3    H262127   1.511   0.293   5.535  1.0299  0.1531  1.9678
13546TIP3   OH262128   5.879   0.984  15.369  0.0714 -0.7709  0.2610
13546TIP3    H162129   5.856   0.982  15.462 -0.9024  0.8184  0.0656
13546TIP3    H262130   5.807   0.939  15.326 -0.3180 -0.0110  0.1144
13547TIP3   OH262131   5.017   0.890   4.980  0.0093 -0.5475 -0.2238
13547TIP3    H162132   5.042   0.798   4.989  1.2307 -0.2970 -0.9548
13547TIP3    H262133   4.970   0.894   4.896 -0.2716 -0.5527 -0.0668
13548TIP3   OH262134   1.045   4.199  11.635 -0.3647 -0.6548 -0.1136
13548TIP3    H162135   1.137   4.213  11.612  0.3240 -2.2521  1.5590
13548TIP3    H262136   1.008   4.154  11.559  0.4786 -0.8400 -0.4196
13549TIP3   OH262137   2.136   6.717   4.434  0.6722  0.4855  0.0817
13549TIP3    H162138   2.117   6.780   4.365 -0.6159  0.2746  0.2189
13549TIP3    H262139   2.231   6.715   4.440  0.7389  3.6818  1.2418
13550TIP3   OH262140   5.962   5.307  13.351 -0.6665 -0.0302  0.1574
13550TIP3    H162141   5.976   5.275  13.440  1.3450 -0.8850 -0.4475
13550TIP3    H262142   5.927   5.232  13.303 -0.3582  0.0181 -0.1404
13551TIP3   OH262143   1.335   2.564  11.915  0.1356  0.4159 -0.4153
13551TIP3    H162144   1.393   2.620  11.966 -0.0727 -0.8199  1.2135
13551TIP3    H262145   1.372   2.565  11.827  2.8512 -0.6575  0.6776
13552TIP3   OH262146   5.209   1.075   0.098  0.2703 -1.0790  0.2158
13552TIP3    H162147   5.136   1.125   0.135 -0.0509 -1.7145  0.4472
13552TIP3    H262148   5.252   1.137   0.039 -0.9597 -0.9629 -0.5796
13553TIP3   OH262149   0.885   5.266  11.131 -0.2438 -0.2167 -0.1075
13553TIP3    H162150   0.936   5.207  11.076 -1.6925  1.2022 -3.0630
13553TIP3    H262151   0.802   5.221  11.145 -0.3785  0.0021 -0.1969
13554TIP3   OH262152   1.421   5.122  16.755 -0.4649 -0.0108  0.4019
13554TIP3    H162153   1.338   5.086  16.724  0.5503 -0.7263 -1.6235
13554TIP3    H262154   1.487   5.060  16.722  0.8850  0.7282  1.6847
13555TIP3   OH262155   5.385   2.535  15.881  0.0503  0.3166  0.0023
13555TIP3    H162156   5.367   2.525  15.974 -3.5668  0.7581 -0.5821
13555TIP3    H262157   5.409   2.628  15.871  2.3285 -0.1632  0.7194
13556TIP3   OH262158   5.142   2.920  14.365 -0.1787 -0.4774  0.0243
13556TIP3    H162159   5.215   2.858  14.377  0.8685  0.4568 -1.3275
13556TIP3    H262160   5.135   2.930  14.270 -0.0504  1.7933  0.2247
13557TIP3   OH262161   6.144   3.818  11.040 -0.2944  0.4114  0.2345
13557TIP3    H162162   6.183   3.818  10.953 -0.2434  0.6643  0.2562
13557TIP3    H262163   6.088   3.895  11.040 -0.0954  0.5570  0.5127
13558TIP3   OH262164   1.565   5.121  14.903 -0.3142  0.0048  0.4094
13558TIP3    H162165   1.621   5.128  14.825  1.7823 -1.6642  1.6964
13558TIP3    H262166   1.608   5.175  14.969 -1.4414  0.4681  0.7786
13559TIP3   OH262167   6.637   1.564   3.507 -0.1043  0.4664  0.1568
13559TIP3    H162168   6.666   1.655   3.505  0.6503  0.2217 -0.3067
13559TIP3    H262169   6.655   1.530   3.420  0.5927 -0.4186  0.6294
13560TIP3   OH262170   5.960   4.575   2.710  0.4814 -0.3290 -0.1114
13560TIP3    H162171   5.897   4.553   2.778  0.8425  0.0526  0.3514
13560TIP3    H262172   6.045   4.571   2.754  0.7677 -0.7059 -0.6975
13561TIP3   OH262173   2.349   6.652   2.891  0.2640 -0.0215 -0.1937
13561TIP3    H162174   2.377   6.616   2.806 -1.4738 -2.5825  0.2437
13561TIP3    H262175   2.397   6.601   2.956 -0.5473 -0.0270  0.4130
13562TIP3   OH262176   0.788   6.358  16.597  0.0232 -0.1102  0.2110
13562TIP3    H162177   0.860   6.417  16.619 -0.1559  0.2624 -0.1956
13562TIP3    H262178   0.820   6.309  16.521 -0.4563  0.6064 -0.4481
13563TIP3   OH262179   0.318   6.448  12.930  0.1013 -0.4579 -0.5699
13563TIP3    H162180   0.278   6.372  12.972 -0.0506 -0.5446 -0.8740
13563TIP3    H262181   0.244   6.503  12.904  0.2685  0.9169  1.7440
13564TIP3   OH262182   0.715   1.937  16.166  0.0022 -0.5521  0.1202
13564TIP3    H162183   0.659   2.013  16.182  2.0383  0.8215  1.1075
13564TIP3    H262184   0.680   1.869  16.223 -0.4919  0.3820  0.9629
13565TIP3   OH262185   3.635   4.438   5.907 -0.1081  0.5633  0.1094
13565TIP3    H162186   3.555   4.474   5.868 -1.4572 -1.3340  1.0381
13565TIP3    H262187   3.680   4.396   5.834 -1.5012 -1.0132  0.1197
13566TIP3   OH262188   2.628   4.631   2.127  0.4206  0.0220 -0.0378
13566TIP3    H162189   2.665   4.710   2.166 -0.5858  0.1300  0.7200
13566TIP3    H262190   2.645   4.640   2.033  1.3303  0.5853  0.1746
13567TIP3   OH262191   3.913   3.203   6.527 -0.1464 -0.7661 -0.0271
13567TIP3    H162192   3.987   3.230   6.581 -1.0959  1.0756  0.4350
13567TIP3    H262193   3.950   3.150   6.458  1.5187 -0.3858  0.5642
13568TIP3   OH262194   5.490   6.814   4.081 -0.0216  0.0380 -0.5221
13568TIP3    H162195   5.498   6.835   3.988  0.1385 -1.2475 -0.8173
13568TIP3    H262196   5.417   6.753   4.086 -0.5619  0.7483  0.3095
13569TIP3   OH262197   2.669   5.077  12.994  0.5675  0.1764  0.1338
13569TIP3    H162198   2.673   5.010  13.063 -1.8069 -0.1581 -0.0056
13569TIP3    H262199   2.733   5.143  13.021  2.9077 -2.0918  0.3105
13570TIP3   OH262200   0.350   0.242  11.338 -0.9598  0.2455 -0.4675
13570TIP3    H162201   0.269   0.192  11.327 -0.2781 -0.6391 -1.5214
13570TIP3    H262202   0.338   0.320  11.284 -0.9220 -0.1193 -1.0079
13571TIP3   OH262203   4.696   0.189   6.222  0.7758 -0.8543 -0.1137
13571TIP3    H162204   4.705   0.173   6.128  1.0280  1.6574 -0.5599
13571TIP3    H262205   4.784   0.173   6.257  0.5284 -2.4412 -0.1739
13572TIP3   OH262206   0.171   0.361  14.341  0.2137 -0.0119  0.5627
13572TIP3    H162207   0.190   0.449  14.374  0.8797 -0.0884  0.3911
13572TIP3    H262208   0.210   0.302  14.406 -0.8930 -0.1906  1.0750
13573TIP3   OH262209   0.014   0.392  15.642 -0.2918  0.2488 -0.0417
13573TIP3    H162210   0.001   0.318  15.582  1.7924 -2.2466  2.4471
13573TIP3    H262211  -0.046   0.376  15.714  2.4371 -0.8857  2.0915
13574TIP3   OH262212   3.281   6.127  16.822  0.8485  0.8782  0.2333
13574TIP3    H162213   3.245   6.084  16.745  2.3322 -0.2465  0.1284
13574TIP3    H262214   3.361   6.170  16.790  2.3013 -0.8465  1.3863
13575TIP3   OH262215   1.709   3.920   2.735  0.2689  0.1682  0.2073
13575TIP3    H162216   1.722   3.874   2.653 -0.7466  0.0546  0.1033
13575TIP3    H262217   1.780   3.985   2.738  2.8554 -2.5711  1.2330
13576TIP3   OH262218   0.177   5.717  14.056  0.6733 -0.0373  0.2152
13576TIP3    H162219   0.222   5.686  13.978  2.1533  1.5953  0.3825
13576TIP3    H262220   0.160   5.810  14.039 -0.2269  0.0104  1.2749
13577TIP3   OH262221   1.431   2.886   3.521 -0.3510 -0.0282  0.1975
13577TIP3    H162222   1.511   2.841   3.495 -0.0435  1.2016 -1.0101
13577TIP3    H262223   1.417   2.859   3.612 -0.3592 -2.8163 -0.5818
13578TIP3   OH262224   6.582   6.080   3.662 -0.5533 -0.5813  0.1108
13578TIP3    H162225   6.572   5.987   3.680  1.3561 -1.3247 -2.4857
13578TIP3    H262226   6.625   6.084   3.577 -1.5484  2.6908 -0.3077
13579TIP3   OH262227   0.509   3.561   3.693  0.1968  0.5931  0.1271
13579TIP3    H162228   0.459   3.490   3.651  0.2191  0.9180 -0.4644
13579TIP3    H262229   0.601   3.535   3.682  0.2226  0.9055 -0.4624
13580TIP3   OH262230   3.640   5.406   0.518  0.0860  0.7966  0.0322
13580TIP3    H162231   3.642   5.319   0.479 -1.3990  0.6545  0.2399
13580TIP3    H262232   3.650   5.466   0.444  0.9530  0.4652 -0.1289
13581TIP3   OH262233   2.025   5.171  14.497 -0.6129 -0.5935 -0.5311
13581TIP3    H162234   2.115   5.137  14.490 -0.3748  0.1466 -1.0819
13581TIP3    H262235   2.030   5.258  14.460 -1.1070  0.2638  1.3594
13582TIP3   OH262236   1.206   1.836  11.704 -0.0534 -0.2609 -0.6451
13582TIP3    H162237   1.251   1.913  11.740 -0.2082 -0.3710 -0.2083
13582TIP3    H262238   1.233   1.765  11.762  0.1104 -0.5439 -1.0644
13583TIP3   OH262239   6.799   0.948   3.047  0.7042  0.0602 -0.0990
13583TIP3    H162240   6.819   1.022   2.989 -0.1322 -0.8108 -1.5325
13583TIP3    H262241   6.879   0.895   3.046  0.3291 -0.5126 -1.3519
13584TIP3   OH262242   4.266   2.095  14.572  0.1296 -0.2524 -0.5814
13584TIP3    H162243   4.231   2.144  14.647 -0.1511 -0.7949 -0.3499
13584TIP3    H262244   4.242   2.004  14.591  0.6490 -0.4760 -1.0030
13585TIP3   OH262245   1.826   0.499  16.470  0.0194  0.2938 -0.0474
13585TIP3    H162246   1.745   0.460  16.503 -0.0262  0.0186 -0.4838
13585TIP3    H262247   1.798   0.551  16.394  0.2411  0.2735 -0.1420
13586TIP3   OH262248   1.461   6.282  12.854  0.0312 -0.1023 -0.5115
13586TIP3    H162249   1.431   6.275  12.944 -1.6771 -1.6199 -1.1669
13586TIP3    H262250   1.551   6.314  12.861  0.3804 -1.5123  1.7704
13587TIP3   OH262251   6.792   0.032   0.994 -0.2219  0.0824 -0.0750
13587TIP3    H162252   6.808  -0.035   1.061 -0.4021 -2.5631 -2.5530
13587TIP3    H262253   6.696   0.038   0.988 -0.2169  1.6698  1.1572
13588TIP3   OH262254   6.566   0.755   4.822 -0.0886  0.2814 -0.0256
13588TIP3    H162255   6.515   0.811   4.763 -0.7088 -1.2169 -0.9568
13588TIP3    H262256   6.656   0.787   4.813 -0.4621  1.2727 -0.3675
13589TIP3   OH262257   5.686   3.587  16.159  0.3632 -0.1173  0.3680
13589TIP3    H162258   5.686   3.492  16.147 -1.7207 -0.1006 -0.0526
13589TIP3    H262259   5.602   3.615  16.122  0.0302  1.6438  2.3723
13590TIP3   OH262260   5.271   0.761   5.066 -0.5254  0.0886  0.5095
13590TIP3    H162261   5.209   0.817   5.113 -1.0198 -0.8443  0.9959
13590TIP3    H262262   5.216   0.691   5.030  0.1520 -0.3541  0.3347
13591TIP3   OH262263   0.022   2.496  13.563 -0.3024  0.4005  0.2906
13591TIP3    H162264   0.112   2.499  13.530 -0.7359  0.8065 -0.8776
13591TIP3    H262265   0.001   2.403  13.568 -0.4836  0.3458 -1.2998
13592TIP3   OH262266   0.830   1.213  13.690 -0.7555 -0.2912  0.5815
13592TIP3    H162267   0.841   1.136  13.635 -0.8651 -1.7991  2.6082
13592TIP3    H262268   0.918   1.249  13.700 -0.8759  0.6687 -1.4536
13593TIP3   OH262269   5.195   3.106   0.947 -0.6042 -0.3559  0.1641
13593TIP3    H162270   5.104   3.131   0.932 -0.1048  1.0635 -0.5485
13593TIP3    H262271   5.201   3.092   1.042 -1.0684  1.5493  0.4811
13594TIP3   OH262272   4.368   5.672   1.454  0.0861 -0.3429 -0.3615
13594TIP3    H162273   4.275   5.673   1.476  0.2195  1.0839  0.1904
13594TIP3    H262274   4.370   5.655   1.360 -0.7407 -0.3227 -0.3899
13595TIP3   OH262275   3.706   3.622  12.470 -0.0779  0.2628 -0.4567
13595TIP3    H162276   3.612   3.603  12.461 -0.3581  0.4022  1.8373
13595TIP3    H262277   3.708   3.708  12.511  1.0272 -0.3776  0.8592
13596TIP3   OH262278   2.028   1.333   2.412  0.0303  0.5169 -0.7585
13596TIP3    H162279   1.965   1.266   2.440  1.0849  0.4916  1.7148
13596TIP3    H262280   2.024   1.331   2.317 -1.1144 -1.9931 -0.7112
13597TIP3   OH262281   4.090   4.654  11.582  0.0583  0.0868  0.2845
13597TIP3    H162282   4.074   4.704  11.502  1.0214 -0.3281 -0.1769
13597TIP3    H262283   4.004   4.645  11.623 -0.3099  1.0354 -0.2668
13598TIP3   OH262284   2.310   3.605  17.180 -0.2816 -0.4835  0.1605
13598TIP3    H162285   2.320   3.620  17.086 -0.8467  1.6909  0.4263
13598TIP3    H262286   2.261   3.523  17.186 -2.5102  0.6645 -1.5261
13599TIP3   OH262287   1.914   3.749  12.807  0.4774  0.6940  0.4508
13599TIP3    H162288   1.833   3.791  12.780 -0.0014 -1.1473 -1.1350
13599TIP3    H262289   1.903   3.657  12.781  2.6039  0.1866  1.2413
13600TIP3   OH262290   5.244   3.093   1.481 -0.0037  0.0930  0.1047
13600TIP3    H162291   5.186   3.129   1.548  0.6070 -0.7948  1.1197
13600TIP3    H262292   5.301   3.166   1.456 -2.1052  1.2230 -1.5449
13601TIP3   OH262293   0.802   6.475  11.886  0.0290 -0.4582  0.0567
13601TIP3    H162294   0.828   6.553  11.935 -0.9924  0.4146 -0.7622
13601TIP3    H262295   0.720   6.447  11.927  1.4042 -2.2684  1.6169
13602TIP3   OH262296   0.411   6.372  16.190  0.0061 -0.1287  0.2117
13602TIP3    H162297   0.482   6.415  16.141 -0.2236 -0.6608 -0.5799
13602TIP3    H262298   0.347   6.441  16.204 -0.4371 -0.2477 -1.2087
13603TIP3   OH262299   5.207   6.600   1.115  0.1509 -0.0635  0.5190
13603TIP3    H162300   5.176   6.519   1.154 -2.1082  0.7005  0.3634
13603TIP3    H262301   5.156   6.609   1.034  0.1500  1.6674  0.6920
13604TIP3   OH262302   1.499   4.504  16.560 -0.1366 -0.2084  0.3529
13604TIP3    H162303   1.448   4.472  16.486 -1.2130 -0.0508  1.0210
13604TIP3    H262304   1.464   4.457  16.635  2.1428 -1.6887  0.5254
13605TIP3   OH262305   5.928   0.374  16.013 -0.2186 -0.5116 -0.8405
13605TIP3    H162306   5.857   0.417  15.965 -1.3082 -0.6741  0.6248
13605TIP3    H262307   5.916   0.280  15.994 -0.0302 -0.4946 -1.0565
13606TIP3   OH262308   5.975   2.074  12.574  0.1490 -0.0420  0.5787
13606TIP3    H162309   5.956   2.002  12.634 -0.2336 -0.5916 -0.1928
13606TIP3    H262310   5.978   2.033  12.487  2.3003  0.4557  0.3888
13607TIP3   OH262311   6.684   4.307   3.155 -0.6351  0.2386  0.3614
13607TIP3    H162312   6.773   4.280   3.179  0.1546  1.2857 -1.3119
13607TIP3    H262313   6.669   4.268   3.069 -1.3194  1.0804  0.0878
13608TIP3   OH262314   2.592   0.105   4.915  0.0123 -0.3437 -0.0529
13608TIP3    H162315   2.547   0.180   4.953  0.0938 -0.3648  0.0874
13608TIP3    H262316   2.565   0.104   4.823 -1.7781 -1.4630  0.4531
13609TIP3   OH262317   1.912   5.608  15.571  0.2510 -0.5666 -0.7411
13609TIP3    H162318   1.914   5.703  15.580  1.7909 -0.5883 -0.6328
13609TIP3    H262319   1.875   5.577  15.654 -0.0182 -0.0819 -0.6777
13610TIP3   OH262320   0.972   3.523  15.868 -0.2848  0.0168  0.3773
13610TIP3    H162321   0.883   3.508  15.837  0.2638 -0.5960 -0.9784
13610TIP3    H262322   0.982   3.464  15.943 -0.6223 -0.8656 -0.2532
13611TIP3   OH262323   1.067   6.005  15.947  0.3621 -0.0162 -0.3148
13611TIP3    H162324   0.990   5.951  15.928  0.0988 -0.1239  0.9897
13611TIP3    H262325   1.104   5.967  16.027  1.4533  0.3762 -0.6164
13612TIP3   OH262326   5.911   1.173  11.504 -0.7346 -0.1274  0.0977
13612TIP3    H162327   5.992   1.129  11.530  0.7202  2.8235  0.8715
13612TIP3    H262328   5.931   1.212  11.419 -1.6454 -0.1633 -0.1335
13613TIP3   OH262329   2.137   4.629  16.935  0.4637  0.3872 -0.3871
13613TIP3    H162330   2.055   4.635  16.886  1.0794  2.6253 -1.2047
13613TIP3    H262331   2.110   4.629  17.027 -0.4937 -0.0000 -0.6576
13614TIP3   OH262332   6.582   3.934   2.080 -0.0332 -0.0706 -0.0341
13614TIP3    H162333   6.656   3.981   2.118 -0.8540  0.9982  0.2757
13614TIP3    H262334   6.556   3.988   2.005 -0.0041 -0.8503 -0.6092
13615TIP3   OH262335   1.720   1.167   4.122  0.0306  0.0807  0.1002
13615TIP3    H162336   1.763   1.239   4.075  1.2296 -0.6344  0.0684
13615TIP3    H262337   1.630   1.196   4.133  0.3413  1.3154 -0.4786
13616TIP3   OH262338   2.083   3.828  12.304  0.7931  0.2712  0.0886
13616TIP3    H162339   2.127   3.866  12.228  0.6297 -0.0770 -0.1794
13616TIP3    H262340   2.126   3.743  12.317  0.9021  0.3799  0.4593
13617TIP3   OH262341   1.423   3.179  14.325 -1.0507  0.3049 -0.1873
13617TIP3    H162342   1.475   3.231  14.386 -0.8746  0.7019 -0.6663
13617TIP3    H262343   1.367   3.126  14.380  1.2894 -1.6332  0.3952
13618TIP3   OH262344   3.452   5.304   6.246 -0.4999  0.2206 -0.3959
13618TIP3    H162345   3.368   5.323   6.287 -0.1364  0.9905  0.0168
13618TIP3    H262346   3.505   5.267   6.318 -0.4571 -0.1889 -0.6345
13619TIP3   OH262347   6.633   0.185   3.289 -0.2632 -0.4968  0.8663
13619TIP3    H162348   6.719   0.150   3.266 -0.9480 -3.1315  2.0756
13619TIP3    H262349   6.649   0.244   3.362  0.7199  0.5040 -0.1261
13620TIP3   OH262350   1.950   2.852   0.147 -0.2559  0.4078 -0.3534
13620TIP3    H162351   2.012   2.846   0.075  0.8154 -0.2856  0.6190
13620TIP3    H262352   1.925   2.944   0.150  2.6558  1.1876  0.8427
13621TIP3   OH262353   1.885   3.455   0.908  0.3642 -0.5082  0.1376
13621TIP3    H162354   1.806   3.439   0.856 -1.6042 -0.4045  3.0205
13621TIP3    H262355   1.946   3.386   0.880 -0.7136 -0.5886 -2.1263
13622TIP3   OH262356   1.567   0.423  11.947 -0.1024  0.2579  0.2341
13622TIP3    H162357   1.651   0.396  11.985 -0.1478 -0.3991 -0.1349
13622TIP3    H262358   1.525   0.474  12.017  0.2424 -0.1034  0.7095
13623TIP3   OH262359   6.132   6.693  16.526  0.0595  0.4258 -0.2066
13623TIP3    H162360   6.102   6.607  16.499 -1.0924  0.6790  0.1994
13623TIP3    H262361   6.052   6.747  16.528  0.6384  1.2904  0.2970
13624TIP3   OH262362   3.813   0.547   0.445 -0.4035  0.4263 -0.4393
13624TIP3    H162363   3.768   0.530   0.529 -0.8624  2.6179 -0.2137
13624TIP3    H262364   3.846   0.636   0.454  1.3703 -0.0792 -1.8130
13625TIP3   OH262365   3.327   4.579  15.913 -0.1291 -0.1057 -0.1403
13625TIP3    H162366   3.297   4.491  15.887  0.1775 -0.8371  1.9061
13625TIP3    H262367   3.270   4.638  15.864 -1.5889 -1.4625 -0.1523
13626TIP3   OH262368   4.421   0.414   2.972 -1.1073  0.3469  0.2834
13626TIP3    H162369   4.439   0.320   2.983 -3.1787 -0.2290 -1.0977
13626TIP3    H262370   4.507   0.456   2.982  0.1396 -1.8528 -0.9501
13627TIP3   OH262371   5.200   5.364   4.234 -0.2427 -0.0381 -0.3436
13627TIP3    H162372   5.120   5.314   4.248  0.0503 -0.3466  0.2264
13627TIP3    H262373   5.229   5.390   4.322  0.6073 -0.4307 -0.5017
13628TIP3   OH262374   2.805   6.509  16.679  0.3083 -0.6563 -0.3826
13628TIP3    H162375   2.872   6.440  16.681 -0.8492 -1.9271 -3.2593
13628TIP3    H262376   2.835   6.569  16.611 -0.9843 -0.7354 -1.0312
13629TIP3   OH262377   2.785   2.550   5.978  0.1163 -0.4460  0.0856
13629TIP3    H162378   2.793   2.565   6.072  1.7900  1.0903 -0.2652
13629TIP3    H262379   2.875   2.555   5.945 -0.6326  1.2090 -1.8929
13630TIP3   OH262380   0.171   0.168  11.877  0.7354  0.3903 -0.0093
13630TIP3    H162381   0.114   0.096  11.849  0.1478  1.0338 -0.4703
13630TIP3    H262382   0.252   0.156  11.826  0.0216  1.0163 -1.3088
13631TIP3   OH262383   5.681   0.063   0.341 -0.7324 -0.1932 -0.1105
13631TIP3    H162384   5.627   0.125   0.390 -2.9081 -2.1425  0.0224
13631TIP3    H262385   5.718   0.115   0.270 -1.0478  1.6637  1.0469
13632TIP3   OH262386   5.752   6.795   5.224  0.1821 -0.2310 -0.2937
13632TIP3    H162387   5.835   6.829   5.255  0.6300 -1.2081 -0.4037
13632TIP3    H262388   5.686   6.838   5.279  0.9061 -1.2700  1.4276
13633TIP3   OH262389   3.655   6.250  12.195  0.4970 -0.0137 -0.6170
13633TIP3    H162390   3.580   6.191  12.205  0.2633  0.2914 -0.5755
13633TIP3    H262391   3.693   6.256  12.282 -0.6530  1.4615 -0.1895
13634TIP3   OH262392   0.206   2.038   0.039 -0.1615  0.3506  0.3375
13634TIP3    H162393   0.244   2.020  -0.047 -0.1340  1.9560  0.0131
13634TIP3    H262394   0.173   2.127   0.033 -1.9512 -0.2122  1.3546
13635TIP3   OH262395   5.485   2.572   0.337  0.0896 -1.0497 -0.3782
13635TIP3    H162396   5.540   2.506   0.295  0.6751 -1.3652  0.8619
13635TIP3    H262397   5.530   2.655   0.319  1.5747 -1.4100  1.5229
13636TIP3   OH262398   4.715   2.095  12.748 -0.1232  0.2361  0.1619
13636TIP3    H162399   4.697   2.125  12.659  0.9140 -2.8841 -1.1934
13636TIP3    H262400   4.634   2.051  12.775  0.5972 -1.5514 -0.5002
13637TIP3   OH262401   5.028   0.074   2.759 -0.1084  0.3586 -0.4123
13637TIP3    H162402   5.075   0.089   2.840 -0.6854  0.5102 -0.1031
13637TIP3    H262403   4.985  -0.011   2.770 -0.0785  0.3157 -0.6104
13638TIP3   OH262404   6.761   3.662   5.853  0.0164  0.2058 -0.4685
13638TIP3    H162405   6.699   3.676   5.782 -1.8925  1.1297  1.3472
13638TIP3    H262406   6.739   3.575   5.887 -0.4531  0.6528  0.3623
13639TIP3   OH262407   0.149   3.887  15.409 -0.2164  0.2567  0.0901
13639TIP3    H162408   0.229   3.883  15.357  0.1894 -1.5996  0.8055
13639TIP3    H262409   0.087   3.829  15.364 -0.7933  0.8159  0.1527
13640TIP3   OH262410   2.015   2.995  13.102 -0.4581 -0.0762  0.7356
13640TIP3    H162411   1.948   3.032  13.160 -1.9062 -0.6744 -0.5071
13640TIP3    H262412   2.063   2.934  13.157 -1.4691 -0.2406  1.4604
13641TIP3   OH262413   4.490   3.851  14.757 -0.6285  0.3513  0.2179
13641TIP3    H162414   4.521   3.915  14.694 -1.1873 -1.1639 -1.6649
13641TIP3    H262415   4.553   3.779  14.752 -2.3530 -1.1445 -0.9706
13642TIP3   OH262416   2.175   6.429   3.452  0.2995  1.0109 -0.2938
13642TIP3    H162417   2.128   6.347   3.442  0.4891  0.8970 -0.2559
13642TIP3    H262418   2.114   6.486   3.499  0.9657  0.2061  1.5853
13643TIP3   OH262419   4.781   0.608   5.409 -0.0939 -0.2608 -0.1028
13643TIP3    H162420   4.732   0.541   5.458  0.6367 -1.6422 -1.2249
13643TIP3    H262421   4.790   0.680   5.471 -2.5083 -0.4562  0.5231
13644TIP3   OH262422   2.558   4.869  15.305  0.3477 -0.5270  0.0012
13644TIP3    H162423   2.482   4.814  15.323  0.5680 -1.0221 -0.5752
13644TIP3    H262424   2.570   4.864  15.210  0.3406  0.5484 -0.0626
13645TIP3   OH262425   3.629   4.939  14.652 -0.1109 -0.1921  0.3207
13645TIP3    H162426   3.652   4.945  14.559  0.1152 -0.9515  0.3240
13645TIP3    H262427   3.576   4.859  14.658 -0.8161  0.3017  0.7077
13646TIP3   OH262428   3.664   1.994   5.920  0.5028  0.2002 -0.3016
13646TIP3    H162429   3.649   1.904   5.949  0.1780  0.9798  2.1107
13646TIP3    H262430   3.649   1.992   5.826  1.6836 -2.5086 -0.4860
13647TIP3   OH262431   2.420   3.743   5.990 -0.0376 -0.1282  0.2917
13647TIP3    H162432   2.475   3.811   6.029  0.4148  0.2239 -0.9310
13647TIP3    H262433   2.401   3.776   5.902  0.1181 -1.5356 -0.2795
13648TIP3   OH262434   3.526   1.367   2.839  0.5047 -0.1862  0.1105
13648TIP3    H162435   3.524   1.414   2.755  2.1052  0.2438  0.2903
13648TIP3    H262436   3.494   1.279   2.818 -0.9957  0.5037 -0.5472
13649TIP3   OH262437   3.094   0.056  16.569  0.4047 -0.7205  0.1861
13649TIP3    H162438   3.091   0.081  16.662 -0.2444 -1.5878  0.4092
13649TIP3    H262439   3.054   0.129  16.523 -2.0467 -1.5681  0.8898
13650TIP3   OH262440   4.764   3.605   5.726  0.4130  0.0899  0.3102
13650TIP3    H162441   4.674   3.599   5.696  0.2800  1.0497  0.5047
13650TIP3    H262442   4.779   3.523   5.774  0.1722 -0.7927 -1.1070
13651TIP3   OH262443   6.243   5.099   1.116  0.4602 -1.0248 -0.0444
13651TIP3    H162444   6.286   5.111   1.201  0.3088 -1.9068  0.1673
13651TIP3    H262445   6.187   5.176   1.106  0.5431 -0.8754  0.6211
13652TIP3   OH262446   5.846   6.348   5.389 -0.3071  0.1234 -0.4262
13652TIP3    H162447   5.901   6.399   5.449 -1.4052  1.5201 -0.5947
13652TIP3    H262448   5.908   6.289   5.344  0.8078  0.4987  0.5822
13653TIP3   OH262449   2.958   2.471  15.114 -0.4472  0.0678  0.2953
13653TIP3    H162450   2.923   2.541  15.170  0.7986  1.3025 -0.4159
13653TIP3    H262451   3.053   2.484  15.117 -0.3139 -0.4425 -1.3445
13654TIP3   OH262452   0.480   5.863  14.674  0.2762 -0.4839  0.3156
13654TIP3    H162453   0.569   5.867  14.710  0.2372 -1.1066  0.4861
13654TIP3    H262454   0.455   5.955  14.662  1.3610 -0.3236 -0.7754
13655TIP3   OH262455   3.912   3.846   0.420 -0.3054  0.0767  0.2982
13655TIP3    H162456   3.959   3.774   0.378  2.4327  1.3560  1.0716
13655TIP3    H262457   3.927   3.833   0.514 -0.5311  1.1508  0.4957
13656TIP3   OH262458   4.126   6.500  12.952 -0.1128  0.0412  0.2716
13656TIP3    H162459   4.135   6.514  12.858 -0.7655  0.2861  0.2380
13656TIP3    H262460   4.126   6.589  12.989  0.8883 -0.0834  0.5741
13657TIP3   OH262461   3.749   5.265  14.853 -0.2044 -0.2910  0.1764
13657TIP3    H162462   3.661   5.229  14.848  0.0877 -0.8021 -2.3253
13657TIP3    H262463   3.807   5.191  14.834  0.5733  0.6846 -1.4445
13658TIP3   OH262464   0.257   2.217  13.254  0.4179  0.1026 -0.1140
13658TIP3    H162465   0.181   2.179  13.210  0.4903 -0.8716  0.5884
13658TIP3    H262466   0.258   2.309  13.226 -0.8015  0.0289 -0.4104
13659TIP3   OH262467   2.754   3.574   2.349  0.6658 -0.0836  0.3570
13659TIP3    H162468   2.749   3.634   2.423  0.1993 -0.3837  0.5701
13659TIP3    H262469   2.761   3.631   2.272 -0.6422  0.2621  0.4917
13660TIP3   OH262470   1.714   3.965   0.204 -0.2929  1.0477 -0.3839
13660TIP3    H162471   1.711   3.871   0.189 -0.0222  1.2166 -1.5723
13660TIP3    H262472   1.655   3.980   0.278 -0.4681 -0.0288 -0.3016
13661TIP3   OH262473   3.913   1.161   1.399  0.5479  0.4941  0.0497
13661TIP3    H162474   3.828   1.175   1.358  1.0145  0.8656 -0.7912
13661TIP3    H262475   3.892   1.136   1.489 -0.4372  0.8700 -0.0728
13662TIP3   OH262476   2.283   4.856   3.414  0.0753  0.1526  0.9658
13662TIP3    H162477   2.349   4.897   3.471  0.3179  0.5803  0.3898
13662TIP3    H262478   2.334   4.803   3.352 -0.2401 -1.0168  1.6977
13663TIP3   OH262479   3.408   2.608   1.793  0.7828 -0.4446  0.3005
13663TIP3    H162480   3.462   2.539   1.753  1.6666 -1.4180  3.0570
13663TIP3    H262481   3.455   2.631   1.874  0.1155  2.8953 -0.1820
13664TIP3   OH262482   3.880   2.110   2.509 -0.2422 -0.1403  0.1410
13664TIP3    H162483   3.920   2.140   2.428 -0.0281 -0.5027  0.1136
13664TIP3    H262484   3.837   2.028   2.487 -2.6543  1.1834 -0.2827
13665TIP3   OH262485   4.960   2.859  12.978  0.3878  0.5016  0.3298
13665TIP3    H162486   5.037   2.904  13.013 -1.1244  1.0762  3.0013
13665TIP3    H262487   4.988   2.767  12.969  1.1934  0.5785  1.8981
13666TIP3   OH262488   1.724   0.782  14.949  0.0560 -0.2791 -0.5729
13666TIP3    H162489   1.699   0.786  14.857  1.1287  1.4843 -0.8132
13666TIP3    H262490   1.661   0.839  14.994  0.1321 -0.3758 -0.3391
13667TIP3   OH262491   0.023   2.068   2.961 -0.1712  0.3504  0.0356
13667TIP3    H162492   0.098   2.022   2.923  1.3365  1.5806  1.4885
13667TIP3    H262493   0.061   2.141   3.009 -2.4075  1.9665 -0.5687
13668TIP3   OH262494   5.514   4.824  14.072 -0.0226  0.3879  0.4858
13668TIP3    H162495   5.461   4.844  14.149 -0.3730 -0.0226  0.3525
13668TIP3    H262496   5.512   4.729  14.064  1.3867  0.3113  0.9279
13669TIP3   OH262497   4.729   0.213  16.342  0.7051 -0.2124 -0.3730
13669TIP3    H162498   4.673   0.203  16.265 -0.7140  0.3986  0.5503
13669TIP3    H262499   4.707   0.139  16.397  0.3715  0.3456  0.2520
13670TIP3   OH262500   2.241   2.371   3.287  0.2387 -0.3827  0.4029
13670TIP3    H162501   2.318   2.321   3.262  0.3368  0.2768 -0.6539
13670TIP3    H262502   2.263   2.461   3.266 -0.6540 -0.1332  0.5120
13671TIP3   OH262503   2.148   0.160   4.880 -0.3048 -0.3184  0.5975
13671TIP3    H162504   2.198   0.080   4.896 -2.3803 -1.7338  0.1905
13671TIP3    H262505   2.197   0.228   4.926  2.4505 -1.4714 -0.4674
13672TIP3   OH262506   5.358   0.790   1.658 -0.2008  0.0347 -0.0469
13672TIP3    H162507   5.406   0.802   1.740  0.9960  0.3154 -0.7789
13672TIP3    H262508   5.423   0.757   1.596 -0.2313  3.1298 -1.8331
13673TIP3   OH262509   0.135   5.980  13.885 -0.2536 -0.4239  0.6952
13673TIP3    H162510   0.099   6.054  13.836 -2.0140 -0.1455  2.3542
13673TIP3    H262511   0.227   6.003  13.901 -0.2621  0.4787 -0.5331
13674TIP3   OH262512   1.342   4.431  15.958  0.2412 -0.6140 -0.4984
13674TIP3    H162513   1.265   4.465  16.003  1.6652  1.3702  0.4833
13674TIP3    H262514   1.324   4.447  15.865 -1.0149 -1.2389 -0.3799
13675TIP3   OH262515   1.950   1.942   2.441  0.3941  0.0169 -0.0777
13675TIP3    H162516   1.991   1.930   2.355 -0.4548  0.5798 -0.5706
13675TIP3    H262517   1.874   1.997   2.423 -0.0691 -0.2788  0.9677
13676TIP3   OH262518   3.839   4.686   5.870 -0.1597 -0.3571  0.3709
13676TIP3    H162519   3.831   4.641   5.786  3.5561 -0.9955  0.2845
13676TIP3    H262520   3.891   4.764   5.850 -1.4147  0.8409  1.6469
13677TIP3   OH262521   2.159   3.672  15.988  0.7442  0.6830 -0.1205
13677TIP3    H162522   2.202   3.754  15.964  1.7189  0.6376  1.4389
13677TIP3    H262523   2.229   3.608  15.991  0.2061  0.1048  0.1383
13678TIP3   OH262524   2.803   4.664  17.208  0.7941  0.2154 -0.2130
13678TIP3    H162525   2.768   4.580  17.175  0.5699 -0.2091  1.0741
13678TIP3    H262526   2.751   4.730  17.162  1.0960 -0.3315 -1.3865
13679TIP3   OH262527   0.670   5.224   2.513 -0.5362 -0.0843 -0.6887
13679TIP3    H162528   0.603   5.189   2.454 -0.2354 -1.6902 -0.1046
13679TIP3    H262529   0.621   5.264   2.584 -0.8843 -0.1255 -0.9036
13680TIP3   OH262530   0.196   6.383  13.554 -0.4290  0.0297 -0.0011
13680TIP3    H162531   0.175   6.467  13.594 -0.5606  0.5406 -1.1254
13680TIP3    H262532   0.193   6.399  13.460  1.2183 -0.8076 -0.2240
13681TIP3   OH262533   6.635   0.418  12.034 -0.7778 -0.5568 -0.6418
13681TIP3    H162534   6.550   0.457  12.010 -1.0104 -1.0441 -0.6158
13681TIP3    H262535   6.673   0.392  11.950  0.4012  1.7901 -0.8759
13682TIP3   OH262536   6.801   2.240  15.740  0.3182  0.1222  0.2001
13682TIP3    H162537   6.852   2.277  15.812 -2.7339  1.0507  2.0195
13682TIP3    H262538   6.804   2.146  15.754  2.1048  0.1206 -0.1462
13683TIP3   OH262539   4.507   3.204  13.946  0.2608 -0.4711  0.1813
13683TIP3    H162540   4.538   3.224  13.858  1.0398 -0.6770  0.4031
13683TIP3    H262541   4.486   3.110  13.944  1.5667 -0.7809  0.5835
13684TIP3   OH262542   2.084   3.464   4.788  0.1308  0.2579 -0.3916
13684TIP3    H162543   2.045   3.478   4.874  0.9686  1.8410 -0.2485
13684TIP3    H262544   2.172   3.501   4.795  0.0673  0.7782 -2.0482
13685TIP3   OH262545   5.300   2.553  12.543  0.1861 -0.5693  0.1555
13685TIP3    H162546   5.277   2.627  12.599  1.5309 -0.2027  0.2376
13685TIP3    H262547   5.328   2.593  12.460  0.7830 -0.9865  0.1523
13686TIP3   OH262548   3.645   3.660   1.614 -0.4438  0.4189  0.7970
13686TIP3    H162549   3.661   3.715   1.537 -1.3904  0.6921  0.7985
13686TIP3    H262550   3.731   3.653   1.656  0.0963  0.2285 -0.3093
13687TIP3   OH262551   2.189   2.015   4.272  0.0485 -0.6776  0.1254
13687TIP3    H162552   2.135   2.074   4.325 -2.5887 -1.4498 -1.5586
13687TIP3    H262553   2.182   1.930   4.317 -0.5835 -0.8956 -0.3811
13688TIP3   OH262554   4.141   1.818  10.220  0.1603 -0.5048  0.6548
13688TIP3    H162555   4.064   1.872  10.235 -0.2290 -0.9299  0.2331
13688TIP3    H262556   4.121   1.735  10.263  1.5884  0.3394  3.0364
13689TIP3   OH262557   6.026   1.766  14.139 -0.3322  0.8046  0.1742
13689TIP3    H162558   6.072   1.849  14.149 -1.7031  1.8180 -1.7047
13689TIP3    H262559   6.090   1.708  14.097  0.4869  1.0221  1.1044
13690TIP3   OH262560   1.532   0.281  11.708 -0.4771  0.5234 -0.6448
13690TIP3    H162561   1.446   0.257  11.744 -0.6651  0.3205 -1.2205
13690TIP3    H262562   1.566   0.346  11.769 -0.7157  0.0519 -0.0026
13691TIP3   OH262563   6.368   2.854  11.703 -0.2104  0.0103 -0.3263
13691TIP3    H162564   6.338   2.942  11.727  0.4019 -0.2211  1.3412
13691TIP3    H262565   6.443   2.838  11.760 -0.3387 -1.6217 -0.6023
13692TIP3   OH262566   2.257   3.433  15.528 -0.0162 -0.1900  0.1516
13692TIP3    H162567   2.273   3.433  15.622  0.8084 -0.9213  0.0143
13692TIP3    H262568   2.321   3.495  15.492 -2.6924  2.8586  0.4447
13693TIP3   OH262569   1.018   2.548   3.642  0.6029 -0.1115 -0.5130
13693TIP3    H162570   0.949   2.483   3.629 -0.0791  0.8807 -2.0256
13693TIP3    H262571   1.074   2.540   3.565 -0.0393  1.7524 -1.1980
13694TIP3   OH262572   3.199   2.893  15.989 -0.1936  0.0087 -0.4700
13694TIP3    H162573   3.271   2.830  15.983  0.9063  1.2722 -0.6194
13694TIP3    H262574   3.177   2.896  16.082 -0.7669 -1.1541 -0.5555
13695TIP3   OH262575   4.627   2.255   3.134  0.0684 -0.0470  0.3257
13695TIP3    H162576   4.716   2.289   3.121  1.0538 -1.8200  2.1925
13695TIP3    H262577   4.599   2.229   3.046  1.3058  0.7265 -0.3147
13696TIP3   OH262578   0.502   2.638   1.492 -0.0554  0.5683 -0.3477
13696TIP3    H162579   0.569   2.575   1.468  0.6772  0.5078  1.7520
13696TIP3    H262580   0.454   2.597   1.564  0.4408  2.3640  1.0663
13697TIP3   OH262581   6.307   6.677  15.789  0.2671  0.3621 -0.4587
13697TIP3    H162582   6.245   6.646  15.856  0.8430 -0.8946 -0.4909
13697TIP3    H262583   6.293   6.772  15.786 -2.6599 -0.0292 -1.4506
13698TIP3   OH262584   6.012   5.529  15.905  0.5788  0.2124 -0.2212
13698TIP3    H162585   5.928   5.507  15.863 -0.2621  0.1773  1.4540
13698TIP3    H262586   6.045   5.604  15.854  0.6187 -1.1433 -2.2726
13699TIP3   OH262587   5.414   2.638   3.206 -0.5541 -0.0828 -0.1308
13699TIP3    H162588   5.333   2.601   3.241 -0.2029 -0.1452  0.6216
13699TIP3    H262589   5.481   2.616   3.271  0.4037 -1.5521 -1.5959
13700TIP3   OH262590   4.938   3.520  13.638 -0.7680  0.1196  0.2576
13700TIP3    H162591   4.980   3.434  13.638 -1.0945 -0.0524  1.7094
13700TIP3    H262592   4.845   3.501  13.628 -0.6003  0.4703 -2.3742
13701TIP3   OH262593   2.510   4.831   6.589  0.1657  0.2166 -0.2009
13701TIP3    H162594   2.458   4.825   6.509 -0.7956  2.7581  0.1860
13701TIP3    H262595   2.536   4.741   6.608 -2.5958 -0.8812 -1.3859
13702TIP3   OH262596   5.908   0.320  16.309  0.3815 -0.2299  0.3321
13702TIP3    H162597   5.870   0.362  16.385 -0.0445 -0.4960  0.2679
13702TIP3    H262598   5.909   0.387  16.241 -0.2019 -0.2925  0.2600
13703TIP3   OH262599   4.488   0.660   2.453 -0.4403  0.4528 -0.4499
13703TIP3    H162600   4.576   0.685   2.482 -0.9455  1.1383  0.5110
13703TIP3    H262601   4.469   0.580   2.503 -1.0503  1.2699  0.6344
13704TIP3   OH262602   3.323   5.399  17.261  0.1588 -0.1439 -0.0346
13704TIP3    H162603   3.416   5.375  17.268  0.2386  0.4614  1.1001
13704TIP3    H262604   3.322   5.494  17.270 -0.6098 -0.1870  0.3552
13705TIP3   OH262605   4.794   0.637   1.757 -0.8521  0.0343  0.1461
13705TIP3    H162606   4.809   0.543   1.744 -0.3338  0.1769 -0.3422
13705TIP3    H262607   4.868   0.679   1.714 -0.6897  0.6472  1.0124
13706TIP3   OH262608   5.458   0.473  16.580 -0.2890  0.4379 -0.0290
13706TIP3    H162609   5.392   0.413  16.615 -0.0929  0.6876  0.7623
13706TIP3    H262610   5.412   0.556  16.572  0.0433  0.7149  0.9161
13707TIP3   OH262611   4.983   5.934   2.492  0.1022  0.2998 -0.4414
13707TIP3    H162612   5.025   5.865   2.542 -0.1637  0.0243 -0.5976
13707TIP3    H262613   4.932   5.983   2.557  0.8338  0.7630 -0.2190
13708TIP3   OH262614   3.510   0.017  14.367 -0.2273 -0.6144  0.5538
13708TIP3    H162615   3.463  -0.022  14.441 -0.5344  0.4600  0.9486
13708TIP3    H262616   3.482   0.109  14.368 -1.0330 -0.8236 -1.5462
13709TIP3   OH262617   6.520   1.888  12.822 -0.3983  0.3538  0.3236
13709TIP3    H162618   6.497   1.860  12.734  0.8683  3.4217 -1.0326
13709TIP3    H262619   6.614   1.872  12.829  0.1539  3.1715 -0.1206
13710TIP3   OH262620   3.334   0.734  12.584  0.4480  0.1370  0.6353
13710TIP3    H162621   3.343   0.682  12.505 -1.7464  1.6050 -0.6292
13710TIP3    H262622   3.292   0.675  12.647 -1.0974  0.0535 -0.4567
13711TIP3   OH262623   0.397   4.304  11.015 -0.0250  0.5089 -0.2837
13711TIP3    H162624   0.377   4.397  10.999 -0.1644  1.1636  3.3461
13711TIP3    H262625   0.463   4.305  11.085 -2.2570 -2.1668  1.9749
13712TIP3   OH262626   0.558   4.869   2.031  0.3528  0.2424  0.7517
13712TIP3    H162627   0.493   4.889   2.098  0.9763  1.1704  1.0870
13712TIP3    H262628   0.606   4.951   2.019 -0.2441  0.3138 -1.3752
13713TIP3   OH262629   3.602   2.224  15.060  0.2767 -0.3544 -0.1226
13713TIP3    H162630   3.685   2.270  15.044 -0.0121  0.2991  0.2195
13713TIP3    H262631   3.602   2.152  14.998  1.9540 -1.4762  1.1407
13714TIP3   OH262632   2.241   2.563   1.945  0.5475 -0.0336  0.2356
13714TIP3    H162633   2.270   2.572   2.036  2.2399  0.6557 -0.3584
13714TIP3    H262634   2.322   2.553   1.895 -0.4176 -1.4824 -1.0842
13715TIP3   OH262635   2.701   3.337  14.510 -0.7915 -0.1100 -0.0880
13715TIP3    H162636   2.647   3.259  14.495 -0.1249 -0.1342 -2.5712
13715TIP3    H262637   2.654   3.386  14.578 -1.8028 -2.0966  0.6929
13716TIP3   OH262638   2.041   4.117   3.730  0.1281  0.1432 -0.1328
13716TIP3    H162639   1.987   4.192   3.753 -0.1038 -0.1916  0.4137
13716TIP3    H262640   2.084   4.143   3.648 -0.3290  0.6733 -0.2073
13717TIP3   OH262641   5.785   3.239  11.291 -0.0058 -0.3125 -0.2291
13717TIP3    H162642   5.875   3.219  11.315  0.5096  0.6607 -1.3225
13717TIP3    H262643   5.746   3.274  11.371  0.6143 -0.6244  0.2089
13718TIP3   OH262644   6.028   3.490   3.461 -0.0255  0.7245  0.4608
13718TIP3    H162645   6.101   3.551   3.471 -0.7471  1.4241  1.6408
13718TIP3    H262646   5.981   3.497   3.544 -1.6533  0.5893 -0.4406
13719TIP3   OH262647   1.950   6.299  10.504  0.9139  0.3613 -0.1101
13719TIP3    H162648   1.891   6.224  10.508  1.4964 -0.0549  1.1044
13719TIP3    H262649   1.897   6.369  10.466  0.2052 -0.5185 -0.7588
13720TIP3   OH262650   0.495   5.792   4.363  1.0016 -0.5129  0.2293
13720TIP3    H162651   0.458   5.786   4.452 -0.9506 -1.9328 -0.6396
13720TIP3    H262652   0.589   5.789   4.377  0.7204 -0.9877  2.2613
13721TIP3   OH262653   2.152   0.520  14.882 -0.4535 -0.0423  0.1807
13721TIP3    H162654   2.197   0.603  14.867  0.3377  0.0706  2.8402
13721TIP3    H262655   2.124   0.491  14.795  4.6326 -0.0096 -1.6386
13722TIP3   OH262656   6.433   6.328  12.909 -0.3735  0.3563  0.3996
13722TIP3    H162657   6.513   6.276  12.905  1.5503  3.3216 -1.9022
13722TIP3    H262658   6.413   6.335  13.002  1.9871 -0.4592  0.9931
13723TIP3   OH262659   1.686   2.188  12.490  0.0920 -0.3337  0.0631
13723TIP3    H162660   1.598   2.152  12.496 -0.6913  1.0364 -2.4153
13723TIP3    H262661   1.678   2.277  12.523  0.3711  0.0603 -0.9242
13724TIP3   OH262662   4.840   3.642  16.064 -0.0303  0.2257  0.0439
13724TIP3    H162663   4.857   3.721  16.014 -2.5529 -1.0964 -3.1049
13724TIP3    H262664   4.764   3.663  16.118 -2.1020 -0.6396 -2.4399
13725TIP3   OH262665   2.642   1.065  10.865  0.1863  0.5366  0.1400
13725TIP3    H162666   2.588   1.095  10.792 -0.0813 -0.1087  0.0755
13725TIP3    H262667   2.709   1.009  10.824  0.0775  0.2288  0.3821
13726TIP3   OH262668   0.762   5.149  16.971  0.4539  0.0344  0.1563
13726TIP3    H162669   0.748   5.192  16.886 -1.0031  0.4573  0.5841
13726TIP3    H262670   0.682   5.169  17.020  0.5435 -1.6568  1.0103
13727TIP3   OH262671   3.315   2.677  11.521 -0.2049  1.0159 -0.1469
13727TIP3    H162672   3.377   2.697  11.452 -0.8648 -0.8513 -1.3317
13727TIP3    H262673   3.229   2.690  11.481 -0.6204 -1.7828 -0.2750
13728TIP3   OH262674   2.566   3.260   1.323 -0.1977 -0.6698  0.6274
13728TIP3    H162675   2.654   3.222   1.318  0.3292  0.4764  0.7384
13728TIP3    H262676   2.564   3.323   1.252 -0.9940 -0.8105  0.5280
13729TIP3   OH262677   6.257   1.452   4.975  0.5613  0.0828 -0.3331
13729TIP3    H162678   6.187   1.387   4.969 -0.6620  1.2838  0.6804
13729TIP3    H262679   6.306   1.427   5.053  1.6897 -1.1300 -1.3885
13730TIP3   OH262680   2.033   3.034   4.117 -0.5061 -0.5848  0.0559
13730TIP3    H162681   2.121   3.008   4.146 -1.7712 -2.6986  2.2011
13730TIP3    H262682   2.037   3.030   4.021  2.4896  2.0349  0.0108
13731TIP3   OH262683   1.805   3.209  12.636 -0.1638 -0.1179  0.0179
13731TIP3    H162684   1.766   3.220  12.550  0.6791  1.3487 -0.1876
13731TIP3    H262685   1.897   3.190  12.619 -0.2809 -1.2334  0.5694
13732TIP3   OH262686   0.325   6.020  10.784  0.4010 -0.0405  0.3391
13732TIP3    H162687   0.344   6.016  10.690 -4.0476 -0.7069 -0.6380
13732TIP3    H262688   0.359   6.105  10.812  1.2270  0.4354 -1.9915
13733TIP3   OH262689   0.831   5.775   5.620 -0.3070 -0.3972  0.9012
13733TIP3    H162690   0.771   5.768   5.546  0.8999 -0.9570 -0.0455
13733TIP3    H262691   0.863   5.686   5.634  1.5819  0.1496  0.2916
13734TIP3   OH262692   6.086   1.729  11.421  0.0550 -0.3560  0.6718
13734TIP3    H162693   6.043   1.698  11.501 -0.7972 -0.4217  0.1949
13734TIP3    H262694   6.029   1.799  11.389  0.9914  0.4449  0.7347
13735TIP3   OH262695   1.306   2.512  16.610 -0.3110 -0.4440 -0.4664
13735TIP3    H162696   1.235   2.549  16.662 -0.0587  1.0707 -1.1547
13735TIP3    H262697   1.296   2.553  16.524  1.2216 -0.4358 -0.6478
13736TIP3   OH262698   5.854   0.685  14.705 -0.4856  0.1649 -0.1068
13736TIP3    H162699   5.791   0.625  14.666  1.8890 -0.7988 -2.6388
13736TIP3    H262700   5.806   0.768  14.713 -2.6544 -1.0491 -0.1022
13737TIP3   OH262701   2.406   6.581  11.714 -0.2079 -0.1199 -0.1467
13737TIP3    H162702   2.416   6.544  11.802 -1.2206  1.4736  0.6623
13737TIP3    H262703   2.320   6.551  11.686 -0.0410 -0.3123 -0.4588
13738TIP3   OH262704   2.944   3.586   4.374 -0.0675 -0.2679 -0.5946
13738TIP3    H162705   2.956   3.496   4.403  1.4974  0.0792 -0.1660
13738TIP3    H262706   2.956   3.582   4.279  1.8641 -0.2110 -0.3692
13739TIP3   OH262707   2.189   4.703   4.766  0.0636  0.0244  0.6045
13739TIP3    H162708   2.145   4.742   4.690  0.6982  0.1801  0.3115
13739TIP3    H262709   2.275   4.676   4.733  0.5107  0.4816  1.3688
13740TIP3   OH262710   6.007   4.520   3.497 -0.0081  0.3728 -0.2162
13740TIP3    H162711   6.097   4.488   3.499  0.6731  2.1624 -1.2870
13740TIP3    H262712   5.955   4.444   3.473  1.3218 -0.4626 -0.4854
13741TIP3   OH262713   1.976   5.501  14.081  0.0185  0.6316 -0.0967
13741TIP3    H162714   1.942   5.419  14.045 -0.8851 -0.5395  3.2108
13741TIP3    H262715   1.898   5.554  14.096  0.1715  0.3389  1.8457
13742TIP3   OH262716   1.779   5.834   0.225  0.0839  0.5786 -0.0347
13742TIP3    H162717   1.774   5.860   0.317  1.4481  2.0340 -0.3307
13742TIP3    H262718   1.852   5.772   0.221 -0.2679  0.1679 -0.0557
13743TIP3   OH262719   6.310   3.808  16.228 -0.2015 -0.6639  0.1429
13743TIP3    H162720   6.219   3.787  16.206 -0.4131  1.0549 -0.7047
13743TIP3    H262721   6.358   3.800  16.146  0.1283 -0.1436  0.2762
13744TIP3   OH262722   6.619   3.309   2.440  0.4777 -0.3387 -0.5413
13744TIP3    H162723   6.553   3.242   2.417  0.0922 -0.1431 -0.0024
13744TIP3    H262724   6.700   3.275   2.402 -0.0648 -0.2413 -1.8269
13745TIP3   OH262725   3.628   4.945  13.680 -0.2467  0.0607 -0.1758
13745TIP3    H162726   3.558   4.933  13.615 -0.9745 -1.2006  0.8062
13745TIP3    H262727   3.708   4.948  13.628 -0.9790  1.0952 -1.2922
13746TIP3   OH262728   6.673   2.200   4.616 -0.0724  0.1074  0.2142
13746TIP3    H162729   6.711   2.122   4.578 -0.2991 -0.5290  1.2766
13746TIP3    H262730   6.633   2.170   4.698  1.0063  1.5742  1.2980
13747TIP3   OH262731   2.179   6.803  11.831  0.3515 -0.4302 -0.5064
13747TIP3    H162732   2.210   6.875  11.777  0.4077 -0.3509 -0.3701
13747TIP3    H262733   2.181   6.727  11.773 -0.8867 -0.0942 -1.0031
13748TIP3   OH262734   5.427   6.783   0.195 -0.6466 -0.0616  0.3708
13748TIP3    H162735   5.469   6.860   0.157 -1.2288  0.4942  0.8560
13748TIP3    H262736   5.495   6.716   0.193 -0.3782  0.2371 -0.7643
13749TIP3   OH262737   5.243   3.270   4.928  0.2015  0.0726 -0.2901
13749TIP3    H162738   5.280   3.291   5.014  0.0891 -1.5074  0.1473
13749TIP3    H262739   5.153   3.245   4.946 -0.2710  1.2001 -1.0520
13750TIP3   OH262740   1.393   4.697   3.938  0.0195 -0.0473 -0.3236
13750TIP3    H162741   1.369   4.777   3.984  0.3238  0.4701 -1.0521
13750TIP3    H262742   1.315   4.675   3.887  0.5077  0.7192 -1.4160
13751TIP3   OH262743   0.661   5.010   1.112  0.1291 -0.5635 -0.7134
13751TIP3    H162744   0.749   4.986   1.142 -1.6920 -2.5278  3.5067
13751TIP3    H262745   0.629   4.931   1.069 -1.0548 -1.3192  1.4932
13752TIP3   OH262746   3.371   4.641   5.342  0.2427 -0.1182  0.4475
13752TIP3    H162747   3.439   4.614   5.404  1.7254  0.6845 -0.7800
13752TIP3    H262748   3.413   4.633   5.256 -1.1812  0.5417 -0.3272
13753TIP3   OH262749   0.137   0.405  12.015  0.4855 -0.2297 -0.4286
13753TIP3    H162750   0.128   0.313  11.991 -1.6421 -0.6150  1.7061
13753TIP3    H262751   0.063   0.449  11.972  0.7331  0.2662 -0.3542
13754TIP3   OH262752   2.011   4.867  12.352 -0.2086 -0.5096 -0.0559
13754TIP3    H162753   1.936   4.898  12.403  0.5698 -0.5824  1.1420
13754TIP3    H262754   1.977   4.791  12.304 -0.8301 -0.7128  0.6919
13755TIP3   OH262755   3.198   4.218   0.295 -0.5946 -0.0009 -0.2319
13755TIP3    H162756   3.230   4.220   0.386 -1.1464  0.5004 -0.0453
13755TIP3    H262757   3.131   4.286   0.292  1.0757  1.6237 -1.6317
13756TIP3   OH262758   5.602   4.713   4.015 -0.0901 -0.7516  0.0078
13756TIP3    H162759   5.525   4.755   3.976  1.8732  1.3567 -1.7445
13756TIP3    H262760   5.595   4.622   3.987 -1.4738 -0.3903 -0.9172
13757TIP3   OH262761   1.176   2.005  14.262  0.2417  0.4552  0.7050
13757TIP3    H162762   1.084   2.033  14.272 -1.0685 -2.8910 -1.4521
13757TIP3    H262763   1.182   1.925  14.314  1.1421 -0.9498 -1.5222
13758TIP3   OH262764   2.424   3.436  12.186  0.2570 -0.5213  0.1548
13758TIP3    H162765   2.429   3.453  12.092  0.8875  0.4038  0.3441
13758TIP3    H262766   2.466   3.351  12.198 -0.8448 -1.1659 -0.5391
13759TIP3   OH262767   4.682   0.475  16.322  0.0396  0.5164 -0.9712
13759TIP3    H162768   4.591   0.475  16.294  0.6323  0.3153 -2.9372
13759TIP3    H262769   4.712   0.385  16.307  1.5869  1.4484 -3.8708
13760TIP3   OH262770   5.279   6.481   4.164 -0.4731 -0.5233 -0.2890
13760TIP3    H162771   5.184   6.472   4.176 -0.4620 -2.5849 -1.4808
13760TIP3    H262772   5.288   6.515   4.075 -0.0582 -1.9167 -0.7899
13761TIP3   OH262773   1.381   6.555   0.384 -0.0881 -0.2535  0.1371
13761TIP3    H162774   1.352   6.646   0.394  0.1054 -0.1652 -0.0988
13761TIP3    H262775   1.322   6.505   0.441 -2.4024 -0.4061 -2.2654
13762TIP3   OH262776   2.895   1.541  16.466 -0.1447  0.0891  0.1478
13762TIP3    H162777   2.949   1.555  16.389 -0.1059 -1.9939 -0.2468
13762TIP3    H262778   2.814   1.588  16.448 -0.1445 -0.4199 -1.1763
13763TIP3   OH262779   3.158   1.991  12.117 -0.0598  0.1399  0.1391
13763TIP3    H162780   3.174   1.954  12.204 -0.3292 -1.3283 -0.4344
13763TIP3    H262781   3.231   1.958  12.064 -0.0418  0.8208 -0.2575
13764TIP3   OH262782   6.553   0.570   2.936 -0.1125 -0.1230 -0.5532
13764TIP3    H162783   6.507   0.566   3.020 -2.8308  0.3391 -1.9684
13764TIP3    H262784   6.606   0.491   2.934 -2.4725 -1.7774  0.2513
13765TIP3   OH262785   5.147   1.573  13.956 -0.3454 -0.3360 -0.1753
13765TIP3    H162786   5.206   1.586  13.882  0.1812 -1.2038  0.0853
13765TIP3    H262787   5.170   1.644  14.017 -1.1066  0.6651 -1.0353
13766TIP3   OH262788   0.470   5.388   3.815  0.4716 -0.0678  0.8966
13766TIP3    H162789   0.416   5.467   3.812 -0.4204 -0.6964 -1.4788
13766TIP3    H262790   0.549   5.412   3.766  2.5090  0.9174  4.5496
13767TIP3   OH262791   5.995   0.092   5.294 -0.2808 -0.1854  0.6623
13767TIP3    H162792   5.956   0.177   5.274 -1.1004 -0.2762  1.8313
13767TIP3    H262793   6.088   0.111   5.305 -0.6304  0.8103  2.1451
13768TIP3   OH262794   0.057   3.754  16.631 -0.5904  0.5348  0.3095
13768TIP3    H162795   0.103   3.827  16.589  1.3300 -0.7810  0.0506
13768TIP3    H262796   0.085   3.759  16.723 -0.4779  0.1469  0.2946
13769TIP3   OH262797   6.034   5.919   2.313  0.2060  0.4020  0.3510
13769TIP3    H162798   6.037   5.848   2.249 -2.1171 -0.2125  0.8809
13769TIP3    H262799   6.033   5.999   2.260  3.5634  0.1381 -0.2356
13770TIP3   OH262800   1.492   1.820   6.046  0.1670  0.0750  0.8342
13770TIP3    H162801   1.471   1.791   5.957 -1.2117  2.2528  0.4274
13770TIP3    H262802   1.546   1.749   6.081 -1.4778 -2.0728 -0.7930
13771TIP3   OH262803   4.387   5.376   0.333  0.0851  0.7687  0.2226
13771TIP3    H162804   4.380   5.284   0.308 -2.8415  1.1567 -0.6015
13771TIP3    H262805   4.469   5.381   0.382  1.0179 -1.9770 -0.9385
13772TIP3   OH262806   1.777   4.327   2.263  0.1575  0.2594 -0.4825
13772TIP3    H162807   1.788   4.263   2.333  0.3303  0.0852 -0.6673
13772TIP3    H262808   1.859   4.325   2.215 -0.9163 -1.5779 -2.3148
13773TIP3   OH262809   5.659   6.279  13.530 -0.3657  0.5212  0.2674
13773TIP3    H162810   5.715   6.305  13.457  0.5255 -1.8646  0.0430
13773TIP3    H262811   5.717   6.277  13.605 -1.1133  2.1933  0.9226
13774TIP3   OH262812   3.996   5.801   4.634 -0.0555  0.2926  0.6080
13774TIP3    H162813   3.952   5.728   4.591  0.4050  0.4908 -0.2075
13774TIP3    H262814   3.935   5.829   4.702 -0.7313 -0.1086  0.1720
13775TIP3   OH262815   0.643   0.001   1.602  0.9362 -0.0150 -0.0839
13775TIP3    H162816   0.736   0.023   1.603  0.7773  0.9131  3.6926
13775TIP3    H262817   0.601   0.075   1.558  1.7683  0.7924  0.4456
13776TIP3   OH262818   4.968   3.278  17.230  0.0229 -0.3384 -0.6760
13776TIP3    H162819   4.886   3.298  17.187  1.0611  0.5796 -2.2722
13776TIP3    H262820   5.032   3.338  17.190  1.4838 -1.1113  0.4376
13777TIP3   OH262821   1.309   2.451   3.956  0.6664  0.0249 -0.6688
13777TIP3    H162822   1.387   2.504   3.968  0.7244 -0.0339 -0.7854
13777TIP3    H262823   1.340   2.361   3.953  0.8199  0.1156 -2.6180
13778TIP3   OH262824   3.042   0.632   0.665 -0.2869  0.0036  0.4007
13778TIP3    H162825   2.984   0.661   0.594 -0.1249  0.3074  0.3959
13778TIP3    H262826   3.099   0.567   0.624  1.1485  1.6459 -0.2254
13779TIP3   OH262827   3.107   1.421  14.045  0.5194 -0.3323  0.3646
13779TIP3    H162828   3.135   1.331  14.030  0.9800  0.0775 -1.4728
13779TIP3    H262829   3.033   1.414  14.106  1.7952 -1.7751  1.7744
13780TIP3   OH262830   0.537   4.445   6.601  0.2439 -0.8228  0.1906
13780TIP3    H162831   0.567   4.420   6.513 -0.0993 -1.5433  0.2753
13780TIP3    H262832   0.554   4.368   6.655  0.3912 -0.4063  0.7497
13781TIP3   OH262833   5.446   2.349  16.859 -0.1228  0.0054  0.1271
13781TIP3    H162834   5.433   2.376  16.767  2.3805  0.9496  0.0018
13781TIP3    H262835   5.400   2.416  16.910  2.5934  2.3461 -0.3379
13782TIP3   OH262836   1.365   0.427  15.642 -0.0334 -0.1513 -0.8418
13782TIP3    H162837   1.366   0.452  15.550 -0.3365  0.8686 -0.5735
13782TIP3    H262838   1.275   0.400  15.659 -0.4971  1.6364 -0.3366
13783TIP3   OH262839   2.516   3.849   4.960  0.2126  0.1244 -0.4456
13783TIP3    H162840   2.520   3.838   4.865  0.2553 -0.5586 -0.3670
13783TIP3    H262841   2.558   3.770   4.995 -0.5583 -0.0240  0.1537
13784TIP3   OH262842   2.635   3.833  11.236  0.2721  0.4909 -0.0303
13784TIP3    H162843   2.587   3.774  11.177  1.5697 -0.7725  0.1395
13784TIP3    H262844   2.602   3.920  11.215 -1.4845 -0.2602 -0.4868
13785TIP3   OH262845   4.266   4.032  15.479 -0.2260 -0.2470  0.0752
13785TIP3    H162846   4.361   4.030  15.486 -0.3863 -0.0395  2.7329
13785TIP3    H262847   4.244   4.125  15.483 -0.6383 -0.3855  1.1409
13786TIP3   OH262848   2.813   3.375  15.108  0.0663  0.4988 -0.3043
13786TIP3    H162849   2.846   3.288  15.089  0.0492  0.3008  0.5520
13786TIP3    H262850   2.728   3.380  15.063  0.5124  0.4284 -1.1566
13787TIP3   OH262851   6.157   2.508  15.625  0.3499 -0.2718  0.4150
13787TIP3    H162852   6.208   2.467  15.695 -0.4025  0.1780  1.2376
13787TIP3    H262853   6.199   2.479  15.544  0.6084 -1.6277  1.0228
13788TIP3   OH262854   2.943   5.938  11.471 -0.0362 -0.3912 -0.9819
13788TIP3    H162855   2.901   6.021  11.494 -3.0599 -1.6608 -1.8290
13788TIP3    H262856   2.969   5.901  11.556 -1.7492 -0.1742 -0.3504
13789TIP3   OH262857   3.677   1.170  16.804 -0.3334  0.1878 -0.0242
13789TIP3    H162858   3.583   1.161  16.788 -0.1974 -0.3398 -0.5660
13789TIP3    H262859   3.688   1.153  16.897 -0.5241 -1.9269 -0.3559
13790TIP3   OH262860   2.517   2.915   4.338 -0.4010 -0.4359 -0.0015
13790TIP3    H162861   2.477   3.000   4.320  1.6091  0.3628 -0.8782
13790TIP3    H262862   2.520   2.910   4.434 -1.8480 -0.1747  0.0637
13791TIP3   OH262863   3.754   6.433  15.754 -0.4037  0.1673 -0.3879
13791TIP3    H162864   3.716   6.400  15.835 -2.1057 -3.5798 -2.5896
13791TIP3    H262865   3.714   6.519  15.741 -0.4958  0.5825  2.4428
13792TIP3   OH262866   1.397   3.468   3.128  0.1436  0.1101 -0.1389
13792TIP3    H162867   1.329   3.400   3.135 -1.3787  1.7453  1.4997
13792TIP3    H262868   1.455   3.451   3.202  0.4509 -0.1199 -0.4297
13793TIP3   OH262869   0.677   0.449  17.122 -0.0121  0.1980 -0.7798
13793TIP3    H162870   0.753   0.499  17.093 -0.1352  0.1280 -1.2334
13793TIP3    H262871   0.657   0.482  17.209  0.2093  0.5905 -0.8793
13794TIP3   OH262872   0.054   1.801   2.556 -0.2253  0.1075 -0.5436
13794TIP3    H162873  -0.028   1.850   2.560  0.2103  0.7020  1.7061
13794TIP3    H262874   0.103   1.844   2.486 -0.8455  1.3279 -0.2463
13795TIP3   OH262875   5.206   1.253  11.745  0.1782  0.1417 -0.1854
13795TIP3    H162876   5.206   1.340  11.705  1.3988 -0.1901 -0.9256
13795TIP3    H262877   5.265   1.261  11.820  0.6391 -0.1618 -0.5134
13796TIP3   OH262878   5.343   3.427  14.115  0.0570 -0.4702  0.0416
13796TIP3    H162879   5.307   3.339  14.106 -2.4161  0.5637 -0.3089
13796TIP3    H262880   5.292   3.467  14.185  2.2422  0.1766  1.3333
13797TIP3   OH262881   3.440   3.480  16.730 -0.3538  0.5574  0.3317
13797TIP3    H162882   3.421   3.431  16.811  0.2126 -1.8649 -0.9574
13797TIP3    H262883   3.483   3.560  16.760  2.3336 -1.5221  2.3537
13798TIP3   OH262884   0.226   5.494  11.662 -0.1894  0.3217 -0.2170
13798TIP3    H162885   0.211   5.519  11.571 -0.5544  1.8035  0.2452
13798TIP3    H262886   0.193   5.568  11.714  1.7146  0.3265  1.0592
13799TIP3   OH262887   6.092   6.819   4.159 -0.0253 -0.0084  0.3404
13799TIP3    H162888   6.058   6.828   4.248 -0.1209 -0.5837  0.3673
13799TIP3    H262889   6.014   6.819   4.104  0.1776  3.0240  0.0134
13800TIP3   OH262890   1.994   3.953  10.869 -0.1538 -0.2128 -0.3415
13800TIP3    H162891   1.970   3.865  10.898  1.3613 -0.3747  0.5261
13800TIP3    H262892   1.912   3.993  10.841 -0.5432 -2.6860 -2.9610
13801TIP3   OH262893   4.950   0.205   0.816 -0.1775 -0.0139  0.1168
13801TIP3    H162894   4.856   0.190   0.823 -0.5158  1.3125 -1.3717
13801TIP3    H262895   4.963   0.295   0.849  0.8825 -0.9414  2.3749
13802TIP3   OH262896   0.842   3.570   1.467  0.1186  0.7407  0.0454
13802TIP3    H162897   0.830   3.478   1.441 -1.2714  0.5189  1.4027
13802TIP3    H262898   0.757   3.610   1.452  0.2895  1.4363  0.9594
13803TIP3   OH262899   6.818   3.264   1.987 -0.7730 -0.2032 -0.4757
13803TIP3    H162900   6.902   3.222   2.004 -0.3189  2.4199  4.5673
13803TIP3    H262901   6.841   3.345   1.942 -0.5637  0.6080  1.0802
13804TIP3   OH262902   0.001   2.706   0.060 -0.6181  0.1331  0.2178
13804TIP3    H162903  -0.018   2.779   0.119  1.0464 -1.0096  2.2212
13804TIP3    H262904  -0.041   2.630   0.101  1.4138 -0.8674  0.5013
13805TIP3   OH262905   2.025   0.880  13.887  0.2958  0.1790  0.2538
13805TIP3    H162906   2.008   0.827  13.964 -1.0449  0.1913 -0.0245
13805TIP3    H262907   2.090   0.944  13.915 -1.9862  1.7672  2.0822
13806TIP3   OH262908   4.442   2.363  11.950  0.7395  0.0423  0.1930
13806TIP3    H162909   4.520   2.308  11.957  0.8854  0.0544 -1.0855
13806TIP3    H262910   4.474   2.447  11.916  0.0909 -0.1896 -1.0301
13807TIP3   OH262911   5.186   4.424  14.934  0.3598  0.6019 -0.0909
13807TIP3    H162912   5.160   4.333  14.916  0.2283  0.9325 -1.6851
13807TIP3    H262913   5.269   4.416  14.981  1.1433 -0.3294 -1.5835
13808TIP3   OH262914   5.398   0.597  13.132  0.2898  0.4515  0.2170
13808TIP3    H162915   5.376   0.690  13.139  0.3261  0.4484  0.3727
13808TIP3    H262916   5.460   0.582  13.203 -0.7597  0.0018  1.0687
13809TIP3   OH262917   1.232   6.742  14.039 -0.1062 -0.3487 -0.2018
13809TIP3    H162918   1.263   6.833  14.035 -0.2680 -0.1556  2.2120
13809TIP3    H262919   1.269   6.701  13.961  0.8604  1.5137 -0.7627
13810TIP3   OH262920   1.234   1.453   1.836 -0.1689 -0.5488  0.5603
13810TIP3    H162921   1.156   1.399   1.833  0.3323 -1.2638  0.2248
13810TIP3    H262922   1.299   1.399   1.880 -0.7276  1.1751  3.6251
13811TIP3   OH262923   1.716   5.618  16.293 -0.1896  0.8755 -0.4078
13811TIP3    H162924   1.650   5.674  16.334 -0.6509  1.0356 -1.3785
13811TIP3    H262925   1.671   5.535  16.277  0.3120  0.4244  0.4290
13812TIP3   OH262926   5.583   4.671  16.536 -0.2523  0.5747  0.5374
13812TIP3    H162927   5.601   4.762  16.560  0.1441  0.9392 -1.0617
13812TIP3    H262928   5.524   4.678  16.460 -1.6996 -0.5288  1.5388
13813TIP3   OH262929   1.730   5.811   3.096  0.1843  0.3362  0.3822
13813TIP3    H162930   1.780   5.893   3.102  0.2860  0.4776 -1.8510
13813TIP3    H262931   1.761   5.770   3.015 -1.1052 -1.0820  0.5831
13814TIP3   OH262932   1.069   5.002   2.037 -0.2754 -0.1715  1.4381
13814TIP3    H162933   1.126   5.061   1.988  0.1738  0.2502  2.4460
13814TIP3    H262934   1.040   5.055   2.112 -1.2176 -0.6935  1.4458
13815TIP3   OH262935   3.022   2.792  12.349  0.2369 -0.4950  0.6426
13815TIP3    H162936   3.062   2.761  12.268  0.3723  0.1993  0.4352
13815TIP3    H262937   2.952   2.850  12.320  1.6478  1.4783  1.0000
13816TIP3   OH262938   0.497   1.088   1.626  0.3289 -0.4471 -0.4110
13816TIP3    H162939   0.490   0.992   1.623 -0.1568 -0.4284  0.0563
13816TIP3    H262940   0.408   1.118   1.642  0.5380  0.0709 -0.2120
13817TIP3   OH262941   0.849   4.902  14.004 -0.3695 -0.5950  0.4700
13817TIP3    H162942   0.859   4.892  13.909 -0.7284  0.6563  0.2908
13817TIP3    H262943   0.805   4.821  14.032 -2.9498  0.2809 -0.8686
13818TIP3   OH262944   2.011   1.789  12.557 -0.1257  0.3015 -0.1136
13818TIP3    H162945   2.046   1.864  12.510  0.5892 -0.1660 -0.3284
13818TIP3    H262946   2.087   1.732  12.574 -0.7137 -0.5500 -0.2825
13819TIP3   OH262947   2.707   2.063   1.682 -0.2945 -0.3933 -0.1449
13819TIP3    H162948   2.686   1.973   1.656 -0.5079 -0.2147 -0.5891
13819TIP3    H262949   2.767   2.095   1.615  0.2305 -0.3962  0.3219
13820TIP3   OH262950   4.950   3.799   5.272 -0.2818  0.0294  0.9256
13820TIP3    H162951   4.864   3.761   5.255  0.8760 -1.8047 -1.1852
13820TIP3    H262952   4.933   3.891   5.290 -2.7493 -0.4724  1.2608
13821TIP3   OH262953   0.238   0.676   5.863  0.2961  0.3538  0.2440
13821TIP3    H162954   0.208   0.643   5.948  1.0723 -0.2153  0.3016
13821TIP3    H262955   0.157   0.691   5.814 -0.0859 -2.0843  0.0643
13822TIP3   OH262956   5.435   4.294  16.098 -0.4275 -0.1177 -0.7308
13822TIP3    H162957   5.487   4.237  16.153 -1.1766  0.2166  0.3402
13822TIP3    H262958   5.492   4.314  16.024 -0.4276 -2.9057 -1.5653
13823TIP3   OH262959   3.964   5.559   2.259  0.1966  0.4446 -0.0624
13823TIP3    H162960   3.939   5.597   2.175  0.5298  0.3095 -0.2233
13823TIP3    H262961   3.973   5.634   2.318 -0.3668  0.5090 -0.0641
13824TIP3   OH262962   0.398   0.277   4.900 -0.7042 -0.1533  0.5258
13824TIP3    H162963   0.385   0.224   4.821  0.1011 -0.1768  0.4064
13824TIP3    H262964   0.398   0.367   4.868  0.1894 -0.1916  0.4259
13825TIP3   OH262965   3.467   5.711   0.320 -0.9399 -0.1660 -0.1103
13825TIP3    H162966   3.489   5.779   0.256 -0.4502 -0.7765 -0.5896
13825TIP3    H262967   3.534   5.644   0.309 -1.4054 -0.7242  0.3840
13826TIP3   OH262968   0.264   3.356   2.212  0.1034  0.1499 -0.1623
13826TIP3    H162969   0.323   3.346   2.137 -0.0368  0.6570 -0.3490
13826TIP3    H262970   0.315   3.405   2.276 -0.7623  2.3997 -1.1224
13827TIP3   OH262971   2.613   5.531  14.618  0.1558 -0.8532  0.5134
13827TIP3    H162972   2.700   5.509  14.584  0.5720  1.1642  0.2062
13827TIP3    H262973   2.568   5.573  14.544 -1.0902 -1.8686  0.6720
13828TIP3   OH262974   6.213   6.571   2.075  0.1118 -0.0087  0.2994
13828TIP3    H162975   6.141   6.535   2.023 -0.8450  2.0564  0.1825
13828TIP3    H262976   6.288   6.516   2.051 -1.0907 -1.3257 -0.5870
13829TIP3   OH262977   3.577   2.300   2.237 -0.0013  0.0603  0.0840
13829TIP3    H162978   3.605   2.368   2.298 -0.7927  0.4456  0.0301
13829TIP3    H262979   3.494   2.268   2.273  0.1421 -0.5727 -0.1310
13830TIP3   OH262980   1.867   2.554   6.538 -0.4620  0.4659  0.3714
13830TIP3    H162981   1.787   2.598   6.507 -0.3627  0.8754  0.6863
13830TIP3    H262982   1.935   2.621   6.528 -0.3446  0.4459  1.0466
13831TIP3   OH262983   2.626   0.503   3.697 -0.3087 -0.0017 -0.0527
13831TIP3    H162984   2.654   0.419   3.660 -1.2184  0.0876 -0.9821
13831TIP3    H262985   2.559   0.480   3.762  1.3150 -0.1609  1.5996
13832TIP3   OH262986   3.666   4.209  14.011 -0.4663 -0.2999  0.6266
13832TIP3    H162987   3.633   4.286  13.965 -2.7079 -1.9212 -0.5899
13832TIP3    H262988   3.716   4.161  13.944 -0.8874 -0.9491  0.7630
13833TIP3   OH262989   2.713   3.779   3.454  0.8671 -0.6893 -0.7000
13833TIP3    H162990   2.703   3.711   3.520  1.9891 -0.3485 -0.1536
13833TIP3    H262991   2.641   3.840   3.471  0.0390 -1.5688 -0.9993
13834TIP3   OH262992   5.827   4.488  12.365 -0.6553  0.0650  0.1447
13834TIP3    H162993   5.824   4.481  12.270  1.8937  1.2611 -0.0582
13834TIP3    H262994   5.763   4.557  12.386  0.7314  1.7334 -0.9725
13835TIP3   OH262995   3.885   3.056  11.374  0.2249  0.4595 -0.0639
13835TIP3    H162996   3.881   3.054  11.278 -1.5787 -0.2185 -0.0085
13835TIP3    H262997   3.977   3.043  11.395  0.6059  0.4080 -1.7131
13836TIP3   OH262998   4.929   3.114   0.873 -0.5526 -0.3904 -0.1907
13836TIP3    H162999   4.871   3.062   0.929 -1.2217  1.6353  1.0574
13836TIP3    H263000   4.890   3.108   0.786 -1.1747 -1.1535  0.1267
13837TIP3   OH263001   4.755   0.142  14.126  0.1511  0.7637 -0.1461
13837TIP3    H163002   4.741   0.217  14.069  0.8299  1.1415  0.1695
13837TIP3    H263003   4.766   0.179  14.214 -0.4746  0.2215  0.1650
13838TIP3   OH263004   1.237   6.771  12.350 -0.2907  0.6636  0.1528
13838TIP3    H163005   1.198   6.847  12.394 -1.3755 -0.4775  1.1988
13838TIP3    H263006   1.264   6.805  12.264 -0.4123  2.3199  0.7405
13839TIP3   OH263007   5.136   6.620   2.682 -0.5192  0.3332 -0.0472
13839TIP3    H163008   5.197   6.687   2.652 -1.1323  1.2069  0.6361
13839TIP3    H263009   5.192   6.547   2.710  0.0878 -0.2426 -2.6364
13840TIP3   OH263010   3.484   4.147   2.987  0.0618  0.2586 -0.1663
13840TIP3    H163011   3.575   4.145   3.015  0.2827 -0.1576 -0.9066
13840TIP3    H263012   3.441   4.206   3.049  0.2507 -1.7211  1.9124
13841TIP3   OH263013   1.440   0.789  13.853  0.2741  0.0070  0.1064
13841TIP3    H163014   1.348   0.809  13.874 -0.0542 -0.5000 -0.8400
13841TIP3    H263015   1.477   0.874  13.827 -0.6275 -0.2426 -2.0634
13842TIP3   OH263016   2.121   6.628   3.078 -0.3132  0.3526  0.6124
13842TIP3    H163017   2.209   6.626   3.040 -0.6300 -1.8111 -0.0955
13842TIP3    H263018   2.134   6.602   3.170 -0.6139 -4.0718 -0.4933
13843TIP3   OH263019   2.071   1.337   2.927 -0.4809  0.5153  0.2860
13843TIP3    H163020   2.089   1.419   2.881  0.5877 -0.5386 -1.2519
13843TIP3    H263021   2.027   1.282   2.863 -1.7889  0.0974  1.5075
13844TIP3   OH263022   2.824   5.133  14.320  0.3076 -0.2122  0.3278
13844TIP3    H163023   2.903   5.187  14.327  0.2706 -0.2005  0.6890
13844TIP3    H263024   2.798   5.139  14.228 -1.1730  2.5253  0.8579
13845TIP3   OH263025   6.566   6.042  12.280 -0.6091 -0.1129 -0.0749
13845TIP3    H163026   6.539   6.068  12.368 -1.3264 -0.4515 -0.1954
13845TIP3    H263027   6.629   5.971  12.294 -1.0517 -0.4656  0.1572
13846TIP3   OH263028   5.460   4.774  10.767 -0.5613 -0.1527 -0.3350
13846TIP3    H163029   5.465   4.696  10.712 -0.5479 -0.3237 -0.0890
13846TIP3    H263030   5.542   4.820  10.751  0.6606 -1.5755  1.6098
13847TIP3   OH263031   0.227   6.301  14.524 -0.4157  0.1644 -0.3832
13847TIP3    H163032   0.143   6.311  14.568  1.1204 -2.7013  3.5247
13847TIP3    H263033   0.210   6.235  14.456 -0.8338 -2.3390  2.0644
13848TIP3   OH263034   5.518   6.669   0.907  0.4939 -0.1461  0.4971
13848TIP3    H163035   5.448   6.731   0.928  2.2902  2.1027  0.0111
13848TIP3    H263036   5.577   6.672   0.982  0.1398 -1.9911  0.8800
13849TIP3   OH263037   1.881   4.521  13.530  0.3760 -0.0252  0.3845
13849TIP3    H163038   1.895   4.493  13.440  0.1075 -2.8760  1.1675
13849TIP3    H263039   1.969   4.534  13.565  0.6431 -2.1884  0.6272
13850TIP3   OH263040   2.811   6.357  13.738 -0.0975  0.1059  0.5349
13850TIP3    H163041   2.760   6.334  13.816 -0.7986 -0.9414 -0.2229
13850TIP3    H263042   2.832   6.449  13.750 -0.4747  0.0354  1.8183
13851TIP3   OH263043   1.748   0.691  15.863  0.4720  0.2765 -0.3223
13851TIP3    H163044   1.664   0.651  15.840  0.8059 -0.6215  0.0296
13851TIP3    H263045   1.787   0.714  15.778 -0.2468  0.9611 -0.4773
13852TIP3   OH263046   0.066   6.165  12.625 -0.0560 -0.1814 -0.0786
13852TIP3    H163047   0.131   6.123  12.681  2.8052  2.8543 -0.9853
13852TIP3    H263048   0.089   6.137  12.536 -1.0650 -0.4164 -0.2773
13853TIP3   OH263049   6.430   0.920   6.287  0.5974  0.3408  0.5038
13853TIP3    H163050   6.396   0.854   6.348 -0.3212  0.6961  0.3790
13853TIP3    H263051   6.355   0.944   6.233  0.9651  1.3974  0.4625
13854TIP3   OH263052   2.900   1.312  15.417  0.6317 -0.2532 -0.2865
13854TIP3    H163053   2.840   1.318  15.491  0.5033 -1.3126 -0.2983
13854TIP3    H263054   2.921   1.218  15.411  2.3261  0.0957 -0.2346
13855TIP3   OH263055   2.590   0.989   4.331  0.3367 -0.5247  0.4839
13855TIP3    H163056   2.553   0.955   4.413 -1.1501 -0.1426 -0.0240
13855TIP3    H263057   2.537   0.948   4.262  2.1808 -1.5809 -0.3370
13856TIP3   OH263058   1.950   2.914  11.503  0.4449 -0.1149  0.0560
13856TIP3    H163059   1.950   2.861  11.423  0.1039  1.3089 -0.8985
13856TIP3    H263060   1.888   2.985  11.485  0.3444  0.2049  1.5976
13857TIP3   OH263061   0.922   4.231  12.451 -0.1823 -0.1814  0.5605
13857TIP3    H163062   0.956   4.314  12.486  2.8954 -1.6146  1.1881
13857TIP3    H263063   0.969   4.219  12.369 -0.7982 -1.1831  0.3472
13858TIP3   OH263064   0.626   2.837   2.966 -0.1229  0.4303 -0.5409
13858TIP3    H163065   0.600   2.758   2.919  0.1766  0.3565 -0.5877
13858TIP3    H263066   0.612   2.816   3.058  2.1219 -0.5156 -0.3870
13859TIP3   OH263067   1.620   3.499   0.263 -0.3598 -0.3623 -0.1945
13859TIP3    H163068   1.560   3.431   0.233 -1.5086  0.5612  0.0072
13859TIP3    H263069   1.706   3.468   0.235 -0.8783 -1.8632 -0.1755
13860TIP3   OH263070   2.374   1.845   0.716 -0.0237 -0.3830 -0.1976
13860TIP3    H163071   2.451   1.793   0.736 -1.1105 -2.3676 -0.9270
13860TIP3    H263072   2.404   1.910   0.653  1.0564 -1.1281 -0.4615
13861TIP3   OH263073   0.779   6.305  13.783 -0.5055  0.0647  0.0871
13861TIP3    H163074   0.740   6.306  13.870  0.2041 -2.5071  0.4760
13861TIP3    H263075   0.788   6.397  13.760  0.8541  0.8667  3.4408
13862TIP3   OH263076   5.813   2.491   6.016 -0.3568  0.3870  0.0746
13862TIP3    H163077   5.759   2.559   5.976  1.3411  1.2295 -0.8187
13862TIP3    H263078   5.823   2.425   5.947 -1.1650 -0.3206  0.6136
13863TIP3   OH263079   6.452   4.923   4.444 -0.4484  0.4024  0.0333
13863TIP3    H163080   6.498   4.954   4.366 -0.0798  0.2659  0.1967
13863TIP3    H263081   6.521   4.892   4.502 -0.6265  1.6990  0.9570
13864TIP3   OH263082   0.979   6.440  15.031  0.1552  0.4281 -0.2195
13864TIP3    H163083   1.046   6.508  15.025  1.1242 -0.3880  1.1031
13864TIP3    H263084   0.975   6.418  15.124 -0.2550 -1.2122 -0.6089
13865TIP3   OH263085   2.449   6.548  14.859  0.0600  0.2282  0.2709
13865TIP3    H163086   2.373   6.491  14.872  0.1625 -0.1533 -0.8375
13865TIP3    H263087   2.521   6.501  14.901 -0.5827  1.3020  2.7274
13866TIP3   OH263088   1.060   1.731  11.479 -0.2912 -0.0833  0.4813
13866TIP3    H163089   1.114   1.693  11.409 -0.7956  0.4574 -0.2091
13866TIP3    H263090   1.123   1.753  11.548  0.3878  0.5753 -0.3269
13867TIP3   OH263091   6.775   3.855   1.495  0.1337 -0.0894  0.0864
13867TIP3    H163092   6.817   3.926   1.448 -0.0086 -0.9258 -1.3378
13867TIP3    H263093   6.840   3.826   1.559  0.3665  0.9874  0.3435
13868TIP3   OH263094   3.027   0.129   4.293 -0.4406  0.3205 -0.2886
13868TIP3    H163095   3.114   0.107   4.327 -0.4199 -2.8494 -2.1829
13868TIP3    H263096   3.045   0.173   4.210 -0.6109 -1.6591 -1.4074
13869TIP3   OH263097   5.457   6.152  12.139 -0.7494  0.3602 -0.5649
13869TIP3    H163098   5.403   6.177  12.063 -0.1565  1.1222 -0.7430
13869TIP3    H263099   5.433   6.215  12.207 -1.5521 -0.5528  0.0186
13870TIP3   OH263100   1.315   6.287   3.484 -0.0220 -0.1262 -0.3576
13870TIP3    H163101   1.324   6.373   3.442  1.7534 -0.2525 -0.2842
13870TIP3    H263102   1.322   6.224   3.412  0.8829 -0.2717 -0.1505
13871TIP3   OH263103   4.659   0.488  13.427 -0.2365  0.0035  0.3957
13871TIP3    H163104   4.744   0.464  13.461  0.1974 -0.5261 -1.0393
13871TIP3    H263105   4.671   0.578  13.394 -0.6349  0.4876  1.5684
13872TIP3   OH263106   1.215   4.078   2.753 -0.2905 -0.4801  0.2009
13872TIP3    H163107   1.148   4.032   2.702 -0.9561  1.7887 -1.0125
13872TIP3    H263108   1.205   4.043   2.842 -2.7392 -0.5466 -0.0684
13873TIP3   OH263109   6.487   3.204   3.830 -0.1184 -0.1656 -0.0600
13873TIP3    H163110   6.550   3.132   3.830 -3.5874 -3.3695 -0.9088
13873TIP3    H263111   6.447   3.200   3.917 -1.2875 -0.1966 -0.5862
13874TIP3   OH263112   2.232   6.366  12.038 -1.1129  0.0315  0.0862
13874TIP3    H163113   2.308   6.419  12.061  0.0380 -2.1964  1.5914
13874TIP3    H263114   2.258   6.322  11.956 -0.5048 -1.2105  0.9315
13875TIP3   OH263115   0.143   0.450   5.048 -0.1972 -0.2013  0.2513
13875TIP3    H163116   0.116   0.531   5.003 -0.5693 -0.2865  0.3201
13875TIP3    H263117   0.099   0.454   5.133 -1.6742 -1.3318 -0.4270
13876TIP3   OH263118   4.130   1.647   3.966  0.0848  0.0116  0.3785
13876TIP3    H163119   4.042   1.673   3.937  0.3134 -0.2716 -0.5841
13876TIP3    H263120   4.174   1.618   3.886  2.2610  3.5174  0.1970
13877TIP3   OH263121   0.573   5.296  10.575  0.3535  0.3053 -0.2249
13877TIP3    H163122   0.660   5.329  10.555  0.7409 -0.3443  0.3539
13877TIP3    H263123   0.582   5.201  10.575 -0.0095  0.2523  1.2892
13878TIP3   OH263124   0.324   6.443   3.854 -0.1448 -0.4377  0.5820
13878TIP3    H163125   0.407   6.420   3.813 -0.0696  0.9468 -0.0613
13878TIP3    H263126   0.281   6.358   3.870 -0.0480 -1.0240 -2.0935
13879TIP3   OH263127   5.028   5.627  16.599  0.6526  0.0637 -0.0018
13879TIP3    H163128   5.092   5.558  16.582  0.7853 -0.5900  2.9375
13879TIP3    H263129   5.045   5.655  16.689 -2.1869  0.9265  0.3294
13880TIP3   OH263130   3.089   4.168  16.187 -0.2397 -0.0601  0.7730
13880TIP3    H163131   3.168   4.163  16.241 -0.8368 -1.1197  1.5664
13880TIP3    H263132   3.048   4.251  16.212  1.8297  1.6765 -1.3641
13881TIP3   OH263133   2.985   3.597  15.124 -0.3241  0.2154  0.5244
13881TIP3    H163134   2.969   3.615  15.031  0.4948 -1.7622 -0.0196
13881TIP3    H263135   2.947   3.510  15.138  2.4585 -0.9433  1.2185
13882TIP3   OH263136   3.725   6.259  12.992  0.1107  0.8286  0.1089
13882TIP3    H163137   3.688   6.301  12.915  1.2865  1.5295 -0.0843
13882TIP3    H263138   3.688   6.170  12.992 -1.4530  1.4673 -0.1390
13883TIP3   OH263139   2.359   5.394  15.898  0.4069 -0.1359 -0.2844
13883TIP3    H163140   2.439   5.381  15.847  1.1287  0.7407  0.6014
13883TIP3    H263141   2.301   5.443  15.840  1.0126  0.3567 -0.4879
13884TIP3   OH263142   5.318   5.292  16.276 -0.5962  0.4955 -0.4017
13884TIP3    H163143   5.380   5.366  16.266  0.3119 -0.5194 -2.8368
13884TIP3    H263144   5.247   5.313  16.215 -0.1766 -0.7860 -1.3367
13885TIP3   OH263145   5.102   5.232  15.882  0.0748 -0.4881  0.0194
13885TIP3    H163146   5.185   5.201  15.919  1.3384  0.9951 -1.4695
13885TIP3    H263147   5.037   5.171  15.915  1.8515 -2.0667  0.7259
13886TIP3   OH263148   0.057   5.798   1.014  0.1545 -0.3116 -0.1165
13886TIP3    H163149   0.149   5.826   1.017  0.4458 -1.1018 -1.2770
13886TIP3    H263150   0.046   5.762   0.926 -1.0432 -0.9942  0.3049
13887TIP3   OH263151   5.018   3.846   4.487  0.2377 -0.1444  0.4219
13887TIP3    H163152   4.929   3.877   4.475 -0.1556 -1.5622 -0.3791
13887TIP3    H263153   5.026   3.832   4.582 -0.2173  0.4770  0.5496
13888TIP3   OH263154   2.977   1.960  12.593 -0.4646  0.3545  0.2628
13888TIP3    H163155   3.039   1.934  12.662 -0.0641  1.1182  0.1922
13888TIP3    H263156   2.891   1.934  12.628 -0.2335  0.4512  0.9228
13889TIP3   OH263157   1.732   5.990  16.983  0.2345  0.1454 -0.7901
13889TIP3    H163158   1.653   5.941  17.004  1.0751 -0.0873  2.1327
13889TIP3    H263159   1.801   5.924  16.979  0.6146  0.5669 -1.3194
13890TIP3   OH263160   3.212   0.461   0.504  0.1103 -0.2834  0.0456
13890TIP3    H163161   3.276   0.490   0.440  1.0415 -0.8973  0.6841
13890TIP3    H263162   3.255   0.389   0.551  0.0298  1.0886  2.3357
13891TIP3   OH263163   2.720   4.979  12.375 -0.3917  0.0927  0.3034
13891TIP3    H163164   2.641   5.008  12.420 -0.2373 -0.4521  0.9306
13891TIP3    H263165   2.792   5.006  12.433 -0.1493  0.0228  0.0380
13892TIP3   OH263166   5.201   6.223  14.300  0.3364  0.0247 -0.2651
13892TIP3    H163167   5.280   6.220  14.354  1.0686 -0.4284 -1.3423
13892TIP3    H263168   5.172   6.132  14.295 -0.0623  0.1457 -0.1558
13893TIP3   OH263169   6.019   1.952  11.001 -0.2541  0.1480  0.5837
13893TIP3    H163170   6.090   1.888  11.007  0.4001  1.0140  2.5013
13893TIP3    H263171   6.054   2.021  10.944 -0.6674 -0.7957 -0.8391
13894TIP3   OH263172   4.611   0.064   3.503 -0.0652 -0.5021  0.1734
13894TIP3    H163173   4.628   0.124   3.430 -1.0292 -0.2429  0.1513
13894TIP3    H263174   4.673  -0.008   3.491  0.9030  0.3438  0.0301
13895TIP3   OH263175   5.933   4.604  16.732  0.0904  0.3238 -0.0520
13895TIP3    H163176   5.924   4.540  16.803  0.1966  0.2963 -0.0644
13895TIP3    H263177   5.906   4.687  16.772 -1.5060  0.0102 -0.4520
13896TIP3   OH263178   3.843   2.917   2.541  0.2556  0.3436 -0.2606
13896TIP3    H163179   3.875   2.995   2.496 -0.4813  1.0886  0.5001
13896TIP3    H263180   3.903   2.905   2.615 -0.2937  0.8460  0.2714
13897TIP3   OH263181   6.029   3.137  11.318 -0.1748 -0.1860 -0.1983
13897TIP3    H163182   6.084   3.215  11.320  0.3002 -0.4241 -2.8151
13897TIP3    H263183   6.079   3.071  11.367 -0.5184  1.0648  1.9062
13898TIP3   OH263184   1.244   2.201   4.937 -0.3213  0.1295  0.5166
13898TIP3    H163185   1.218   2.110   4.949 -0.3799  0.2953  1.7458
13898TIP3    H263186   1.312   2.198   4.869 -0.3420 -0.8237  0.5338
13899TIP3   OH263187   5.839   5.288  11.848 -0.0706 -0.4125  0.2652
13899TIP3    H163188   5.769   5.226  11.827 -0.4407 -0.2822  1.1067
13899TIP3    H263189   5.896   5.240  11.908 -0.5660  0.1956  1.2207
13900TIP3   OH263190   1.402   1.554   3.293 -0.1291 -0.4392 -0.6907
13900TIP3    H163191   1.355   1.581   3.372 -0.4144  0.0804 -1.0365
13900TIP3    H263192   1.372   1.464   3.277 -2.0271  0.3312 -1.6598
13901TIP3   OH263193   6.773   4.210   4.164  0.1618  0.1813 -0.2870
13901TIP3    H163194   6.720   4.147   4.212  2.0777 -1.9578 -0.9094
13901TIP3    H263195   6.811   4.266   4.232 -0.4120 -0.2357  0.3769
13902TIP3   OH263196   5.066   0.525   6.015  0.9184 -0.3255  0.2548
13902TIP3    H163197   5.009   0.596   6.046 -0.0794 -1.6492  1.4789
13902TIP3    H263198   5.007   0.464   5.972  1.4348 -1.6194  1.3701
13903TIP3   OH263199   5.415   5.366   4.925  0.3753  0.2132 -0.6050
13903TIP3    H163200   5.325   5.341   4.946  0.3140  1.2868  0.4758
13903TIP3    H263201   5.406   5.431   4.855  0.3679 -0.3549 -1.1381
13904TIP3   OH263202   3.567   0.688  13.859  0.2289 -0.0761  0.3103
13904TIP3    H163203   3.622   0.612  13.879 -0.8915 -1.2365 -0.8932
13904TIP3    H263204   3.629   0.753  13.824  1.1261 -0.6247  0.8506
13905TIP3   OH263205   1.762   3.593   3.422  0.1207 -0.1910 -0.0497
13905TIP3    H163206   1.789   3.674   3.466 -0.5365 -1.3304  2.5742
13905TIP3    H263207   1.734   3.621   3.335 -0.8056  2.5224  1.0540
13906TIP3   OH263208   5.701   6.624  15.170 -0.3167 -0.1269  0.3288
13906TIP3    H163209   5.780   6.595  15.215  0.4837 -0.1063 -1.0479
13906TIP3    H263210   5.633   6.563  15.200  0.7054 -1.5632 -0.1965
13907TIP3   OH263211   4.846   3.092   2.165 -0.3912  0.3166  0.1149
13907TIP3    H163212   4.849   3.121   2.256 -0.5835 -1.3078  0.6533
13907TIP3    H263213   4.805   3.165   2.118  2.1820  2.2896  0.8524
13908TIP3   OH263214   4.890   5.652  15.460  1.2055  0.3910 -0.2143
13908TIP3    H163215   4.910   5.641  15.553  1.1989  0.2739 -0.2261
13908TIP3    H263216   4.862   5.565  15.431 -1.3343  1.0119  0.2980
13909TIP3   OH263217   0.081   5.699   2.695  0.2934  0.2893  0.2710
13909TIP3    H163218   0.129   5.691   2.613  1.2223  0.1110  0.8216
13909TIP3    H263219  -0.009   5.716   2.669  0.4080 -0.6686 -0.8072
13910TIP3   OH263220   5.779   3.267   0.660 -0.1866 -0.3013  0.1985
13910TIP3    H163221   5.815   3.355   0.666  0.3099 -0.4655 -0.3576
13910TIP3    H263222   5.694   3.273   0.703  1.1643 -0.2844  2.9568
13911TIP3   OH263223   3.845   4.321  11.540 -0.4176 -1.0569  0.5872
13911TIP3    H163224   3.792   4.274  11.475  0.3755 -1.4977  0.2425
13911TIP3    H263225   3.805   4.407  11.546 -1.1160 -1.3545  0.2649
13912TIP3   OH263226   3.957   4.888   4.094 -0.1978  0.0760 -0.0296
13912TIP3    H163227   3.979   4.799   4.123  0.6203 -0.3370 -1.8816
13912TIP3    H263228   4.033   4.940   4.120 -0.5336  0.1781  0.7600
13913TIP3   OH263229   3.597   4.473   6.624 -0.4147  0.5703  0.0785
13913TIP3    H163230   3.670   4.462   6.563 -1.1825 -0.4607 -0.6876
13913TIP3    H263231   3.606   4.402   6.686 -0.8972  0.2918 -0.1641
13914TIP3   OH263232   5.738   4.244   5.880  0.3654 -0.2407 -0.1530
13914TIP3    H163233   5.808   4.262   5.818 -0.6969  2.0078 -0.7631
13914TIP3    H263234   5.682   4.180   5.835  0.3411  0.3420 -0.9611
13915TIP3   OH263235   1.342   4.655   2.891 -0.0040  0.0818 -0.3757
13915TIP3    H163236   1.385   4.624   2.971 -1.0067  0.2006  0.2115
13915TIP3    H263237   1.338   4.750   2.901 -1.0630  0.0094 -0.0942
13916TIP3   OH263238   2.050   1.944  11.672  0.0316 -0.7967 -0.6762
13916TIP3    H163239   2.002   2.026  11.683 -0.6964 -1.1644 -1.0897
13916TIP3    H263240   2.014   1.886  11.739 -0.0747 -1.0612 -0.9624
13917TIP3   OH263241   5.203   6.597  12.378  0.0582 -0.1942  0.2986
13917TIP3    H163242   5.145   6.529  12.414 -1.4419  1.4486  1.0566
13917TIP3    H263243   5.201   6.667  12.443  2.5100  0.1301  0.0661
13918TIP3   OH263244   1.166   4.432   5.224 -0.2373  0.7520 -0.1449
13918TIP3    H163245   1.258   4.428   5.250 -0.4184  1.4447  0.6057
13918TIP3    H263246   1.117   4.422   5.306 -0.8213  1.8555 -0.3512
13919TIP3   OH263247   6.774   3.976   4.884 -0.7457 -0.0665 -0.2965
13919TIP3    H163248   6.847   3.973   4.823 -1.2955 -0.0600 -0.9579
13919TIP3    H263249   6.747   3.884   4.894 -0.4929 -0.0963  0.1402
13920TIP3   OH263250   2.647   1.037   1.862 -0.2625 -0.0541 -0.2283
13920TIP3    H163251   2.693   1.001   1.786 -1.6659  1.3346 -1.7647
13920TIP3    H263252   2.714   1.088   1.908  0.1669  0.5663 -1.5224
13921TIP3   OH263253   0.732   2.779  14.675  0.0104 -0.0522 -0.4259
13921TIP3    H163254   0.696   2.694  14.649 -0.3908  0.0190 -0.1041
13921TIP3    H263255   0.688   2.799  14.758  0.6892  0.1009 -0.1038
13922TIP3   OH263256   4.762   4.135  14.120  0.1284  0.0087 -0.3300
13922TIP3    H163257   4.800   4.062  14.071  1.2122  0.3482 -0.0168
13922TIP3    H263258   4.689   4.165  14.066  1.3062  0.3874 -1.7613
13923TIP3   OH263259   0.148   4.227   1.149  0.3436 -0.0037  0.5031
13923TIP3    H163260   0.076   4.188   1.099 -0.6058 -0.4189  2.1700
13923TIP3    H263261   0.166   4.310   1.104 -1.0529  0.0163 -0.0446
13924TIP3   OH263262   5.923   2.285   3.213 -0.1234 -0.6817 -0.2530
13924TIP3    H163263   5.994   2.291   3.276 -0.2415  0.1971 -0.1996
13924TIP3    H263264   5.965   2.267   3.129  0.4710  3.0469 -0.8513
13925TIP3   OH263265   5.713   3.937  11.769  0.0502  0.4577  0.0641
13925TIP3    H163266   5.626   3.897  11.772 -0.8674  2.4794  3.8873
13925TIP3    H263267   5.772   3.869  11.801 -0.3254 -0.3572 -0.9306
13926TIP3   OH263268   4.794   5.323   2.086  0.5576  0.2654  0.1925
13926TIP3    H163269   4.748   5.359   2.010  0.5110 -0.5941 -0.1880
13926TIP3    H263270   4.739   5.251   2.115  1.7747 -0.9210 -0.4079
13927TIP3   OH263271   3.691   3.878  11.367 -0.0149  0.5011  0.3883
13927TIP3    H163272   3.643   3.803  11.333 -0.6497  1.1514 -0.1371
13927TIP3    H263273   3.738   3.843  11.443 -0.8295 -0.2756  0.5419
13928TIP3   OH263274   6.103   1.410  10.700  0.2532  0.0742  0.2837
13928TIP3    H163275   6.153   1.488  10.726 -0.0648  0.3030  0.2047
13928TIP3    H263276   6.168   1.339  10.702  0.5092  0.3109  0.5063
13929TIP3   OH263277   1.777   0.201   3.343 -0.2324 -0.1316  0.0269
13929TIP3    H163278   1.703   0.144   3.361  1.5636 -2.6204 -0.1951
13929TIP3    H263279   1.842   0.178   3.409  1.0251  0.7188 -0.8840
13930TIP3   OH263280   3.932   3.429   3.950 -0.0651  0.0860  0.3720
13930TIP3    H163281   3.853   3.449   4.000  0.3797 -1.1026  1.5912
13930TIP3    H263282   3.930   3.334   3.937  1.0355  0.0670  0.2328
13931TIP3   OH263283   0.950   2.172  11.756 -0.0426 -0.3010  0.1874
13931TIP3    H163284   1.036   2.203  11.729 -1.2995  1.3323 -2.0179
13931TIP3    H263285   0.939   2.088  11.711  0.8963 -1.1663  1.5138
13932TIP3   OH263286   0.024   0.782   5.733  0.0405  0.4828 -0.9113
13932TIP3    H163287   0.081   0.842   5.686 -0.3324  0.5223 -1.3223
13932TIP3    H263288  -0.064   0.805   5.703 -0.2242  0.7205  0.0446
13933TIP3   OH263289   5.081   4.506  11.792 -0.2839 -0.6339  0.0468
13933TIP3    H163290   5.055   4.588  11.834  1.3418 -0.1335  0.0943
13933TIP3    H263291   5.121   4.532  11.710 -1.6670 -1.5152 -0.9364
13934TIP3   OH263292   5.517   3.867  12.385 -0.4920  0.5078  0.2534
13934TIP3    H163293   5.444   3.858  12.325  0.1690 -1.3944 -0.3009
13934TIP3    H263294   5.569   3.939  12.349 -1.0433  0.5620 -0.4404
13935TIP3   OH263295   1.392   0.003   2.784  0.0542  0.1422 -0.4700
13935TIP3    H163296   1.358   0.092   2.780  0.7257  0.4128 -0.2501
13935TIP3    H263297   1.413  -0.019   2.693 -0.7007 -0.0311 -0.6095
13936TIP3   OH263298   0.782   0.383  13.821 -0.2783  0.2065 -0.4602
13936TIP3    H163299   0.703   0.333  13.839 -0.3266 -0.2030 -1.7899
13936TIP3    H263300   0.822   0.339  13.746  0.9998  0.6517 -0.0565
13937TIP3   OH263301   0.295   4.310   1.393  0.0133 -0.0977 -0.2406
13937TIP3    H163302   0.274   4.390   1.344 -0.4842  0.3272  0.6557
13937TIP3    H263303   0.275   4.239   1.332  0.8158  0.4596 -1.1812
13938TIP3   OH263304   4.155   5.463   5.166 -0.5410  0.2727  0.4059
13938TIP3    H163305   4.239   5.480   5.209 -1.1812 -1.6690  2.5284
13938TIP3    H263306   4.179   5.426   5.081  0.7507  0.7713  0.5392
13939TIP3   OH263307   6.059   6.536  16.265 -0.1875  0.5079  0.6984
13939TIP3    H163308   6.077   6.493  16.348  0.0334  0.0311  0.4048
13939TIP3    H263309   5.965   6.554  16.267 -0.1543  0.6520  1.1150
13940TIP3   OH263310   1.484   0.312   0.706  0.0376  0.6723 -0.0280
13940TIP3    H163311   1.430   0.346   0.634 -0.8552 -0.1006  0.2624
13940TIP3    H263312   1.571   0.349   0.691 -0.1387  0.5094 -1.5148
13941TIP3   OH263313   0.999   0.963  11.222  0.6311 -0.8513  0.1512
13941TIP3    H163314   0.981   0.999  11.309 -0.0337 -0.4824 -0.1322
13941TIP3    H263315   1.095   0.960  11.217  0.6757 -0.9821  0.9346
13942TIP3   OH263316   5.995   1.241  15.422  0.5020  0.1989  0.7502
13942TIP3    H163317   5.960   1.158  15.392 -1.2805  0.9514  0.6561
13942TIP3    H263318   6.062   1.264  15.358  0.2721 -0.6668  0.2011
13943TIP3   OH263319   5.556   4.623   0.081 -0.1859 -0.3319 -0.1640
13943TIP3    H163320   5.610   4.594   0.155  0.6826 -0.7269 -0.9253
13943TIP3    H263321   5.615   4.616   0.006 -0.7295  1.1034 -0.7271
13944TIP3   OH263322   2.339   0.107   2.700  0.2161 -0.1278 -0.4847
13944TIP3    H163323   2.416   0.093   2.756  0.1448  2.5516  0.3570
13944TIP3    H263324   2.308   0.019   2.679  1.7909 -1.2118  1.5627
13945TIP3   OH263325   5.630   3.268   5.114  0.5081  0.8753 -0.2423
13945TIP3    H163326   5.597   3.180   5.095  1.8558  0.2061  0.5248
13945TIP3    H263327   5.621   3.315   5.031  1.1059 -0.4043 -1.0413
13946TIP3   OH263328   4.464   6.765  15.653 -0.7378  0.5216 -0.2490
13946TIP3    H163329   4.438   6.820  15.727 -0.0592  0.7704 -0.1922
13946TIP3    H263330   4.553   6.793  15.632  0.1670 -1.5004  0.6764
13947TIP3   OH263331   0.358   2.233  12.414  0.2265  0.5758 -0.4021
13947TIP3    H163332   0.427   2.275  12.467 -0.9959  0.1775  1.5848
13947TIP3    H263333   0.304   2.306  12.383 -0.2095  0.7070  0.6196
13948TIP3   OH263334   4.564   2.350  13.552 -0.0724  0.2865  0.3618
13948TIP3    H163335   4.623   2.376  13.623  0.8617  1.7970 -0.9231
13948TIP3    H263336   4.586   2.409  13.480 -0.8423 -1.3481 -1.2615
13949TIP3   OH263337   6.009   5.685  15.292 -0.8847  0.0832  0.2056
13949TIP3    H163338   5.998   5.653  15.202  1.2418  0.3022 -0.1521
13949TIP3    H263339   6.031   5.777  15.281  3.6323 -0.8456  0.6987
13950TIP3   OH263340   4.996   4.791   2.586  0.1814 -0.0806 -0.3525
13950TIP3    H163341   4.921   4.803   2.527  0.3501  3.6849  0.0475
13950TIP3    H263342   4.969   4.722   2.646 -2.4572  0.2902 -1.0391
13951TIP3   OH263343   2.785   3.850  16.894 -0.4822 -0.5277 -0.1581
13951TIP3    H163344   2.767   3.775  16.838 -1.0280 -1.6373  1.4417
13951TIP3    H263345   2.701   3.868  16.937  0.0524 -0.0767  0.7116
13952TIP3   OH263346   6.288   5.388   5.497  0.2416 -0.2080  0.0117
13952TIP3    H163347   6.208   5.335   5.501  0.1189  0.1144  2.9901
13952TIP3    H263348   6.358   5.327   5.519  0.7260 -0.2426 -1.5440
13953TIP3   OH263349   1.732   2.757  12.946 -0.4448  0.3797  0.1927
13953TIP3    H163350   1.647   2.780  12.984  0.2667  1.9506  0.8763
13953TIP3    H263351   1.789   2.744  13.022 -0.1687 -1.0783 -0.2543
13954TIP3   OH263352   5.524   1.183  13.594  0.5934 -0.2728 -0.5221
13954TIP3    H163353   5.493   1.236  13.521  0.9102 -3.9358 -3.5092
13954TIP3    H263354   5.444   1.157  13.640  0.2240  0.4823 -0.7278
13955TIP3   OH263355   1.796   6.711  15.641 -0.2349 -0.3594  0.1004
13955TIP3    H163356   1.733   6.648  15.606  1.5721 -1.8677 -0.5225
13955TIP3    H263357   1.817   6.768  15.567 -2.5009  1.5662  0.8750
13956TIP3   OH263358   4.851   3.082  12.299  0.1230 -0.2715  0.3335
13956TIP3    H163359   4.830   3.125  12.383  1.4829  0.2080  0.4285
13956TIP3    H263360   4.855   2.989  12.321  1.1419 -0.0940  0.9563
13957TIP3   OH263361   5.681   4.211  11.791 -0.1397  0.3582  0.7637
13957TIP3    H163362   5.628   4.244  11.863 -1.7067  0.4999 -0.4490
13957TIP3    H263363   5.666   4.117  11.791 -1.2412  0.5301 -0.2582
13958TIP3   OH263364   0.447   5.312  13.627  0.4639  0.2321  0.0218
13958TIP3    H163365   0.489   5.394  13.652 -1.4215  1.1322  0.3690
13958TIP3    H263366   0.439   5.263  13.709 -1.6579  1.2750  0.4925
13959TIP3   OH263367   4.226   4.010   4.715  0.2013 -0.0908 -0.3866
13959TIP3    H163368   4.162   3.978   4.652 -0.2287 -1.8105  0.9026
13959TIP3    H263369   4.220   3.950   4.788  2.7498  0.1929  0.0920
13960TIP3   OH263370   3.546   0.372  13.156  0.3059 -0.2932 -0.1111
13960TIP3    H163371   3.549   0.311  13.230 -0.9611 -1.1400 -0.7288
13960TIP3    H263372   3.625   0.425  13.165 -1.0585  1.2974  3.2615
13961TIP3   OH263373   5.881   2.445   2.615  0.0318 -0.1829  0.4551
13961TIP3    H163374   5.821   2.455   2.542  1.1118  1.2323 -0.2791
13961TIP3    H263375   5.828   2.460   2.693 -1.0148 -1.1954 -0.0508
13962TIP3   OH263376   5.454   3.924   0.638 -0.2889  0.1132 -0.4019
13962TIP3    H163377   5.414   3.853   0.587  0.2335 -0.8248  0.4624
13962TIP3    H263378   5.396   3.934   0.714  0.5479 -0.5398  0.3264
13963TIP3   OH263379   6.077   5.219   3.588 -0.1634 -0.0864  0.4214
13963TIP3    H163380   6.138   5.180   3.651  0.4633 -0.9943 -0.7115
13963TIP3    H263381   6.130   5.285   3.542  0.0378 -0.9726 -0.6599
13964TIP3   OH263382   3.852   1.684  14.289  0.2916 -0.7581 -0.6259
13964TIP3    H163383   3.758   1.676  14.301  0.2541  0.5132 -0.0276
13964TIP3    H263384   3.869   1.778  14.289  1.8477 -0.9887  1.6427
13965TIP3   OH263385   6.587   2.719  11.793  0.2060  0.0832 -0.3274
13965TIP3    H163386   6.547   2.633  11.802  0.0179  0.3153  1.2285
13965TIP3    H263387   6.633   2.733  11.875 -0.8031  1.9852 -0.0416
13966TIP3   OH263388   5.042   1.444   1.767 -0.5863  0.2085  0.2193
13966TIP3    H163389   5.121   1.486   1.734 -0.1560  1.2610  2.5199
13966TIP3    H263390   4.975   1.513   1.763 -1.2259 -0.4653 -1.0313
13967TIP3   OH263391   4.222   2.698   2.651  0.9106  0.4952 -0.3080
13967TIP3    H163392   4.181   2.615   2.628  0.1510  0.9075 -0.4671
13967TIP3    H263393   4.217   2.703   2.746 -0.3233  1.0023 -0.3929
13968TIP3   OH263394   5.617   2.289  11.735 -0.1119 -0.3919 -0.5645
13968TIP3    H163395   5.661   2.239  11.666 -3.3731 -1.5656 -1.8638
13968TIP3    H263396   5.643   2.245  11.816  1.9516 -0.3886 -1.1960
13969TIP3   OH263397   0.421   4.168  14.582 -0.2613  0.0912 -0.7113
13969TIP3    H163398   0.509   4.202  14.597  0.1491 -0.8296 -0.9784
13969TIP3    H263399   0.385   4.156  14.670  0.6696 -1.5213 -0.5228
13970TIP3   OH263400   3.643   6.482  12.423 -0.0910  0.2010 -0.2097
13970TIP3    H163401   3.696   6.404  12.440  0.3580 -0.4595 -4.0991
13970TIP3    H263402   3.697   6.555  12.455  0.8804 -0.8577  0.5959
13971TIP3   OH263403   2.920   6.661   1.069  0.8677  0.3788 -0.2828
13971TIP3    H163404   2.891   6.591   1.011 -2.0793 -0.5561  2.2071
13971TIP3    H263405   2.997   6.625   1.113  1.8949  0.3301 -2.0984
13972TIP3   OH263406   5.291   3.747   0.505  0.4050  0.3265  0.7286
13972TIP3    H163407   5.216   3.688   0.495  0.8383 -0.2342  0.7435
13972TIP3    H263408   5.264   3.828   0.461  0.6148 -0.6292 -1.2021
13973TIP3   OH263409   5.353   0.195  16.820 -0.1622 -0.7015 -0.3389
13973TIP3    H163410   5.445   0.187  16.796  0.1629  2.7535 -0.4171
13973TIP3    H263411   5.305   0.169  16.742  0.7666 -0.3594 -1.0319
13974TIP3   OH263412   1.594   3.362   3.339  0.0335 -0.2556 -0.3116
13974TIP3    H163413   1.535   3.327   3.406  0.3477 -0.7348 -0.2802
13974TIP3    H263414   1.657   3.415   3.387  0.0363 -0.2972 -0.2700
13975TIP3   OH263415   4.743   1.365  14.975  0.3435 -0.3015  0.0421
13975TIP3    H163416   4.703   1.291  15.021  1.4571 -1.2267 -0.4433
13975TIP3    H263417   4.674   1.400  14.919 -0.2326 -0.8743  0.3904
13976TIP3   OH263418   6.196   5.819  12.888 -0.5983 -0.2273  0.3569
13976TIP3    H163419   6.163   5.869  12.963 -1.9097  1.7069 -1.4750
13976TIP3    H263420   6.243   5.883  12.835  1.8147 -1.9402  0.3470
13977TIP3   OH263421   2.145   1.324  11.450 -0.1488  0.1390 -0.0716
13977TIP3    H163422   2.230   1.317  11.407  0.1608  4.5351 -0.3917
13977TIP3    H263423   2.082   1.315  11.379  0.1795  0.6244 -0.4325
13978TIP3   OH263424   3.493   1.758  16.937 -0.4049 -0.0424 -0.4507
13978TIP3    H163425   3.441   1.828  16.898 -0.8881  1.4005  2.6300
13978TIP3    H263426   3.434   1.714  16.997  1.0308 -0.4930  0.6583
13979TIP3   OH263427   0.349   6.110   0.307 -0.2130  0.2672  0.5748
13979TIP3    H163428   0.410   6.062   0.363  2.2205  1.7375 -0.7339
13979TIP3    H263429   0.264   6.095   0.347  0.8386 -2.7359  1.8457
13980TIP3   OH263430   3.623   6.504   4.443  0.1958  0.7725  0.1375
13980TIP3    H163431   3.673   6.547   4.513  1.2625  1.2136 -0.8682
13980TIP3    H263432   3.664   6.418   4.434  0.6467  1.0527 -0.5387
13981TIP3   OH263433   0.100   0.582  16.144  0.0637 -0.5373  0.4826
13981TIP3    H163434   0.098   0.639  16.067 -1.2221 -0.8955  0.2525
13981TIP3    H263435   0.180   0.608  16.190  0.1841  0.5356 -0.3135
13982TIP3   OH263436   0.000   2.363  12.904 -0.5998  0.3340 -0.0739
13982TIP3    H163437  -0.090   2.337  12.920 -0.4945  0.6260  0.9986
13982TIP3    H263438   0.023   2.320  12.821 -1.6844  0.1898 -0.3091
13983TIP3   OH263439   3.397   1.137   6.387  0.6729  0.4596  0.1011
13983TIP3    H163440   3.453   1.097   6.454  3.4658  0.0540 -2.4002
13983TIP3    H263441   3.347   1.064   6.351  1.3798  0.1909 -0.3366
13984TIP3   OH263442   6.805   5.714  16.497  0.0595 -0.0158 -0.2745
13984TIP3    H163443   6.795   5.805  16.523 -0.1514  0.4409 -1.8580
13984TIP3    H263444   6.718   5.676  16.504 -0.0708  0.2070 -0.6925
13985TIP3   OH263445   3.346   6.001  11.065  0.1476  1.1069  0.4104
13985TIP3    H163446   3.254   6.025  11.066 -0.6741 -1.8618  2.3280
13985TIP3    H263447   3.362   5.971  10.976 -1.3875 -0.5943  0.6843
13986TIP3   OH263448   2.268   1.004  14.274  0.0645 -0.1295  0.0343
13986TIP3    H163449   2.300   0.920  14.244  0.7326 -0.4718  1.6362
13986TIP3    H263450   2.326   1.068  14.232 -0.5285 -0.4409 -1.2862
13987TIP3   OH263451   2.714   5.923   2.677 -0.6190 -0.1685 -0.3216
13987TIP3    H163452   2.642   5.884   2.628  0.6234 -3.7243  0.5384
13987TIP3    H263453   2.788   5.922   2.615  0.1250 -1.7736  0.5506
13988TIP3   OH263454   2.643   4.515   2.846 -0.4522  0.1440  0.0122
13988TIP3    H163455   2.642   4.603   2.882  1.4485  1.2507 -2.4747
13988TIP3    H263456   2.559   4.506   2.800 -0.1950  1.0596 -0.6351
13989TIP3   OH263457   5.505   0.998  15.929 -0.2761 -0.3954  0.2730
13989TIP3    H163458   5.513   1.047  16.011 -1.6325  1.1250 -0.4624
13989TIP3    H263459   5.412   1.003  15.908  0.1395 -0.3403 -1.6043
13990TIP3   OH263460   0.411   6.440   4.392  0.3173 -0.1344 -0.1595
13990TIP3    H163461   0.328   6.460   4.435  1.3963 -1.2749  2.5527
13990TIP3    H263462   0.395   6.356   4.348  0.1650 -0.5875  0.7486
13991TIP3   OH263463   4.423   3.814   2.903  0.4889  0.4731  0.0982
13991TIP3    H163464   4.341   3.834   2.949  0.1110  2.2422 -1.2700
13991TIP3    H263465   4.410   3.727   2.866  1.0935 -1.3352  3.9082
13992TIP3   OH263466   2.692   1.316   3.660 -0.8264 -0.2839 -0.2658
13992TIP3    H163467   2.772   1.356   3.627 -1.4623  0.5177 -0.8850
13992TIP3    H263468   2.720   1.234   3.700  0.1715 -0.4598 -1.3085
13993TIP3   OH263469   5.138   1.241  15.634  0.5587 -0.2430 -0.1923
13993TIP3    H163470   5.066   1.284  15.588 -0.6731 -0.0448  1.8292
13993TIP3    H263471   5.144   1.154  15.595 -0.6249 -0.1692 -0.5561
13994TIP3   OH263472   3.619   0.490  11.013  0.6118 -0.5061 -0.2693
13994TIP3    H163473   3.715   0.491  11.012  0.6385  2.1950 -2.3891
13994TIP3    H263474   3.595   0.443  10.933  0.2527  1.3747 -1.3167
13995TIP3   OH263475   0.438   6.599   1.132  0.4225 -0.0715 -0.8677
13995TIP3    H163476   0.453   6.589   1.038 -0.1125 -0.6373 -0.8977
13995TIP3    H263477   0.434   6.509   1.164  0.9263  0.1225 -0.2500
13996TIP3   OH263478   0.331   3.999   4.181  0.0933 -0.1647  0.0696
13996TIP3    H163479   0.334   4.093   4.197 -0.4083 -0.2505  0.6998
13996TIP3    H263480   0.418   3.967   4.204 -0.1795 -0.0691  1.2465
13997TIP3   OH263481   6.652   0.304   2.547 -0.1439 -0.4147  0.6296
13997TIP3    H163482   6.590   0.232   2.536  1.5385 -1.8298  0.2321
13997TIP3    H263483   6.700   0.308   2.464  0.8211  0.1716  1.1998
13998TIP3   OH263484   5.614   2.880  15.614 -0.2411 -0.1407 -0.1442
13998TIP3    H163485   5.684   2.869  15.548 -0.5337  0.3838 -0.5442
13998TIP3    H263486   5.661   2.889  15.697  0.0877 -2.3831 -0.0522
13999TIP3   OH263487   6.740   5.128  16.318  0.2117 -0.3643 -0.0844
13999TIP3    H163488   6.686   5.059  16.279 -0.2083 -0.3882  0.5274
13999TIP3    H263489   6.716   5.127  16.411  0.6550  0.1943  0.0336
14000TIP3   OH263490   1.796   1.425  15.247 -0.1626 -0.1093 -0.1435
14000TIP3    H163491   1.890   1.405  15.251  0.0406  0.9520  0.8495
14000TIP3    H263492   1.788   1.491  15.178 -0.1710 -0.1956 -0.2240
14001TIP3   OH263493   6.426   1.275  15.985  0.8012  0.2293 -0.4351
14001TIP3    H163494   6.486   1.210  15.947  0.8119  0.6227 -1.1040
14001TIP3    H263495   6.366   1.297  15.914  1.3499  1.6129 -0.4978
14002TIP3   OH263496   2.580   6.796   0.885 -0.4115  0.0162 -0.0987
14002TIP3    H163497   2.621   6.715   0.915  1.5536  0.0533 -2.5146
14002TIP3    H263498   2.507   6.768   0.831 -0.1366 -0.1478 -0.3885
14003TIP3   OH263499   1.734   4.447  16.967 -0.1485  0.2171  0.1361
14003TIP3    H163500   1.721   4.539  16.945 -3.1759 -0.4295 -1.0204
14003TIP3    H263501   1.715   4.443  17.061  1.7608  1.0475  0.5851
14004TIP3   OH263502   4.601   4.272   4.708  0.8708  0.4661 -1.0460
14004TIP3    H163503   4.651   4.232   4.780  2.3542  1.6125 -1.4027
14004TIP3    H263504   4.529   4.318   4.752  0.0983 -1.2146 -0.5212
14005TIP3   OH263505   6.645   4.110  15.282 -0.2640 -1.0784 -0.8454
14005TIP3    H163506   6.672   4.188  15.233  1.4840 -1.0933  0.0331
14005TIP3    H263507   6.674   4.037  15.228 -1.4213 -1.1313 -1.4108
14006TIP3   OH263508   6.086   4.178  14.392  0.0020  0.0796  0.3270
14006TIP3    H163509   6.040   4.200  14.473 -0.9673  2.2180 -0.7755
14006TIP3    H263510   6.178   4.168  14.420 -0.5643 -0.8685  1.9488
14007TIP3   OH263511   1.658   1.836  13.507 -0.0682  0.0569 -0.6033
14007TIP3    H163512   1.633   1.865  13.595  0.4328  3.0928 -1.3783
14007TIP3    H263513   1.578   1.801  13.469 -0.0124 -2.4645  1.4694
14008TIP3   OH263514   2.853   5.662   4.053 -0.3674 -0.0287 -0.7187
14008TIP3    H163515   2.790   5.591   4.043  1.2292 -1.5477 -0.4437
14008TIP3    H263516   2.868   5.668   4.147  2.5456 -2.1840 -0.9483
14009TIP3   OH263517   1.370   0.778  17.105 -0.3340  0.1540  0.7156
14009TIP3    H163518   1.278   0.757  17.093 -1.0675  3.0864  0.7440
14009TIP3    H263519   1.403   0.792  17.017 -1.0569  3.3682  0.8902
14010TIP3   OH263520   1.293   2.159   2.293 -0.3169  0.0435 -0.2028
14010TIP3    H163521   1.343   2.148   2.212  0.5149  2.4639 -0.0576
14010TIP3    H263522   1.206   2.187   2.265 -0.0691  0.7511 -0.2652
14011TIP3   OH263523   2.666   6.240   3.360  0.2887  0.2868 -0.2431
14011TIP3    H163524   2.647   6.290   3.439  1.0767 -2.1447  1.5611
14011TIP3    H263525   2.741   6.284   3.320  0.3396  1.1184  0.7590
14012TIP3   OH263526   4.116   3.308  11.986 -0.2898  0.5602  1.0720
14012TIP3    H163527   4.128   3.403  11.982 -0.4119  0.5495  0.2782
14012TIP3    H263528   4.087   3.285  11.898  1.0560 -0.4041  0.8766
14013TIP3   OH263529   5.675   1.583  12.015  0.3976 -0.1335  0.0081
14013TIP3    H163530   5.642   1.547  12.097 -0.1180  0.4849  0.0736
14013TIP3    H263531   5.616   1.548  11.948 -0.1112  0.6058  0.0723
14014TIP3   OH263532   2.847   3.839   0.553 -0.4351  0.2402 -0.4374
14014TIP3    H163533   2.860   3.748   0.526 -0.6467  0.4053 -1.0958
14014TIP3    H263534   2.935   3.874   0.561 -0.2725 -0.6591  2.0120
14015TIP3   OH263535   4.074   1.807   4.252 -0.8599  0.1564  0.4686
14015TIP3    H163536   4.092   1.884   4.199 -0.2784  0.4330  1.0502
14015TIP3    H263537   4.020   1.751   4.197 -0.0292  0.3122 -0.5187
14016TIP3   OH263538   2.416   4.782   5.871 -0.6185  0.6115  0.3714
14016TIP3    H163539   2.503   4.823   5.874 -0.0191 -0.4696 -1.3217
14016TIP3    H263540   2.375   4.806   5.954  1.7082  0.2084  1.6851
14017TIP3   OH263541   2.480   1.785   4.133  0.3202  0.3097 -0.2200
14017TIP3    H163542   2.566   1.756   4.104  1.0202  0.9398  1.1648
14017TIP3    H263543   2.418   1.734   4.081  1.5308 -0.9040 -0.4883
14018TIP3   OH263544   0.434   5.746   2.252  0.2276 -0.4553  0.6059
14018TIP3    H163545   0.359   5.688   2.265  0.4441 -0.8374  0.1939
14018TIP3    H263546   0.468   5.762   2.340 -2.1237  2.1554  1.1098
14019TIP3   OH263547   4.271   4.796   5.193 -0.1050  0.3431  0.0931
14019TIP3    H163548   4.214   4.867   5.221 -0.4163 -0.1431  0.7086
14019TIP3    H263549   4.225   4.716   5.218  0.1177 -0.0879 -0.8359
14020TIP3   OH263550   5.138   5.480  12.332 -0.2254 -0.6088 -0.6412
14020TIP3    H163551   5.101   5.567  12.323 -1.6551 -1.2554 -1.2199
14020TIP3    H263552   5.227   5.488  12.299 -0.1689  0.7526 -0.1596
14021TIP3   OH263553   1.112   4.083  15.948 -0.2045 -0.5116  0.5176
14021TIP3    H163554   1.162   4.002  15.939 -0.4072 -0.6552  0.6701
14021TIP3    H263555   1.094   4.110  15.858  0.1258 -0.4728  0.4622
14022TIP3   OH263556   0.444   5.536   6.647  0.1516 -0.4643 -0.1682
14022TIP3    H163557   0.418   5.583   6.726 -0.3151 -1.9246  0.5785
14022TIP3    H263558   0.516   5.587   6.611 -1.0604  1.4080 -0.0053
14023TIP3   OH263559   1.229   6.767   1.886  0.2638 -0.0479 -0.3071
14023TIP3    H163560   1.209   6.776   1.980 -0.1234 -0.3772 -0.3576
14023TIP3    H263561   1.305   6.823   1.873  0.2969  0.0321  0.1998
14024TIP3   OH263562   5.781   2.687   3.197 -0.3528  0.2291  0.1753
14024TIP3    H163563   5.862   2.661   3.154 -0.0085  1.8286 -0.1861
14024TIP3    H263564   5.785   2.645   3.283  0.3829 -0.5139 -0.2170
14025TIP3   OH263565   0.663   0.065   1.996 -0.5375  0.0811  0.2362
14025TIP3    H163566   0.731   0.114   1.950  0.2283 -1.1379  0.0338
14025TIP3    H263567   0.685   0.074   2.088 -1.0536  1.0542  0.2677
14026TIP3   OH263568   2.173   2.979  11.066  0.0707 -0.1529  0.0837
14026TIP3    H163569   2.088   3.017  11.086  1.0622  0.8045  2.6768
14026TIP3    H263570   2.196   3.014  10.980 -1.6794  0.4142 -0.1602
14027TIP3   OH263571   4.996   3.414   5.311  0.8336  0.1862  0.0208
14027TIP3    H163572   4.943   3.458   5.244  1.6549 -0.4040 -1.0342
14027TIP3    H263573   4.997   3.474   5.385  1.1168  1.4911 -1.0277
14028TIP3   OH263574   5.428   1.829  15.378  0.3979  0.2583 -0.5473
14028TIP3    H163575   5.426   1.793  15.289  2.4200 -0.7524 -0.2135
14028TIP3    H263576   5.371   1.771  15.428  0.9258 -0.4372 -0.7468
14029TIP3   OH263577   4.953   0.789   3.881 -0.4560  0.4297  0.5598
14029TIP3    H163578   4.978   0.726   3.949  1.3851  0.2460 -0.2750
14029TIP3    H263579   4.978   0.874   3.917  1.1618  0.2676 -0.1777
14030TIP3   OH263580   5.683   3.526   5.228  0.0997  0.5181  0.1589
14030TIP3    H163581   5.636   3.481   5.157 -0.2893 -0.3592  0.9591
14030TIP3    H263582   5.624   3.520   5.303  0.4627  1.5449  0.5280
14031TIP3   OH263583   4.012   3.977  12.561  0.1555 -0.1600  0.7002
14031TIP3    H163584   4.088   3.930  12.595  1.6294  1.7269  0.1181
14031TIP3    H263585   3.980   4.028  12.635 -1.3068 -1.8580  1.2706
14032TIP3   OH263586   4.340   1.481  16.069  0.1173  0.0033  0.4145
14032TIP3    H163587   4.266   1.421  16.081 -0.5218  0.9010  1.0714
14032TIP3    H263588   4.299   1.564  16.044  0.9494  0.3276  0.1163
14033TIP3   OH263589   5.871   3.371   3.664 -0.1638 -0.1514  0.3952
14033TIP3    H163590   5.837   3.421   3.739  0.5377  0.5352  0.2665
14033TIP3    H263591   5.793   3.338   3.619 -0.6605  1.3976  0.0981
14034TIP3   OH263592   1.352   3.148   2.138 -0.3492 -0.8340 -0.4071
14034TIP3    H163593   1.295   3.222   2.117  1.5877  0.7983 -0.0687
14034TIP3    H263594   1.314   3.109   2.217 -1.4233 -0.2584 -0.6377
14035TIP3   OH263595   4.373   6.673   2.707  0.1234 -0.5447 -0.6658
14035TIP3    H163596   4.421   6.698   2.628  0.5968 -1.0958 -0.5560
14035TIP3    H263597   4.439   6.632   2.763 -0.3224 -0.6377 -0.2048
14036TIP3   OH263598   1.873   5.133  13.871 -0.1826  0.5973 -0.1500
14036TIP3    H163599   1.898   5.188  13.945  0.2118  1.0349 -0.6032
14036TIP3    H263600   1.815   5.066  13.908 -0.2986  1.0508  0.4770
14037TIP3   OH263601   5.847   6.490   0.480 -0.4217  0.0582 -0.6417
14037TIP3    H163602   5.903   6.556   0.438 -0.0019 -0.6781 -1.2519
14037TIP3    H263603   5.843   6.517   0.572 -0.3509  0.9991 -0.9080
14038TIP3   OH263604   0.126   6.389  12.414  0.6083  0.2414  0.0215
14038TIP3    H163605   0.181   6.324  12.370 -0.4542 -0.2848 -0.5390
14038TIP3    H263606   0.178   6.417  12.489  2.0306  0.4207 -0.9990
14039TIP3   OH263607   3.813   6.144   2.662 -0.3453  0.0401 -0.0267
14039TIP3    H163608   3.769   6.200   2.598 -0.2021 -0.4887 -0.5955
14039TIP3    H263609   3.743   6.088   2.697 -0.6094  0.9885  1.0066
14040TIP3   OH263610   5.963   2.222  17.201  0.0976 -0.1028 -0.1558
14040TIP3    H163611   6.045   2.231  17.153  0.0670  1.4632  0.0340
14040TIP3    H263612   5.951   2.308  17.243 -1.3678 -0.4877  0.2389
14041TIP3   OH263613   1.284   6.322  14.593 -0.3179 -0.3553  0.2786
14041TIP3    H163614   1.243   6.368  14.520 -0.7170 -0.1753  0.6163
14041TIP3    H263615   1.300   6.390  14.659  0.1188 -0.5014  0.3293
14042TIP3   OH263616   4.424   1.021  14.612  0.6265  0.3650  0.2280
14042TIP3    H163617   4.479   0.947  14.586 -1.3116 -1.3118  0.6645
14042TIP3    H263618   4.346   1.013  14.556  1.5834  3.7834 -1.6999
14043TIP3   OH263619   5.346   1.317   1.902  0.0088 -1.0291  0.0210
14043TIP3    H163620   5.382   1.324   1.814 -1.0832 -1.5782 -0.4678
14043TIP3    H263621   5.252   1.306   1.889 -0.4027  0.7456  1.2922
14044TIP3   OH263622   4.319   5.741  11.273 -0.3413  0.1488  0.2287
14044TIP3    H163623   4.272   5.680  11.215 -0.1822  1.0959 -0.9195
14044TIP3    H263624   4.364   5.801  11.213  3.9915 -1.9095  1.2449
14045TIP3   OH263625   3.899   0.577  17.195 -0.1132  0.2267 -0.4145
14045TIP3    H163626   3.887   0.495  17.242  0.2734  0.5946  0.3454
14045TIP3    H263627   3.854   0.565  17.112  0.5885 -1.0274 -0.6129
14046TIP3   OH263628   6.120   2.349   1.118 -0.5112  0.5694 -0.1199
14046TIP3    H163629   6.086   2.438   1.110  1.6174  1.2336 -2.3246
14046TIP3    H263630   6.043   2.293   1.105 -1.6851  2.0582  0.2473
14047TIP3   OH263631   3.368   3.253   1.262  0.3174 -0.6957  0.3577
14047TIP3    H163632   3.359   3.195   1.187 -1.4285 -0.9878  0.7730
14047TIP3    H263633   3.429   3.207   1.320  0.6272 -1.0899 -0.2741
14048TIP3   OH263634   3.368   6.614  15.233 -0.3872 -0.2086  0.0217
14048TIP3    H163635   3.330   6.580  15.313 -0.5135  1.1904  0.5665
14048TIP3    H263636   3.421   6.689  15.261 -0.1072  0.0423 -1.1442
14049TIP3   OH263637   2.111   1.553   2.786  0.4111 -0.0624 -0.1028
14049TIP3    H163638   2.167   1.567   2.710 -0.0099  1.5077 -0.1475
14049TIP3    H263639   2.022   1.567   2.752 -0.0032 -2.0952  0.0608
14050TIP3   OH263640   5.053   6.181  13.436 -0.3016  0.3491 -0.6984
14050TIP3    H163641   5.069   6.180  13.531  0.1967  3.4513 -0.7271
14050TIP3    H263642   4.983   6.245  13.424 -0.6307 -0.3015 -2.4208
14051TIP3   OH263643   1.149   6.453  13.188  0.0902 -0.1755 -1.0324
14051TIP3    H163644   1.137   6.452  13.093 -1.7486 -1.2519 -0.8124
14051TIP3    H263645   1.154   6.361  13.212 -0.4724  0.0734  0.0439
14052TIP3   OH263646   2.919   2.829  11.641 -0.4574 -0.2587  0.1203
14052TIP3    H163647   2.949   2.903  11.587 -0.9859  0.8872  1.3732
14052TIP3    H263648   2.865   2.870  11.709 -2.3843 -1.9817 -0.3250
14053TIP3   OH263649   1.080   1.713  16.335 -0.0462  0.4433 -0.0246
14053TIP3    H163650   1.001   1.659  16.340 -1.9925  3.3929  1.9115
14053TIP3    H263651   1.071   1.761  16.252  0.1239  0.1883 -0.1915
14054TIP3   OH263652   5.996   2.956   4.669  0.2696  0.3833  0.8120
14054TIP3    H163653   5.961   2.964   4.580 -0.5479  1.3476  1.2090
14054TIP3    H263654   5.953   2.878   4.705 -1.4591  1.5104  1.2671
14055TIP3   OH263655   5.799   1.100  14.990  0.8850  0.4058  0.5441
14055TIP3    H163656   5.858   1.030  14.961  0.6824  0.3880  0.1769
14055TIP3    H263657   5.723   1.054  15.025  0.0717  0.4628 -1.1264
14056TIP3   OH263658   2.503   2.812  15.811  0.0197 -0.4965 -0.5517
14056TIP3    H163659   2.524   2.722  15.787  0.7515 -0.2132 -0.9896
14056TIP3    H263660   2.564   2.832  15.882 -0.6155 -0.5811  0.0138
14057TIP3   OH263661   1.663   3.991   1.201  0.1811  0.4247  1.0059
14057TIP3    H163662   1.582   3.956   1.165  2.4768 -1.5974 -2.5223
14057TIP3    H263663   1.687   4.061   1.141  1.4931  0.4349  1.5287
14058TIP3   OH263664   1.473   6.163  13.947  0.1053 -0.0465  0.7092
14058TIP3    H163665   1.519   6.133  13.869  1.0302  3.3583 -0.1097
14058TIP3    H263666   1.396   6.208  13.914  0.1334  0.8126  1.7827
14059TIP3   OH263667   3.866   6.721  14.848 -0.2939  0.1564 -0.1848
14059TIP3    H163668   3.801   6.752  14.910  0.9860  1.0961  0.7189
14059TIP3    H263669   3.885   6.797  14.793 -0.1534 -0.1831 -0.6111
14060TIP3   OH263670   6.564   3.492   4.679 -0.4398 -0.2664 -0.3520
14060TIP3    H163671   6.519   3.576   4.688 -0.0071 -0.1534  0.8230
14060TIP3    H263672   6.610   3.498   4.595  0.3878  1.0539  0.1936
14061TIP3   OH263673   5.860   0.587  16.219 -0.4881 -0.8098 -0.8799
14061TIP3    H163674   5.773   0.608  16.185 -0.7396 -0.3366  0.0670
14061TIP3    H263675   5.920   0.623  16.154 -0.9633  0.4272 -0.6493
14062TIP3   OH263676   2.937   5.449  10.537  0.2727  0.3532 -0.2051
14062TIP3    H163677   2.873   5.447  10.608  0.5352 -0.2692  0.0139
14062TIP3    H263678   2.883   5.446  10.457  0.0320 -0.4163 -0.0195
14063TIP3   OH263679   0.983   4.188   4.067 -0.5246 -0.2384 -0.0070
14063TIP3    H163680   0.982   4.274   4.108  2.8573 -0.1944  0.0937
14063TIP3    H263681   1.026   4.202   3.983 -2.2187 -1.4011 -1.1011
14064TIP3   OH263682   6.145   2.697  13.833  0.3439 -0.0143 -0.1806
14064TIP3    H163683   6.099   2.773  13.796 -0.2492 -0.9230 -1.3276
14064TIP3    H263684   6.111   2.690  13.922  0.3272  1.0065 -0.0976
14065TIP3   OH263685   2.521   2.325  14.461  0.1763  0.7608  0.1780
14065TIP3    H163686   2.437   2.300  14.498  0.1894  0.2742 -0.1192
14065TIP3    H263687   2.538   2.260  14.393  0.8398  0.7959  0.3048
14066TIP3   OH263688   3.293   4.193  14.014 -0.2460 -0.4157 -0.2347
14066TIP3    H163689   3.341   4.131  13.960 -0.6052 -1.6023  0.8035
14066TIP3    H263690   3.206   4.154  14.025 -1.7535  2.0776 -2.7610
14067TIP3   OH263691   6.504   1.996  11.356 -0.1351  0.3437  0.7821
14067TIP3    H163692   6.441   1.940  11.401  0.0012  1.0093  1.8255
14067TIP3    H263693   6.501   2.079  11.404  2.4275 -0.0002  1.6394
14068TIP3   OH263694   2.321   2.920  16.825 -0.5049 -0.0299 -0.1228
14068TIP3    H163695   2.308   2.944  16.916 -1.5448 -0.6277 -0.1083
14068TIP3    H263696   2.238   2.880  16.798 -0.0590 -0.2576 -1.1966
14069TIP3   OH263697   4.383   5.335  13.676  0.8451  0.8333 -0.4353
14069TIP3    H163698   4.365   5.410  13.619  0.3448  1.1851  0.1748
14069TIP3    H263699   4.361   5.366  13.764  2.6634  0.6430  0.0947
14070TIP3   OH263700   3.053   5.709   0.006 -0.2977  0.2840 -0.1306
14070TIP3    H163701   3.031   5.665  -0.077  0.2851 -1.9125  0.8414
14070TIP3    H263702   3.053   5.802  -0.016 -2.5224 -0.1069 -2.0427
14071TIP3   OH263703   5.756   1.923   4.249 -0.1899  0.1823 -0.3101
14071TIP3    H163704   5.809   1.982   4.303 -1.0613 -0.0314  0.8068
14071TIP3    H263705   5.684   1.896   4.307  0.5619 -2.5246 -0.5510
14072TIP3   OH263706   3.161   4.757  15.400  0.2371 -0.0363 -0.4946
14072TIP3    H163707   3.216   4.815  15.347 -0.8289 -0.7398 -2.4222
14072TIP3    H263708   3.224   4.702  15.448  1.2292 -0.2158 -1.9602
14073TIP3   OH263709   1.633   2.417  14.125  0.4336 -0.1930  0.0540
14073TIP3    H163710   1.557   2.453  14.171  0.0462  1.0706 -1.5329
14073TIP3    H263711   1.708   2.453  14.172  0.0418  1.7963 -0.8000
14074TIP3   OH263712   0.650   3.812   0.205  0.3192 -0.9034  0.3156
14074TIP3    H163713   0.555   3.820   0.203  0.3097 -1.0061  0.3418
14074TIP3    H263714   0.666   3.720   0.188  0.4567 -0.6990 -0.6932
14075TIP3   OH263715   3.015   3.069  15.216 -0.1304  0.2930 -0.0498
14075TIP3    H163716   3.012   3.164  15.206  0.7046  0.3963  0.6874
14075TIP3    H263717   2.936   3.038  15.170 -1.1088  1.4251  0.8377
14076TIP3   OH263718   4.716   4.603  13.446 -0.8388  0.0931 -0.2751
14076TIP3    H163719   4.798   4.612  13.495 -1.8636 -0.7562  1.6364
14076TIP3    H263720   4.667   4.683  13.468 -0.6191  0.5209 -1.2880
14077TIP3   OH263721   1.708   4.913  14.592 -0.1623  0.1499 -0.0863
14077TIP3    H163722   1.613   4.898  14.600 -0.1113  0.7823  1.9323
14077TIP3    H263723   1.721   5.000  14.631  1.3058 -0.0936 -0.0384
14078TIP3   OH263724   0.091   5.275   4.934  0.2121  0.2816  0.0085
14078TIP3    H163725   0.121   5.197   4.981  1.5986  1.9459  1.9800
14078TIP3    H263726   0.008   5.249   4.895  0.1291 -1.8560  1.5241
14079TIP3   OH263727   3.751   3.441   0.828  0.6359  0.3767 -0.6388
14079TIP3    H163728   3.774   3.392   0.750  0.7480  0.7501 -0.8383
14079TIP3    H263729   3.661   3.413   0.848  0.4695  0.5756 -1.1207
14080TIP3   OH263730   6.505   4.540   3.349 -0.0834  0.4046  0.1726
14080TIP3    H163731   6.466   4.611   3.399  1.8780  2.0228 -0.4985
14080TIP3    H263732   6.583   4.515   3.399  0.4904  0.3112 -0.7402
14081TIP3   OH263733   3.560   2.912  13.630 -0.3411 -0.1306  0.1023
14081TIP3    H163734   3.646   2.939  13.662  0.3910 -3.5987  1.3418
14081TIP3    H263735   3.504   2.988  13.644  2.3423  1.9309  0.0043
14082TIP3   OH263736   5.336   1.134  13.780  0.4672  0.1573 -0.2270
14082TIP3    H163737   5.264   1.084  13.741  1.4688 -1.0130 -0.5955
14082TIP3    H263738   5.300   1.164  13.864 -0.7944  0.4388 -0.8502
14083TIP3   OH263739   6.447   4.035   1.856  0.4803  0.4089  0.0497
14083TIP3    H163740   6.362   4.079   1.854 -0.6529 -1.6473  1.7628
14083TIP3    H263741   6.449   3.984   1.775 -1.0000 -1.4476  1.1402
14084TIP3   OH263742   2.623   5.355  12.692 -0.1072 -0.1533  0.3175
14084TIP3    H163743   2.678   5.285  12.727  0.1835 -0.1239 -0.0819
14084TIP3    H263744   2.625   5.423  12.760 -0.0408 -0.3516  0.5144
14085TIP3   OH263745   1.065   4.732   1.967  0.1840  0.5760 -0.2114
14085TIP3    H163746   0.977   4.711   1.935 -0.2160  1.2480  0.4241
14085TIP3    H263747   1.055   4.815   2.013  0.8740 -0.0214  1.0716
14086TIP3   OH263748   5.536   3.047  15.201  0.5338 -0.2270 -0.5892
14086TIP3    H163749   5.520   3.141  15.206 -0.0191 -0.3131 -0.6414
14086TIP3    H263750   5.474   3.010  15.264 -0.3479 -0.6689 -1.7035
14087TIP3   OH263751   1.015   3.315  11.491 -0.9138  0.0403  0.7981
14087TIP3    H163752   1.071   3.287  11.564  0.6779  1.0166 -0.0124
14087TIP3    H263753   1.076   3.354  11.428 -2.1471 -1.5367 -1.4307
14088TIP3   OH263754   1.562   5.379  16.206 -0.2145 -0.0254 -0.7465
14088TIP3    H163755   1.575   5.313  16.138  0.6426 -1.1411  0.4673
14088TIP3    H263756   1.528   5.330  16.281  0.5576  0.8702  0.2088
14089TIP3   OH263757   3.504   1.774   5.840  0.4347  0.6427  0.5506
14089TIP3    H163758   3.572   1.724   5.794 -1.6136  1.0309 -3.0751
14089TIP3    H263759   3.439   1.708   5.866  0.1318  0.7877  0.1707
14090TIP3   OH263760   5.930   0.927  16.179 -0.6986  0.1604  0.8516
14090TIP3    H163761   5.996   0.870  16.140 -2.0582  0.0225 -1.3788
14090TIP3    H263762   5.960   0.943  16.268  2.6407  0.6254 -0.3131
14091TIP3   OH263763   3.857   5.645   4.176  0.1248  0.2440  0.2969
14091TIP3    H163764   3.787   5.617   4.235 -0.7688  2.1130  0.1613
14091TIP3    H263765   3.812   5.666   4.094  0.8581  1.2653  0.1482
14092TIP3   OH263766   5.201   1.951   3.036 -0.1753  0.2749  0.3827
14092TIP3    H163767   5.160   2.037   3.033 -0.7289 -0.0256 -1.2028
14092TIP3    H263768   5.227   1.934   2.945 -1.2935 -1.7956  0.4202
14093TIP3   OH263769   0.222   1.406   2.698 -0.4040  0.1379 -0.0242
14093TIP3    H163770   0.213   1.320   2.740 -1.7495  0.3525  0.1298
14093TIP3    H263771   0.185   1.467   2.761 -1.7081  0.5537 -1.1714
14094TIP3   OH263772   4.963   3.580  12.509 -0.0502 -0.0182 -0.5080
14094TIP3    H163773   5.027   3.523  12.467 -0.1932  0.7549 -1.8240
14094TIP3    H263774   4.892   3.586  12.444 -0.5467  0.7180  0.1037
14095TIP3   OH263775   5.475   1.077  14.225 -0.0439  0.1101 -0.0558
14095TIP3    H163776   5.415   1.004  14.210 -0.6776  0.8260 -1.0019
14095TIP3    H263777   5.548   1.061  14.165  1.0552 -1.1155  1.5611
14096TIP3   OH263778   3.267   2.412   4.086  0.1566  0.0596  0.1001
14096TIP3    H163779   3.178   2.377   4.093 -0.0893  0.9073  1.4950
14096TIP3    H263780   3.257   2.493   4.036  0.2273 -0.1259 -0.2151
14097TIP3   OH263781   1.629   5.134   2.413 -0.4142  0.0917  0.3047
14097TIP3    H163782   1.614   5.131   2.319 -1.0781  0.0799  0.4113
14097TIP3    H263783   1.723   5.148   2.422 -0.5970  1.8010 -0.3691
14098TIP3   OH263784   6.502   3.987  12.130  0.5295 -0.3680 -0.5184
14098TIP3    H163785   6.491   3.927  12.056 -0.7969 -0.1025 -0.5641
14098TIP3    H263786   6.565   4.052  12.100  0.4446 -0.6010 -1.2096
14099TIP3   OH263787   2.713   5.867  16.789  0.6110  0.6365 -0.1636
14099TIP3    H163788   2.636   5.921  16.768  0.7785  0.9250 -0.0359
14099TIP3    H263789   2.735   5.890  16.879 -0.1772 -0.6910  0.3874
14100TIP3   OH263790   3.883   6.649  16.697  0.5310  0.0119 -0.9551
14100TIP3    H163791   3.824   6.603  16.638  0.6335 -1.3905  0.0116
14100TIP3    H263792   3.825   6.697  16.757  0.3287 -1.9246  0.4371
14101TIP3   OH263793   2.908   2.285  13.409  0.1094  0.1255  0.2683
14101TIP3    H163794   2.980   2.319  13.461  1.6228 -1.0530 -0.9882
14101TIP3    H263795   2.885   2.202  13.451  2.0863 -1.3930 -1.4767
14102TIP3   OH263796   1.146   0.623  13.757 -0.4329 -0.3039  0.0736
14102TIP3    H163797   1.158   0.700  13.812  0.4410  1.9637 -3.1391
14102TIP3    H263798   1.052   0.604  13.763 -0.8184  1.5209  0.2653
14103TIP3   OH263799   0.042   4.120   5.107  0.5094  0.4773  0.2700
14103TIP3    H163800   0.103   4.175   5.057 -1.9154  1.3255 -1.8963
14103TIP3    H263801   0.007   4.059   5.041  1.2999 -2.0755  2.1305
14104TIP3   OH263802   5.820   4.626  13.742 -0.6266 -0.5145  0.3119
14104TIP3    H163803   5.843   4.557  13.680 -0.7650 -0.5832  0.3348
14104TIP3    H263804   5.891   4.689  13.736 -0.7372 -0.4260 -0.0600
14105TIP3   OH263805   0.422   4.702  17.120  0.0038  0.4836  0.1490
14105TIP3    H163806   0.418   4.689  17.214  0.1215 -0.3596  0.0392
14105TIP3    H263807   0.417   4.797  17.108  0.6528  0.6239  1.0287
14106TIP3   OH263808   5.548   3.176   0.366 -0.0169  0.1467 -0.1127
14106TIP3    H163809   5.503   3.249   0.324  2.8103  2.5353  0.7807
14106TIP3    H263810   5.522   3.181   0.458  0.6125  0.4315  0.0581
14107TIP3   OH263811   0.598   6.023   0.168  0.3062 -0.8381  0.4586
14107TIP3    H163812   0.592   5.932   0.136  1.3634 -0.6179 -0.4316
14107TIP3    H263813   0.509   6.046   0.193  0.1004 -2.2789  1.0954
14108TIP3   OH263814   4.249   4.945   1.016  0.2391 -0.0044  0.7899
14108TIP3    H163815   4.253   4.877   0.950 -0.8289 -0.4676  1.1888
14108TIP3    H263816   4.335   4.987   1.013  0.5073 -0.6164 -0.2458
14109TIP3   OH263817   3.318   2.674  16.729  0.2382  0.2259  0.0261
14109TIP3    H163818   3.257   2.674  16.655  0.6781 -1.9564 -0.3712
14109TIP3    H263819   3.265   2.641  16.802  1.1196 -2.6374 -0.5402
14110TIP3   OH263820   3.813   0.123   3.260  0.1111  0.4104 -0.1122
14110TIP3    H163821   3.761   0.179   3.202 -0.9837  1.1195  1.5136
14110TIP3    H263822   3.847   0.183   3.327 -0.6487 -0.7729  1.3549
14111TIP3   OH263823   3.489   1.897   0.365  0.2780 -0.5554  0.8405
14111TIP3    H163824   3.462   1.988   0.353 -0.7874 -1.0195 -0.4132
14111TIP3    H263825   3.465   1.877   0.456  0.2516  0.3320  1.0343
14112TIP3   OH263826   0.822   2.740   5.821 -0.5216 -0.0228  0.1584
14112TIP3    H163827   0.738   2.694   5.818  0.7539 -2.3492 -2.3137
14112TIP3    H263828   0.814   2.809   5.755 -0.2149 -0.8528 -0.7747
14113TIP3   OH263829   1.796   4.790  12.779  0.0263 -0.4256 -0.2742
14113TIP3    H163830   1.753   4.749  12.854  0.3033  1.5657  1.0053
14113TIP3    H263831   1.726   4.800  12.714 -0.5440 -0.8352  0.2702
14114TIP3   OH263832   1.913   2.244  15.424 -0.0067 -0.3802 -0.6627
14114TIP3    H163833   1.960   2.241  15.341 -1.4298  0.3201 -1.5167
14114TIP3    H263834   1.891   2.153  15.444  1.8590 -0.7304 -0.1555
14115TIP3   OH263835   3.092   4.405   3.415  0.4138  0.3483  0.2442
14115TIP3    H163836   3.076   4.494   3.385  1.7681  0.3404 -0.5236
14115TIP3    H263837   3.145   4.365   3.346 -1.2358 -1.4493 -0.0215
14116TIP3   OH263838   3.534   4.176  11.585 -0.3813 -0.2111 -0.2835
14116TIP3    H163839   3.590   4.159  11.509 -0.6419  0.0241 -0.5275
14116TIP3    H263840   3.539   4.095  11.637 -0.4610 -0.4885 -0.7086
14117TIP3   OH263841   2.234   0.909  11.861  0.3626 -1.0545  0.1354
14117TIP3    H163842   2.316   0.952  11.838 -0.2060 -0.1100 -0.1363
14117TIP3    H263843   2.230   0.832  11.805  2.3111 -2.5514  1.9715
14118TIP3   OH263844   4.364   1.988  14.334 -0.1352  0.0617 -0.1109
14118TIP3    H163845   4.347   2.060  14.395 -0.6848 -0.0867 -0.0928
14118TIP3    H263846   4.455   1.962  14.353 -0.2510  0.1199  0.5382
14119TIP3   OH263847   2.133   1.181  12.640  0.4161  0.2280 -0.2004
14119TIP3    H163848   2.179   1.258  12.674  0.8271 -0.2948  0.4339
14119TIP3    H263849   2.200   1.112  12.637 -0.6252 -0.9353  2.0774
14120TIP3   OH263850   2.959   3.634  12.669  0.7276  0.2706 -0.0715
14120TIP3    H163851   3.037   3.582  12.688  0.5603  0.0962  0.1472
14120TIP3    H263852   2.944   3.685  12.749  0.6074  0.2888 -0.1053
14121TIP3   OH263853   5.036   6.284  16.324 -0.4575 -0.3603 -0.7451
14121TIP3    H163854   5.049   6.366  16.276  0.0748  0.9734  1.5977
14121TIP3    H263855   4.949   6.292  16.362 -0.1085 -0.5524  0.1032
14122TIP3   OH263856   6.399   6.088  15.233 -0.1807  0.0202  0.6632
14122TIP3    H163857   6.448   6.160  15.195 -2.0725  1.7918  1.5248
14122TIP3    H263858   6.459   6.013  15.230  1.1406  1.1586 -1.9293
14123TIP3   OH263859   1.635   0.030   4.031 -0.1427 -0.2600  0.5436
14123TIP3    H163860   1.575  -0.038   4.003 -1.4772  1.2512 -0.3053
14123TIP3    H263861   1.719  -0.015   4.042 -1.1661 -2.1672  0.7213
14124TIP3   OH263862   4.544   5.252   3.609  0.3623 -0.1930 -0.4800
14124TIP3    H163863   4.491   5.176   3.633 -2.1165  1.5390 -0.2997
14124TIP3    H263864   4.568   5.236   3.518  0.0731 -1.3095 -0.3694
14125TIP3   OH263865   3.276   3.323   1.867 -0.2598  0.0580 -0.5419
14125TIP3    H163866   3.219   3.347   1.940  0.2807 -1.5568  0.4595
14125TIP3    H263867   3.321   3.404   1.843  0.2530  0.4230  1.5597
14126TIP3   OH263868   2.504   3.842  11.712 -0.1659  0.6921  0.7814
14126TIP3    H163869   2.500   3.843  11.808 -0.6723  0.2833  0.7681
14126TIP3    H263870   2.441   3.909  11.685 -0.5027  0.3580  0.7269
14127TIP3   OH263871   3.067   0.949  15.661  0.2426  0.1755 -0.4108
14127TIP3    H163872   3.045   0.858  15.638 -0.6539  0.7238 -1.7961
14127TIP3    H263873   2.998   0.976  15.720  0.4997 -0.0393 -0.0121
14128TIP3   OH263874   3.405   1.760  11.154  0.0875  0.0836  0.9118
14128TIP3    H163875   3.349   1.836  11.174 -0.5241 -0.5943  1.8324
14128TIP3    H263876   3.356   1.711  11.088  0.4293  0.4330  0.4019
14129TIP3   OH263877   6.094   2.324  12.623  0.2183 -0.2901 -0.1457
14129TIP3    H163878   6.175   2.348  12.576 -0.6362 -0.9932 -2.0305
14129TIP3    H263879   6.096   2.229  12.625  0.2066 -0.2634  1.2140
14130TIP3   OH263880   5.659   4.374  13.141  0.0455 -0.2112  0.7162
14130TIP3    H163881   5.754   4.386  13.145  0.3029 -1.5229 -0.9885
14130TIP3    H263882   5.633   4.354  13.231  1.1844  1.4860  1.4481
14131TIP3   OH263883   6.228   6.562  15.533 -0.4295  0.0418  0.3317
14131TIP3    H163884   6.269   6.602  15.610  1.2421 -0.0778 -0.4745
14131TIP3    H263885   6.138   6.541  15.562  0.3247 -0.5006  2.4058
14132TIP3   OH263886   2.373   4.984  12.677 -0.0848 -0.0878 -0.0656
14132TIP3    H163887   2.435   4.979  12.604 -0.6779 -0.3321 -0.5655
14132TIP3    H263888   2.311   4.912  12.660 -1.0514  0.7310 -0.1033
14133TIP3   OH263889   4.216   1.060  12.824 -0.7533 -0.4881 -0.4786
14133TIP3    H163890   4.122   1.078  12.834 -0.4411  0.3809  1.1329
14133TIP3    H263891   4.231   0.984  12.880 -0.1518  0.5386  0.7721
14134TIP3   OH263892   5.285   0.758  16.324 -0.7150  0.4332  0.7467
14134TIP3    H163893   5.262   0.849  16.345  1.0109  0.3203  3.2746
14134TIP3    H263894   5.201   0.713  16.319 -1.6621  2.3420 -1.5244
14135TIP3   OH263895   0.467   6.122  15.867  0.2953  0.2619 -0.0045
14135TIP3    H163896   0.490   6.212  15.889 -0.6752  0.4662  0.2239
14135TIP3    H263897   0.432   6.085  15.948 -1.5729  0.4430 -0.6972
14136TIP3   OH263898   4.184   5.548   3.338 -0.3044  0.7904 -0.2299
14136TIP3    H163899   4.196   5.502   3.255  0.9751  1.5670 -0.4812
14136TIP3    H263900   4.176   5.640   3.314 -0.7994  0.9235  0.4367
14137TIP3   OH263901   4.178   6.360  15.696 -0.1567  0.3422  0.0001
14137TIP3    H163902   4.174   6.293  15.764  0.2482 -0.6484 -0.9376
14137TIP3    H263903   4.271   6.368  15.676 -0.2701  0.6797 -0.3936
14138TIP3   OH263904   5.908   4.890  16.811  0.1889  0.3058  0.0245
14138TIP3    H163905   5.825   4.869  16.853  0.2635 -0.8844 -0.4035
14138TIP3    H263906   5.911   4.985  16.811 -1.1490  0.3596  0.0991
14139TIP3   OH263907   3.287   5.981  14.316 -0.3533  0.1813 -1.3773
14139TIP3    H163908   3.362   6.005  14.261  0.3717 -0.0036 -0.4872
14139TIP3    H263909   3.295   6.038  14.393  0.4237 -1.6689 -0.0309
14140TIP3   OH263910   0.152   0.219  16.906 -0.1065 -0.8468  0.5915
14140TIP3    H163911   0.182   0.243  16.994  1.9036 -1.6198  0.1549
14140TIP3    H263912   0.064   0.255  16.899  0.6396  1.3456  2.0475
14141TIP3   OH263913   6.270   1.120   1.343 -0.2027 -0.2166 -0.9004
14141TIP3    H163914   6.232   1.119   1.431  1.6258 -0.9835 -0.1132
14141TIP3    H263915   6.194   1.133   1.285 -1.3244  1.1622  0.8142
14142TIP3   OH263916   0.148   5.546  14.997  0.1985 -0.0887 -0.0376
14142TIP3    H163917   0.201   5.466  15.000 -1.5933 -1.2877  0.9017
14142TIP3    H263918   0.115   5.556  15.087 -1.5340  0.3404 -0.6952
14143TIP3   OH263919   4.553   4.239  10.892  0.7065  0.6818  0.4170
14143TIP3    H163920   4.490   4.307  10.867 -2.5597 -2.5734 -0.6782
14143TIP3    H263921   4.593   4.212  10.809  0.6012  0.0024  0.5834
14144TIP3   OH263922   4.015   6.417   5.300  0.0685  0.0757 -0.2065
14144TIP3    H163923   3.924   6.416   5.330  0.7691 -1.0661  1.9845
14144TIP3    H263924   4.067   6.416   5.380  2.0644  3.2440 -1.3578
14145TIP3   OH263925   5.368   1.728   4.129 -1.0324  0.2965  0.0895
14145TIP3    H163926   5.337   1.798   4.187  2.6072  1.7637  0.3815
14145TIP3    H263927   5.450   1.699   4.169 -0.4484 -1.3890 -2.2422
14146TIP3   OH263928   5.178   1.945   4.965 -0.3369 -0.1480  0.1000
14146TIP3    H163929   5.188   1.858   4.926  1.8517 -0.3944  1.1470
14146TIP3    H263930   5.220   2.004   4.902  1.2639 -0.2874  1.0116
14147TIP3   OH263931   6.568   0.208  16.069 -0.0817 -0.0479  0.5480
14147TIP3    H163932   6.566   0.289  16.119  1.5094  0.3267  0.0336
14147TIP3    H263933   6.589   0.236  15.979 -0.7809 -0.9044  0.1113
14148TIP3   OH263934   3.704   6.270   0.115 -0.8163  0.2202  0.3042
14148TIP3    H163935   3.610   6.258   0.128 -0.8509  1.5537  1.3952
14148TIP3    H263936   3.714   6.364   0.101  0.3778  0.1019  0.3344
14149TIP3   OH263937   6.578   0.843  16.221 -0.2221 -0.6152 -0.3682
14149TIP3    H163938   6.604   0.776  16.285 -1.4493 -0.4367  0.3415
14149TIP3    H263939   6.603   0.806  16.136 -3.7108 -3.4416 -0.2839
14150TIP3   OH263940   2.723   4.849  11.308  0.3523  0.3364  0.6274
14150TIP3    H163941   2.732   4.814  11.396 -1.0421  0.4885  0.8458
14150TIP3    H263942   2.649   4.910  11.314 -0.8486 -0.9013 -1.0198
14151TIP3   OH263943   1.358   1.598  16.468 -0.2951 -0.4741  0.1857
14151TIP3    H163944   1.267   1.625  16.456  0.3674  1.6362 -0.4299
14151TIP3    H263945   1.367   1.585  16.563 -1.3546 -1.1808  0.1957
14152TIP3   OH263946   5.092   2.414  14.685  0.0062 -0.3774 -0.4351
14152TIP3    H163947   5.166   2.468  14.657 -1.1513  0.4637 -1.9988
14152TIP3    H263948   5.081   2.434  14.778  0.5076  1.0085 -0.6587
14153TIP3   OH263949   3.195   0.646   4.483 -0.1923 -0.4755 -0.1923
14153TIP3    H163950   3.164   0.608   4.401 -0.1975 -0.1662 -0.3324
14153TIP3    H263951   3.222   0.735   4.460 -0.6557 -0.2229  0.2414
14154TIP3   OH263952   5.673   0.115   4.675  0.9846 -0.7332  0.1057
14154TIP3    H163953   5.706   0.042   4.623  0.2465 -1.5733  0.8127
14154TIP3    H263954   5.653   0.077   4.760  1.3716  0.4580  0.7497
14155TIP3   OH263955   1.063   4.442  11.323  0.4704 -0.1990  0.0136
14155TIP3    H163956   1.044   4.535  11.314 -0.1449 -0.2771  0.4664
14155TIP3    H263957   0.981   4.398  11.301  0.7713 -0.6348 -0.2418
14156TIP3   OH263958   4.786   1.264  16.302  0.2840 -0.2463  0.2395
14156TIP3    H163959   4.837   1.251  16.222  3.2394  0.9368  1.8416
14156TIP3    H263960   4.723   1.332  16.279  1.4988  0.5085 -0.9420
14157TIP3   OH263961   1.601   0.317  17.103  0.5134  0.1314 -0.2972
14157TIP3    H163962   1.562   0.255  17.165 -2.8370  2.8000  0.4126
14157TIP3    H263963   1.573   0.285  17.017 -0.5602  0.2264  0.0129
14158TIP3   OH263964   4.438   4.827   2.578  0.3867 -0.1332  0.0881
14158TIP3    H163965   4.426   4.737   2.547  0.2279  0.1690 -0.7397
14158TIP3    H263966   4.380   4.834   2.653  2.0430 -1.4034  1.5248
14159TIP3   OH263967   1.783   1.091  13.055  0.0175 -0.9766 -0.4113
14159TIP3    H163968   1.720   1.117  12.987  1.2591  0.5068 -1.0270
14159TIP3    H263969   1.830   1.172  13.076 -0.8194 -1.2469  2.7644
14160TIP3   OH263970   0.703   5.298  14.081  0.1663  0.0100  0.1781
14160TIP3    H163971   0.619   5.264  14.110 -0.8107  0.5012 -2.0368
14160TIP3    H263972   0.717   5.261  13.994  2.0824  0.2000  0.3691
14161TIP3   OH263973   6.224   1.150  10.778 -0.1689  0.3808 -0.5185
14161TIP3    H163974   6.282   1.199  10.837 -1.3197  1.1454 -0.0180
14161TIP3    H263975   6.147   1.129  10.831 -0.7330  0.1111 -1.4352
14162TIP3   OH263976   0.927   6.547  14.220  0.0495  0.6301 -0.9597
14162TIP3    H163977   0.875   6.483  14.269  0.4907  0.2084 -1.0378
14162TIP3    H263978   0.862   6.596  14.169 -0.3019  0.2961 -0.8425
14163TIP3   OH263979   4.865   5.178  11.208 -0.3023 -0.1105  0.0621
14163TIP3    H163980   4.847   5.272  11.221 -3.0872 -0.4935 -0.5015
14163TIP3    H263981   4.894   5.172  11.117 -3.2568 -0.1067 -0.9445
14164TIP3   OH263982   5.604   5.875   3.053 -0.0752 -0.6695  0.0270
14164TIP3    H163983   5.580   5.784   3.071 -3.6191  0.5202  1.9870
14164TIP3    H263984   5.636   5.908   3.137 -1.3203  0.5516  0.0524
14165TIP3   OH263985   0.809   0.497   6.153  0.5269  0.5860 -0.4730
14165TIP3    H163986   0.805   0.588   6.183  2.0736  0.0108  1.6384
14165TIP3    H263987   0.903   0.478   6.145  0.2362 -0.8936 -0.6326
14166TIP3   OH263988   2.849   4.016   4.866  0.2623  0.1442  0.0471
14166TIP3    H163989   2.763   4.055   4.878  0.8797  1.8754 -0.9124
14166TIP3    H263990   2.864   4.019   4.771  0.2261 -2.7359 -0.1107
14167TIP3   OH263991   4.619   2.455  16.038 -0.3571  0.5144  0.0792
14167TIP3    H163992   4.670   2.482  15.961 -2.5663  0.4351 -1.4319
14167TIP3    H263993   4.617   2.359  16.032  0.2121  0.4620  0.7241
14168TIP3   OH263994   1.408   6.286  16.846  0.1281 -0.2999  0.4266
14168TIP3    H163995   1.380   6.196  16.862  1.4849 -0.8679 -0.2336
14168TIP3    H263996   1.500   6.277  16.818  0.0801  1.2276 -0.2585
14169TIP3   OH263997   4.955   3.751  15.207  0.1191  0.4536 -0.1430
14169TIP3    H163998   4.999   3.835  15.197  2.0778 -0.4437  0.6953
14169TIP3    H263999   4.957   3.734  15.301 -0.7837 -0.2525 -0.2453
14170TIP3   OH264000   5.556   6.060  16.679 -0.2440 -0.3185  0.5824
14170TIP3    H164001   5.588   6.150  16.666 -0.1594 -0.4911 -0.4223
14170TIP3    H264002   5.503   6.043  16.602 -0.2815 -1.1299  0.7912
14171TIP3   OH264003   5.982   3.012  13.787  0.0927 -0.0946  0.5981
14171TIP3    H164004   5.931   3.073  13.733 -1.2275 -1.6281  0.0683
14171TIP3    H264005   5.990   3.056  13.872  0.4393  1.4510 -0.2030
14172TIP3   OH264006   4.525   2.747  11.320  0.0382 -0.5708 -0.3298
14172TIP3    H164007   4.576   2.828  11.319 -1.0523  0.1270 -0.1361
14172TIP3    H264008   4.591   2.677  11.327  1.0611  0.2209 -1.7781
14173TIP3   OH264009   5.367   4.615   1.268  0.0326 -0.5203 -0.1347
14173TIP3    H164010   5.411   4.655   1.342  0.0084 -1.1940  0.2485
14173TIP3    H264011   5.360   4.685   1.203 -1.2056  0.4649  1.0208
14174TIP3   OH264012   0.482   6.610   5.405  0.8352 -0.5004  0.7011
14174TIP3    H164013   0.447   6.522   5.415 -0.5722 -0.1305 -0.6392
14174TIP3    H264014   0.406   6.667   5.423  0.7169  0.3285 -2.2753
14175TIP3   OH264015   6.391   5.166  11.205 -0.2684 -0.0682 -0.6710
14175TIP3    H164016   6.383   5.134  11.295  2.3617 -0.2995 -0.4694
14175TIP3    H264017   6.395   5.262  11.214  0.8933 -0.1330 -0.4511
14176TIP3   OH264018   6.624   6.207   1.044 -0.2347 -0.4342  0.3491
14176TIP3    H164019   6.536   6.206   1.008  0.5391 -0.4413 -1.6222
14176TIP3    H264020   6.640   6.117   1.072  0.1703 -1.1290 -1.9636
14177TIP3   OH264021   5.393   5.626  11.115  0.4306  0.0953 -0.5892
14177TIP3    H164022   5.387   5.704  11.170  0.0587 -0.0585 -0.4099
14177TIP3    H264023   5.436   5.656  11.035  0.1466  0.5163 -0.5852
14178TIP3   OH264024   4.997   3.712   1.831  0.7561  0.1127  0.7137
14178TIP3    H164025   4.920   3.661   1.808  0.9930 -0.6677  1.6474
14178TIP3    H264026   5.066   3.680   1.773  0.8684 -0.5238  1.2014
14179TIP3   OH264027   0.824   2.318   3.872  0.9078 -0.6458 -0.4764
14179TIP3    H164028   0.759   2.250   3.891 -0.3322  0.2446 -1.4684
14179TIP3    H264029   0.853   2.300   3.782  0.8278 -0.0646 -0.6201
14180TIP3   OH264030   2.568   3.780   2.947  0.2641  0.4117  0.7795
14180TIP3    H164031   2.660   3.807   2.943  0.1159  0.9548  0.9787
14180TIP3    H264032   2.522   3.857   2.981 -0.7863  1.4170 -2.6813
14181TIP3   OH264033   1.295   5.734  12.440  0.3547 -0.0563  0.7659
14181TIP3    H164034   1.296   5.650  12.393 -2.8602 -0.6684  1.6667
14181TIP3    H264035   1.346   5.717  12.519  2.8203 -0.0384 -0.7521
14182TIP3   OH264036   2.115   1.009   3.099  0.0221 -0.0868 -0.0417
14182TIP3    H164037   2.033   0.959   3.096 -0.6631  0.9296  1.4752
14182TIP3    H264038   2.170   0.961   3.160 -0.6016  0.9245  1.3437
14183TIP3   OH264039   3.738   0.779  14.821 -0.2600  0.1139 -0.0783
14183TIP3    H164040   3.815   0.770  14.878  0.0403  0.3134 -0.4451
14183TIP3    H264041   3.765   0.846  14.757 -1.1687  1.0746  0.5250
14184TIP3   OH264042   0.585   3.377   2.461 -0.2730  0.8026  0.3972
14184TIP3    H164043   0.505   3.408   2.417 -0.3807  0.3643  0.2833
14184TIP3    H264044   0.557   3.359   2.550 -0.8603 -1.6385 -0.2539
14185TIP3   OH264045   2.705   3.138  13.729  0.7575  0.0254  0.3456
14185TIP3    H164046   2.644   3.149  13.802  1.0841  1.2474  0.4361
14185TIP3    H264047   2.672   3.196  13.661 -0.6804 -2.5562 -1.2313
14186TIP3   OH264048   0.466   1.254   4.617 -0.1602 -0.3921 -0.2445
14186TIP3    H164049   0.442   1.284   4.704  0.8421 -2.9361  0.9556
14186TIP3    H264050   0.384   1.222   4.579 -0.6837  1.1389 -0.4370
14187TIP3   OH264051   3.949   0.215  13.529 -0.2950  0.0399 -0.1216
14187TIP3    H164052   3.914   0.170  13.606 -0.9593  0.0890 -0.3969
14187TIP3    H264053   3.902   0.177  13.455 -1.1031  1.4030 -0.3339
14188TIP3   OH264054   3.878   0.823  13.776  0.2542 -0.5069 -0.0211
14188TIP3    H164055   3.877   0.842  13.682 -0.1041  0.0051  0.0859
14188TIP3    H264056   3.955   0.869  13.809 -0.2125  0.1755  0.1165
14189TIP3   OH264057   3.180   4.822   4.984 -0.4447 -0.2745 -0.3313
14189TIP3    H164058   3.201   4.889   5.049 -0.5583 -0.5460 -0.0121
14189TIP3    H264059   3.121   4.866   4.922 -0.6937 -0.1445  0.0001
14190TIP3   OH264060   0.263   5.117  11.186  1.0146  0.0356 -0.1857
14190TIP3    H164061   0.347   5.075  11.205  0.0599 -1.5373  0.6597
14190TIP3    H264062   0.232   5.072  11.107  1.4637  1.3619 -1.1245
14191TIP3   OH264063   5.646   4.729   6.275 -0.8279  0.7586 -0.1418
14191TIP3    H164064   5.647   4.736   6.370 -1.8246  0.4470 -0.0988
14191TIP3    H264065   5.664   4.637   6.257  1.8639  1.2989 -0.3486
14192TIP3   OH264066   6.747   5.938   3.449 -0.0120 -0.2606  0.0635
14192TIP3    H164067   6.754   5.974   3.361 -2.0021  1.4859  0.5701
14192TIP3    H264068   6.681   5.870   3.442 -0.4182  0.1113  0.2744
14193TIP3   OH264069   0.094   3.646   2.069 -0.0785  0.1845  0.4764
14193TIP3    H164070   0.052   3.590   2.134  1.2086 -1.0877  0.2302
14193TIP3    H264071   0.022   3.696   2.030 -1.3386 -1.7559  0.2530
14194TIP3   OH264072   3.685   4.986   4.528 -0.2732  0.0510 -0.3342
14194TIP3    H164073   3.679   5.081   4.522 -0.7685  0.0645  0.3890
14194TIP3    H264074   3.762   4.964   4.475  0.3705  0.9275  0.2136
14195TIP3   OH264075   0.131   3.904   0.895  0.1970  0.1363 -0.2376
14195TIP3    H164076   0.139   3.846   0.818 -1.5357  0.7752 -0.9247
14195TIP3    H264077   0.178   3.983   0.870 -1.0456  0.6634 -1.0017
14196TIP3   OH264078   5.275   4.199   6.463 -0.0174 -0.5320 -0.1767
14196TIP3    H164079   5.300   4.113   6.498 -0.5991 -1.2465 -1.4906
14196TIP3    H264080   5.330   4.210   6.386  0.5353  0.5936  0.3579
14197TIP3   OH264081   1.174   5.821  12.184 -0.5430 -0.0323  0.5322
14197TIP3    H164082   1.182   5.756  12.115 -2.6264 -0.1459  0.3589
14197TIP3    H264083   1.235   5.792  12.252 -0.3459 -1.3109 -0.1863
14198TIP3   OH264084   4.614   0.374   3.228  0.3707 -0.1029  0.1655
14198TIP3    H164085   4.575   0.447   3.180  2.3224  0.9678  0.1644
14198TIP3    H264086   4.539   0.329   3.268 -1.0606  0.5204 -1.7076
14199TIP3   OH264087   2.198   6.552  17.220  0.2260  0.1572  0.3793
14199TIP3    H164088   2.125   6.506  17.180  0.7349 -1.0904  0.8586
14199TIP3    H264089   2.274   6.498  17.200  0.9674  1.2566  0.1872
14200TIP3   OH264090   2.776   5.332   4.764 -0.0908  0.3383 -0.3244
14200TIP3    H164091   2.746   5.423   4.763 -0.4889  0.2142  0.5453
14200TIP3    H264092   2.697   5.280   4.772  0.2814 -0.0050  1.3665
14201TIP3   OH264093   2.498   5.604  14.146  0.4565  0.1310  0.8951
14201TIP3    H164094   2.579   5.559  14.121  0.9748  2.2170 -1.2907
14201TIP3    H264095   2.428   5.541  14.126  1.2133  0.0633 -1.6805
14202TIP3   OH264096   5.681   2.682   2.391 -0.4641  0.1113 -0.1614
14202TIP3    H164097   5.765   2.713   2.424 -0.2133  0.3028 -0.9642
14202TIP3    H264098   5.625   2.759   2.393  0.1090  0.6145 -1.9887
14203TIP3   OH264099   0.425   0.035   2.674 -0.1827  0.3614  0.5036
14203TIP3    H164100   0.381  -0.009   2.602  1.2555 -1.8315  0.9229
14203TIP3    H264101   0.368   0.022   2.749 -1.2571  1.9031 -0.0218
14204TIP3   OH264102   3.667   4.890   3.126 -0.0503  0.4709 -0.8741
14204TIP3    H164103   3.685   4.894   3.031  3.1676  0.4624 -0.3418
14204TIP3    H264104   3.668   4.797   3.146 -1.3866  0.4375 -0.9097
14205TIP3   OH264105   6.200   6.088   3.307  0.1335 -0.0961 -0.6186
14205TIP3    H164106   6.201   6.183   3.319 -0.7695 -0.1029 -0.4569
14205TIP3    H264107   6.109   6.068   3.283 -0.2387 -1.1791  1.5291
14206TIP3   OH264108   3.577   0.671  14.606 -0.0861  0.4684 -0.0365
14206TIP3    H164109   3.633   0.678  14.683 -0.0762 -0.5077  0.0435
14206TIP3    H264110   3.636   0.642  14.537 -0.7561 -1.9208  0.3727
14207TIP3   OH264111   2.137   3.187   1.302  0.3577  0.2210  0.4739
14207TIP3    H164112   2.117   3.266   1.352  1.4335  1.5482 -1.1534
14207TIP3    H264113   2.066   3.181   1.237  1.4385  1.0747 -0.8070
14208TIP3   OH264114   2.389   4.355  10.696 -0.0810  0.4758  0.4377
14208TIP3    H164115   2.376   4.441  10.737  0.7418  0.9040 -0.1807
14208TIP3    H264116   2.371   4.370  10.603 -0.5024 -0.1599  0.4104
14209TIP3   OH264117   0.562   4.082  11.693  0.5503 -0.5188 -0.4605
14209TIP3    H164118   0.616   4.003  11.689  1.6835  0.3176 -2.2200
14209TIP3    H264119   0.620   4.149  11.729  0.5630  0.2694 -1.9053
14210TIP3   OH264120   2.645   3.635  17.176  0.4684 -0.6655 -0.5861
14210TIP3    H164121   2.652   3.546  17.210 -0.8184 -0.5745 -0.0674
14210TIP3    H264122   2.734   3.670  17.183  0.4084 -0.9350  1.9408
14211TIP3   OH264123   0.094   2.802  16.389 -0.0742  0.2088 -0.5282
14211TIP3    H164124   0.060   2.869  16.329 -0.0809  0.7796  0.1082
14211TIP3    H264125   0.044   2.723  16.367 -2.2955  1.1980  0.8542
14212TIP3   OH264126   3.543   2.220  13.506  0.2896 -0.3137 -0.2108
14212TIP3    H164127   3.606   2.291  13.506  1.6570 -1.4866 -1.4590
14212TIP3    H264128   3.499   2.227  13.421  0.2778 -0.7997 -0.2486
14213TIP3   OH264129   1.551   0.162   3.810 -0.5421 -0.0806 -0.0283
14213TIP3    H164130   1.590   0.117   3.885 -0.4527  1.6861  1.0143
14213TIP3    H264131   1.457   0.163   3.829 -0.8578 -2.0032 -1.2739
14214TIP3   OH264132   1.932   1.640  14.324  0.1880 -0.3320 -0.0157
14214TIP3    H164133   1.845   1.611  14.349  0.6247  0.1850  2.2724
14214TIP3    H264134   1.954   1.589  14.247 -2.4179  0.0692 -1.0664
14215TIP3   OH264135   3.149   1.943  14.274  0.0628  0.1351  0.2954
14215TIP3    H164136   3.102   2.026  14.274  0.2971  0.2846  2.0519
14215TIP3    H264137   3.080   1.877  14.285 -0.0544  0.1366 -0.4155
14216TIP3   OH264138   6.499   2.648   4.457  0.0242  0.1466  0.0562
14216TIP3    H164139   6.479   2.555   4.445  0.9765 -0.0768  0.1561
14216TIP3    H264140   6.575   2.649   4.515  0.6664  0.9544 -0.7853
14217TIP3   OH264141   5.129   4.507   6.304 -0.7479  0.1659 -0.8230
14217TIP3    H164142   5.207   4.541   6.347 -1.1168  0.0602 -0.0585
14217TIP3    H264143   5.122   4.557   6.222  0.0431  0.2569 -0.8354
14218TIP3   OH264144   3.921   1.744   2.621  0.1369  0.0060  0.0803
14218TIP3    H164145   3.865   1.695   2.681  1.7937 -2.7651 -0.5386
14218TIP3    H264146   3.990   1.780   2.677 -0.4374  0.6838  0.3644
14219TIP3   OH264147   2.841   1.994  13.207  0.0083  0.6094  0.2664
14219TIP3    H164148   2.877   2.017  13.294 -0.1161 -1.0872  0.7789
14219TIP3    H264149   2.756   1.956  13.226  0.0258  0.1409 -0.6063
14220TIP3   OH264150   0.993   1.934   6.521 -0.4659  0.3881  0.0368
14220TIP3    H164151   0.979   2.027   6.507 -1.5365  0.0633 -1.1612
14220TIP3    H264152   0.962   1.918   6.610  0.2547  1.2830  0.4447
14221TIP3   OH264153   1.243   4.268   5.688 -0.0357 -0.2513  0.1384
14221TIP3    H164154   1.169   4.269   5.626 -0.0806  2.2403  0.1789
14221TIP3    H264155   1.309   4.324   5.647  1.0458 -0.8417  1.0577
14222TIP3   OH264156   3.741   1.407  15.646 -0.0372 -0.4310  0.1678
14222TIP3    H164157   3.650   1.430  15.662  0.7256  1.3862  2.3248
14222TIP3    H264158   3.773   1.375  15.731  2.0097  1.5366  0.1946
14223TIP3   OH264159   5.111   0.376  16.931  0.0623  0.0012 -0.9125
14223TIP3    H164160   5.180   0.425  16.977 -0.1181 -1.0798  0.5460
14223TIP3    H264161   5.031   0.424  16.950 -0.0717 -0.6809  0.2599
14224TIP3   OH264162   3.924   0.513  12.776 -0.0953 -0.3995  0.2132
14224TIP3    H164163   3.860   0.507  12.705 -2.1781 -0.8683  2.0973
14224TIP3    H264164   3.978   0.434  12.766 -1.3718 -1.2648  0.0919
14225TIP3   OH264165   6.696   3.300   1.400  0.3605  0.5386 -0.8353
14225TIP3    H164166   6.729   3.227   1.454  1.3047  1.2134 -0.4823
14225TIP3    H264167   6.632   3.344   1.456 -1.2700 -0.8697 -1.5775
14226TIP3   OH264168   0.030   6.772  14.478 -0.1097  0.2043 -0.2638
14226TIP3    H164169   0.039   6.705  14.411 -0.5273  1.1345 -1.2517
14226TIP3    H264170  -0.021   6.842  14.437 -0.0736  0.9347  0.8948
14227TIP3   OH264171   6.222   6.633  14.588 -0.1323  0.0394 -0.7422
14227TIP3    H164172   6.237   6.727  14.583 -0.0862  0.1415  1.1213
14227TIP3    H264173   6.128   6.622  14.575  0.0672  0.2031 -2.4523
14228TIP3   OH264174   6.700   4.437   5.762 -0.2052 -0.3174  0.2036
14228TIP3    H164175   6.709   4.524   5.800 -1.6045 -0.9551  2.0721
14228TIP3    H264176   6.647   4.450   5.683 -1.9078  0.2794  1.4383
14229TIP3   OH264177   4.013   1.494  14.479  0.1218 -0.4501 -0.1781
14229TIP3    H164178   4.014   1.552  14.403 -2.5685 -0.0242  0.0535
14229TIP3    H264179   4.038   1.551  14.552 -0.6542 -0.0297 -0.2357
14230TIP3   OH264180   0.342   0.235   6.610  0.0066  0.6290  0.5213
14230TIP3    H164181   0.289   0.314   6.612  1.6920  1.7705  1.2552
14230TIP3    H264182   0.295   0.173   6.667 -0.8889  1.3614  0.5868
14231TIP3   OH264183   2.064   6.120   2.395  0.4880 -0.5197 -0.3135
14231TIP3    H164184   2.099   6.172   2.323 -0.9810  3.6323  1.8167
14231TIP3    H264185   2.129   6.128   2.465 -1.4343  1.6320  1.3076
14232TIP3   OH264186   0.408   4.429  15.035  0.5202 -0.5509 -0.1545
14232TIP3    H164187   0.429   4.365  15.103  2.2327  0.1462 -0.0215
14232TIP3    H264188   0.372   4.503  15.083  0.6496 -0.5157 -0.1114
14233TIP3   OH264189   4.032   2.960  12.339 -0.1852  0.0058  0.1112
14233TIP3    H164190   4.039   2.915  12.255  0.3475 -0.8400  0.6054
14233TIP3    H264191   4.014   3.051  12.316 -0.5253 -0.3128 -0.9095
14234TIP3   OH264192   4.502   3.821  14.148 -0.9335  0.1026 -0.4097
14234TIP3    H164193   4.567   3.751  14.154  2.1635  2.8576 -0.7520
14234TIP3    H264194   4.431   3.783  14.097  0.9805 -2.5497 -1.2120
14235TIP3   OH264195   5.019   4.434  13.363 -0.0976  0.5390 -0.1703
14235TIP3    H164196   5.087   4.496  13.390 -0.1346  0.1932  0.7321
14235TIP3    H264197   5.005   4.379  13.440 -2.0857  1.2102 -0.0128
14236TIP3   OH264198   1.021   0.313   5.474 -0.5380 -0.2769  0.1298
14236TIP3    H164199   0.960   0.280   5.407 -1.5327  0.8226  0.4756
14236TIP3    H264200   1.106   0.316   5.430 -0.4079 -3.2404  0.0705
14237TIP3   OH264201   2.703   2.265   1.182 -0.6760  0.4957  0.3069
14237TIP3    H164202   2.719   2.332   1.116  0.8051 -0.1373 -0.0079
14237TIP3    H264203   2.621   2.291   1.224 -0.0423  2.5761  0.3034
14238TIP3   OH264204   2.824   2.032   1.228 -0.3509  0.3497  0.1178
14238TIP3    H164205   2.796   2.123   1.235  0.1471  0.6328 -1.4383
14238TIP3    H264206   2.767   1.994   1.161  0.2011 -0.1733 -0.0595
14239TIP3   OH264207   0.223   4.677  15.702  0.8243  0.1986 -0.2682
14239TIP3    H164208   0.263   4.753  15.659  1.0445  1.1403  1.5617
14239TIP3    H264209   0.261   4.602  15.656  1.8357  1.1511 -1.0397
14240TIP3   OH264210   4.232   0.377   0.976  0.3835  0.5489 -0.2161
14240TIP3    H164211   4.274   0.354   1.059 -0.2042  0.5898  0.1020
14240TIP3    H264212   4.139   0.356   0.991 -0.2052  3.2932  0.1349
14241TIP3   OH264213   4.872   0.509  17.016  0.2800  0.6101 -0.4766
14241TIP3    H164214   4.911   0.573  17.075  0.1323  0.8291 -0.6129
14241TIP3    H264215   4.802   0.558  16.971  1.4576  0.9209 -2.0321
14242TIP3   OH264216   2.401   6.722  12.923  0.1831 -0.0397 -0.2406
14242TIP3    H164217   2.411   6.735  12.828  1.4108 -0.3663 -0.1594
14242TIP3    H264218   2.328   6.661  12.931  1.0935 -1.2666 -1.0513
14243TIP3   OH264219   1.721   0.178  12.074  0.0494 -0.0489 -0.1694
14243TIP3    H164220   1.645   0.135  12.036 -0.4639 -0.0383  0.8442
14243TIP3    H264221   1.796   0.129  12.039 -0.5565 -2.3846  1.6993
14244TIP3   OH264222   2.002   0.117  16.887  0.6797 -0.9342 -0.3949
14244TIP3    H164223   2.036   0.159  16.808  0.8654 -0.3632 -0.0083
14244TIP3    H264224   1.949   0.044  16.854 -0.3644  0.1188 -1.0903
14245TIP3   OH264225   4.280   0.607  11.570 -0.0711  0.1966 -0.3278
14245TIP3    H164226   4.328   0.598  11.488  0.6662  1.9056 -0.1055
14245TIP3    H264227   4.338   0.572  11.637  0.2321  0.8078 -0.2652
14246TIP3   OH264228   4.854   4.596   3.330 -0.0128  0.2141 -0.0425
14246TIP3    H164229   4.800   4.668   3.299 -0.2941  0.8484  1.8717
14246TIP3    H264230   4.796   4.520   3.329 -0.7070  0.7186  1.1796
14247TIP3   OH264231   2.366   6.516   1.848 -0.2724 -0.4568 -0.3776
14247TIP3    H164232   2.402   6.575   1.914 -1.8087 -0.0325  0.1144
14247TIP3    H264233   2.432   6.514   1.779  0.6687  0.3006  0.4806
14248TIP3   OH264234   4.149   1.296   3.677 -0.0841  0.5218  0.4761
14248TIP3    H164235   4.200   1.322   3.755 -2.9178 -1.6448  3.1744
14248TIP3    H264236   4.195   1.219   3.644 -0.5945 -0.3874  1.8571
14249TIP3   OH264237   2.783   5.029   2.908 -0.4846 -0.1185  0.5614
14249TIP3    H164238   2.800   5.055   2.818 -0.4299 -0.8085  0.3686
14249TIP3    H264239   2.870   5.022   2.948 -0.5553  1.3360  1.0037
14250TIP3   OH264240   6.567   2.160   0.501  0.6819  0.1522 -0.2331
14250TIP3    H164241   6.552   2.070   0.529  2.0788 -0.5672 -1.7398
14250TIP3    H264242   6.558   2.158   0.406 -0.7301  1.9086 -0.1701
14251TIP3   OH264243   4.288   4.950  14.764  0.1597  0.0551  0.1739
14251TIP3    H164244   4.348   4.930  14.836 -0.9356 -0.5131  0.9330
14251TIP3    H264245   4.214   4.994  14.805  1.1743  3.1017 -1.0867
14252TIP3   OH264246   3.265   1.294   6.228 -0.0155 -0.3100  0.4983
14252TIP3    H164247   3.269   1.378   6.273 -0.3800  0.7749 -1.4739
14252TIP3    H264248   3.323   1.237   6.279  1.3172  1.5030  1.0430
14253TIP3   OH264249   5.732   2.193   2.802 -0.2954 -0.2000  0.5137
14253TIP3    H164250   5.646   2.199   2.843 -1.0945  0.4578 -1.2165
14253TIP3    H264251   5.757   2.102   2.813 -1.5537 -0.5731  0.3677
14254TIP3   OH264252   3.443   1.264   3.799  0.5493 -0.2365 -0.2203
14254TIP3    H164253   3.475   1.339   3.850  0.4047 -0.3403  0.0232
14254TIP3    H264254   3.521   1.232   3.753  0.4836  0.4437 -0.8042
14255TIP3   OH264255   4.015   5.431   1.653  0.6320 -0.1897  0.1251
14255TIP3    H164256   4.085   5.496   1.659  1.0914 -0.6467 -0.1468
14255TIP3    H264257   3.946   5.464   1.709  0.8786  0.5129  0.0160
14256TIP3   OH264258   0.003   3.934  14.607 -0.0073  0.5226 -0.6423
14256TIP3    H164259  -0.012   3.961  14.516 -1.7406  1.5594 -0.0856
14256TIP3    H264260   0.094   3.957  14.624  1.0643 -1.8320 -2.8162
14257TIP3   OH264261   3.044   6.369   2.773  0.0099 -0.2085 -0.3376
14257TIP3    H164262   3.066   6.434   2.706  0.3010 -0.0062 -0.0458
14257TIP3    H264263   3.114   6.304   2.768 -0.3730 -0.5950 -0.7481
14258TIP3   OH264264   6.020   3.964  15.327  0.0380  0.3413  0.7853
14258TIP3    H164265   6.110   3.937  15.343 -0.2993 -0.7512  0.9198
14258TIP3    H264266   6.023   4.011  15.244  0.7262  0.2683  0.7686
14259TIP3   OH264267   4.024   3.059   2.374  0.1264  0.4934 -0.9348
14259TIP3    H164268   4.015   3.152   2.354 -2.1911  0.5659  0.3130
14259TIP3    H264269   4.027   3.017   2.288  0.3897  1.6538 -1.5003
14260TIP3   OH264270   1.843   4.056   6.460  0.4790 -0.1326  0.2715
14260TIP3    H164271   1.786   4.106   6.402  0.0544  2.5727  2.8780
14260TIP3    H264272   1.790   4.039   6.537  1.9693 -1.0239  1.1321
14261TIP3   OH264273   1.386   4.548  15.715 -0.9970 -0.0035 -0.7576
14261TIP3    H164274   1.391   4.638  15.685 -0.5266  0.0457 -0.5383
14261TIP3    H264275   1.447   4.500  15.658  1.0943  0.3679  1.1117
14262TIP3   OH264276   3.739   0.265   1.946  0.2118  0.2839 -0.0975
14262TIP3    H164277   3.756   0.173   1.966 -0.7395  0.2630  0.6596
14262TIP3    H264278   3.826   0.305   1.941  0.5505 -0.0758  2.4014
14263TIP3   OH264279   5.294   1.607   5.513 -0.3169 -0.4163  0.4322
14263TIP3    H164280   5.275   1.547   5.585  1.3689  0.4786  1.6538
14263TIP3    H264281   5.213   1.655   5.498 -1.1351 -1.7204  0.6589
14264TIP3   OH264282   1.106   3.854  13.591  0.3736  0.4914  0.5038
14264TIP3    H164283   1.174   3.921  13.585 -1.1625  2.0313 -0.1731
14264TIP3    H264284   1.073   3.861  13.680  0.5016  0.3441  0.5629
14265TIP3   OH264285   2.325   0.792   2.353  0.6249 -0.0524 -0.4414
14265TIP3    H164286   2.267   0.798   2.277 -1.1758 -0.7372  0.8323
14265TIP3    H264287   2.268   0.763   2.424  2.3022  0.4540  1.1509
14266TIP3   OH264288   4.948   6.583  15.593  0.5359 -0.1881 -0.2381
14266TIP3    H164289   5.010   6.655  15.582  0.5612 -0.4832 -2.1501
14266TIP3    H264290   4.985   6.512  15.541 -0.7215 -0.8010 -0.3076
14267TIP3   OH264291   2.686   4.425  17.093 -0.5609 -0.4887  0.0311
14267TIP3    H164292   2.704   4.347  17.146 -1.6500 -0.0800  1.0355
14267TIP3    H264293   2.597   4.413  17.061 -0.1819 -0.3665 -1.0810
14268TIP3   OH264294   5.612   5.851   0.731  0.0388 -0.2346  0.7328
14268TIP3    H164295   5.665   5.776   0.758 -0.0612  0.3136  2.5340
14268TIP3    H264296   5.615   5.910   0.806 -0.5486  1.2080 -0.3579
14269TIP3   OH264297   4.277   3.273  16.189  0.0813  0.8456  0.5519
14269TIP3    H164298   4.286   3.321  16.107 -2.1525 -0.9941 -0.8326
14269TIP3    H264299   4.255   3.340  16.254 -1.2390  1.9329 -0.9785
14270TIP3   OH264300   0.448   4.885   4.107 -0.7956  0.9151 -0.5833
14270TIP3    H164301   0.426   4.940   4.032  0.0074  0.5685 -1.0792
14270TIP3    H264302   0.365   4.870   4.152 -1.3488  0.7746 -1.6531
14271TIP3   OH264303   5.712   3.922  13.421  0.1047  1.0274  0.4566
14271TIP3    H164304   5.659   3.945  13.497  1.8500  0.6353  1.8282
14271TIP3    H264305   5.759   3.843  13.447  0.7157  0.8684 -1.0444
14272TIP3   OH264306   3.696   6.477   0.945  0.1270  0.0631 -0.5006
14272TIP3    H164307   3.755   6.450   1.015  0.2087  0.1855 -0.5213
14272TIP3    H264308   3.629   6.530   0.988  0.3970  0.4651 -0.5721
14273TIP3   OH264309   3.941   4.257  16.364 -0.0043 -0.1614 -0.9240
14273TIP3    H164310   3.930   4.230  16.455  1.2484  0.8918 -0.4362
14273TIP3    H264311   3.884   4.333  16.354  0.0042 -0.1589 -0.9551
14274TIP3   OH264312   2.724   4.860   4.823  0.2378  0.2340  0.0147
14274TIP3    H164313   2.691   4.873   4.912 -0.4692 -0.8888 -0.0766
14274TIP3    H264314   2.753   4.768   4.821  2.0641  0.7925 -0.3292
14275TIP3   OH264315   3.329   5.456  12.443  0.4807  0.4240 -0.5141
14275TIP3    H164316   3.252   5.401  12.460  0.5829 -0.2816 -2.2166
14275TIP3    H264317   3.356   5.487  12.530  0.8355 -2.8055  0.6003
14276TIP3   OH264318   1.255   4.565  13.954  0.5637 -0.0402  0.3556
14276TIP3    H164319   1.181   4.590  14.009  0.0164  0.5444 -0.6267
14276TIP3    H264320   1.323   4.630  13.974 -1.2908  3.2229 -3.1345
14277TIP3   OH264321   5.227   0.528  13.410  0.3610 -0.4233 -0.2247
14277TIP3    H164322   5.267   0.600  13.458  1.1821  0.2805 -1.9415
14277TIP3    H264323   5.202   0.465  13.478  0.6846  0.9486  1.1896
14278TIP3   OH264324   5.936   0.603   2.078  0.4701  0.1211  0.2239
14278TIP3    H164325   5.913   0.676   2.020  0.3393 -0.4549 -0.4608
14278TIP3    H264326   5.974   0.537   2.019  0.1530 -0.5495  0.7696
14279TIP3   OH264327   4.433   1.657  12.775 -0.0126  0.1563 -0.1450
14279TIP3    H164328   4.469   1.569  12.788  1.6583  0.8995  0.4215
14279TIP3    H264329   4.507   1.709  12.743 -1.5688  0.8047 -2.8703
14280TIP3   OH264330   0.024   1.331   1.092  0.0635 -0.1371 -0.3910
14280TIP3    H164331   0.052   1.255   1.143  2.3334  2.0480  1.7736
14280TIP3    H264332   0.102   1.357   1.044 -0.6766  0.8760 -1.0559
14281TIP3   OH264333   2.627   2.529  11.827  0.0116  0.7875 -0.0474
14281TIP3    H164334   2.710   2.546  11.783  0.4372 -1.7893 -0.3117
14281TIP3    H264335   2.560   2.544  11.760  0.4239  0.4142 -0.5390
14282TIP3   OH264336   1.189   1.453   4.626  0.1760  0.0316 -0.0779
14282TIP3    H164337   1.234   1.370   4.644 -0.8583 -0.3850  0.6134
14282TIP3    H264338   1.187   1.459   4.531 -0.4885 -1.1515 -0.1486
14283TIP3   OH264339   5.745   6.225   3.427 -0.0231  0.0883  0.4413
14283TIP3    H164340   5.794   6.271   3.359  1.8147 -0.2270  1.5088
14283TIP3    H264341   5.680   6.288   3.457 -1.6343 -0.1556 -2.3730
14284TIP3   OH264342   0.756   1.249  12.663 -0.2138  0.0460 -0.0206
14284TIP3    H164343   0.841   1.224  12.627  0.8653  1.0006  1.7933
14284TIP3    H264344   0.761   1.225  12.756 -1.5479  1.0412  0.3293
14285TIP3   OH264345   1.610   2.670   2.406  0.3113 -0.7812 -0.6749
14285TIP3    H164346   1.673   2.621   2.459 -0.1768 -0.6715  0.0041
14285TIP3    H264347   1.621   2.761   2.434  0.7560 -0.5775 -1.4749
14286TIP3   OH264348   5.880   5.792  11.820  0.0201 -0.1063 -0.0069
14286TIP3    H164349   5.861   5.701  11.798  0.2844  0.0667 -0.9873
14286TIP3    H264350   5.840   5.842  11.749  1.7567  0.4153 -0.6503
14287TIP3   OH264351   4.384   5.979  15.663 -0.8043 -0.0768 -0.6571
14287TIP3    H164352   4.374   5.988  15.757 -1.2569 -2.2021 -0.4695
14287TIP3    H264353   4.450   6.044  15.639 -1.6935  1.4414  0.8918
14288TIP3   OH264354   5.694   1.173   5.673  0.3540 -0.5297 -0.8750
14288TIP3    H164355   5.754   1.103   5.699  1.1302  1.0828  1.9277
14288TIP3    H264356   5.751   1.243   5.641 -0.2060  0.0079 -0.7140
14289TIP3   OH264357   0.497   1.964  12.657  0.1258  0.1940 -0.1533
14289TIP3    H164358   0.471   2.012  12.736 -0.1511  1.0373 -0.7493
14289TIP3    H264359   0.592   1.959  12.662  0.1969  1.3261 -0.3875
14290TIP3   OH264360   2.849   2.393  12.456 -0.2085  0.0302 -1.0801
14290TIP3    H164361   2.821   2.470  12.505 -0.8986  0.6767 -2.4764
14290TIP3    H264362   2.945   2.393  12.463 -0.2884  0.2227  0.0878
14291TIP3   OH264363   0.999   4.668   3.581 -0.0248  0.4054  0.2880
14291TIP3    H164364   0.947   4.588   3.565  1.1805 -0.1925 -0.7338
14291TIP3    H264365   0.943   4.738   3.548  0.4495 -0.3967 -2.3935
14292TIP3   OH264366   3.753   3.953   4.570 -0.7022 -0.2633 -0.0964
14292TIP3    H164367   3.742   3.988   4.659  0.8290 -0.9061  0.3629
14292TIP3    H264368   3.667   3.917   4.547 -0.9254 -0.7012  1.3875
14293TIP3   OH264369   4.474   5.953   3.122  0.3590 -0.4228  0.3164
14293TIP3    H164370   4.505   5.950   3.031  1.0628 -1.4983  0.5842
14293TIP3    H264371   4.551   5.980   3.172 -0.6618  2.6432  0.3292
14294TIP3   OH264372   4.978   4.249   3.092 -0.3373  0.1418 -0.2072
14294TIP3    H164373   5.059   4.208   3.061  0.4353  1.1407  0.4557
14294TIP3    H264374   4.966   4.214   3.180 -1.1542 -0.7530 -0.6785
14295TIP3   OH264375   5.440   2.309   5.369 -0.2681 -0.0101 -0.0038
14295TIP3    H164376   5.428   2.359   5.288  2.2248  0.5676 -0.0818
14295TIP3    H264377   5.467   2.222   5.339  2.8912  0.8484  0.1625
14296TIP3   OH264378   3.092   5.422  11.309 -0.2937  0.3361  0.1388
14296TIP3    H164379   3.017   5.480  11.300 -1.1634 -0.8947 -0.7164
14296TIP3    H264380   3.064   5.340  11.267  1.1118 -0.5015  0.8063
14297TIP3   OH264381   3.257   0.562  16.186 -0.1955  0.1654  0.2251
14297TIP3    H164382   3.218   0.527  16.106  1.8348 -4.0780  0.9596
14297TIP3    H264383   3.341   0.598  16.159 -0.5253  0.8586  0.1084
14298TIP3   OH264384   3.981   0.139  12.699 -0.1019  0.2376  0.8809
14298TIP3    H164385   3.974   0.046  12.681  0.3257  0.1633  1.0940
14298TIP3    H264386   3.928   0.181  12.632  0.3730 -0.1146  0.2869
14299TIP3   OH264387   4.444   2.017  15.942  0.0907  0.2071 -0.0468
14299TIP3    H164388   4.375   1.998  15.879  1.6572  0.2238 -1.8330
14299TIP3    H264389   4.459   1.934  15.988  1.1692 -0.7134 -2.0057
14300TIP3   OH264390   6.331   5.264  16.941  0.8296  0.2383 -0.1862
14300TIP3    H164391   6.278   5.327  16.991 -1.9923  0.6230 -3.4845
14300TIP3    H264392   6.410   5.313  16.918  0.8142  1.0035  1.3001
14301TIP3   OH264393   5.234   1.179   6.038  0.1491 -0.1619 -0.0117
14301TIP3    H164394   5.227   1.105   6.097  0.9364  0.6755  1.1642
14301TIP3    H264395   5.144   1.204   6.018 -0.1111 -0.5260  0.7412
14302TIP3   OH264396   6.589   0.482  15.148 -0.7168 -0.4327  0.2098
14302TIP3    H164397   6.598   0.442  15.061 -0.9228 -1.3566  0.6152
14302TIP3    H264398   6.498   0.513  15.150 -0.5871 -0.0289 -0.0633
14303TIP3   OH264399   0.111   1.284  11.658  0.0721 -0.5837 -0.6084
14303TIP3    H164400   0.066   1.199  11.658 -1.7206  0.3450 -0.6917
14303TIP3    H264401   0.076   1.329  11.735  2.8019 -0.8154  0.8170
14304TIP3   OH264402   2.989   6.596  13.692 -0.4436 -0.4944 -0.0265
14304TIP3    H164403   2.933   6.671  13.710 -0.7745 -0.5902 -0.6653
14304TIP3    H264404   3.052   6.596  13.764 -0.0116  0.7972 -0.3859
14305TIP3   OH264405   4.552   2.289  15.020  0.5093 -0.3096  0.3226
14305TIP3    H164406   4.519   2.240  14.944  0.8703 -0.2400  0.1182
14305TIP3    H264407   4.574   2.375  14.985 -0.5300  0.1449  0.7688
14306TIP3   OH264408   3.987   2.161   5.096  0.1047  0.1364  0.2142
14306TIP3    H164409   3.899   2.190   5.073  0.4001  1.5518  0.8298
14306TIP3    H264410   4.038   2.171   5.016  0.1624  1.1620  0.3773
14307TIP3   OH264411   2.132   5.623  16.307  0.1496 -0.3071  0.1845
14307TIP3    H164412   2.068   5.634  16.377  0.1899  0.7665  0.0517
14307TIP3    H264413   2.084   5.577  16.238 -0.4979  0.5158  0.0766
14308TIP3   OH264414   2.058   5.858   1.952 -0.1840 -0.8791  0.3423
14308TIP3    H164415   2.097   5.774   1.928  2.4677  0.4135 -0.0434
14308TIP3    H264416   2.007   5.883   1.875  0.1868 -1.4625 -0.1027
14309TIP3   OH264417   0.072   6.104   5.487 -0.2221  0.0866 -0.3534
14309TIP3    H164418   0.049   6.084   5.396  0.7471 -0.0896 -0.5686
14309TIP3    H264419   0.163   6.075   5.496  0.1057  1.2608  0.3042
14310TIP3   OH264420   3.704   2.868  12.079 -0.6058 -0.5584 -0.1000
14310TIP3    H164421   3.693   2.963  12.085 -0.3897 -0.4376 -1.4583
14310TIP3    H264422   3.723   2.841  12.169  0.4279  0.8282  0.1270
14311TIP3   OH264423   5.758   0.949  15.606  0.2933 -0.4360 -0.0500
14311TIP3    H164424   5.712   1.016  15.654 -0.6133 -2.0607  1.4003
14311TIP3    H264425   5.787   0.886  15.673 -1.4332 -2.9962 -1.5915
14312TIP3   OH264426   3.070   2.996  12.040 -0.0909 -0.1378  0.3404
14312TIP3    H164427   3.049   3.089  12.046  0.4957  0.0747 -0.7502
14312TIP3    H264428   2.988   2.952  12.061  0.0384  0.5979  2.4407
14313TIP3   OH264429   6.501   4.275  12.586  0.0558  0.3989 -0.4344
14313TIP3    H164430   6.463   4.248  12.669  0.5023  0.3048 -0.2548
14313TIP3    H264431   6.572   4.334  12.610  0.0381  0.5530 -0.7588
14314TIP3   OH264432   2.957   0.487   3.153 -0.1712 -0.0896  0.3332
14314TIP3    H164433   2.907   0.563   3.179 -0.9327 -0.6719  0.5672
14314TIP3    H264434   2.956   0.429   3.229 -0.8714 -0.9915 -0.3490
14315TIP3   OH264435   5.454   2.920   0.408 -0.3151 -0.3604 -0.3940
14315TIP3    H164436   5.459   3.015   0.417 -0.3768 -0.3392 -0.5763
14315TIP3    H264437   5.508   2.886   0.479 -0.5775 -0.1942 -0.1112
14316TIP3   OH264438   3.765   3.441   5.472 -0.6317  0.2343 -0.2196
14316TIP3    H164439   3.740   3.356   5.508 -1.4906  0.9328  0.8427
14316TIP3    H264440   3.685   3.493   5.475  0.0735  1.3340 -0.1565
14317TIP3   OH264441   3.217   3.476  13.014  0.0756  0.4534 -0.0318
14317TIP3    H164442   3.220   3.557  13.065  1.2898 -1.5586  3.2165
14317TIP3    H264443   3.304   3.471  12.973  0.9441 -0.4891  1.8838
14318TIP3   OH264444   0.180   2.692   5.177 -0.2451 -0.4862  0.0668
14318TIP3    H164445   0.221   2.614   5.141 -1.1898 -0.8616 -0.2189
14318TIP3    H264446   0.110   2.659   5.233  0.1544  0.1318  0.9411
14319TIP3   OH264447   6.128   2.823  12.833 -0.1179  0.1740 -0.7257
14319TIP3    H164448   6.042   2.814  12.873  0.2961 -0.2934  0.0737
14319TIP3    H264449   6.140   2.743  12.782  0.9211 -0.9715  1.2727
14320TIP3   OH264450   5.546   2.208   1.474  0.3585 -0.4487  0.0831
14320TIP3    H164451   5.581   2.150   1.542  2.6529 -1.6578 -2.0681
14320TIP3    H264452   5.514   2.149   1.406 -0.1956  0.7829 -0.7410
14321TIP3   OH264453   1.649   2.854  11.573 -0.2517  0.2178 -0.0503
14321TIP3    H164454   1.604   2.929  11.533 -0.2018  0.7049  0.7915
14321TIP3    H264455   1.701   2.893  11.643  3.3146  0.0062 -2.4400
14322TIP3   OH264456   2.008   2.502  12.838 -0.3510  0.2597  0.4352
14322TIP3    H164457   2.019   2.560  12.763 -0.7648  1.5080  1.3112
14322TIP3    H264458   2.039   2.417  12.808 -0.0804  0.8516 -0.9976
14323TIP3   OH264459   0.961   1.490  16.038  0.7618  0.2657  0.5272
14323TIP3    H164460   0.932   1.554  16.104  0.0361 -0.4121  0.8654
14323TIP3    H264461   0.987   1.543  15.963  0.8332  1.0009  1.0642
14324TIP3   OH264462   0.381   3.638   1.445 -0.1503 -0.6482 -0.4359
14324TIP3    H164463   0.362   3.544   1.445  0.6638 -0.8243  0.3320
14324TIP3    H264464   0.317   3.676   1.385 -0.0451 -1.7807 -1.2779
14325TIP3   OH264465   2.146   2.775  11.776  0.7701  0.3562 -0.0178
14325TIP3    H164466   2.122   2.829  11.851 -0.2603  0.5349 -0.4665
14325TIP3    H264467   2.155   2.838  11.704  0.9733  0.0962 -0.2179
14326TIP3   OH264468   6.148   5.194   5.912  0.1963  0.4291 -0.3914
14326TIP3    H164469   6.110   5.241   5.838 -1.6561  0.4878  0.5550
14326TIP3    H264470   6.104   5.109   5.912  0.0644  0.4828  0.7022
14327TIP3   OH264471   0.465   1.091   2.597  0.7177 -0.3356  0.0975
14327TIP3    H164472   0.413   1.028   2.546 -0.0286  0.8811 -0.6630
14327TIP3    H264473   0.519   1.136   2.532 -1.3684  2.3202  0.1240
14328TIP3   OH264474   6.180   6.039  15.791  0.4265 -0.0324 -0.6348
14328TIP3    H164475   6.239   6.098  15.744  0.9102  0.8294  1.0037
14328TIP3    H264476   6.206   6.048  15.883  0.3541 -2.6235 -0.3299
14329TIP3   OH264477   2.856   2.398  16.504  0.1193  0.3250  0.5932
14329TIP3    H164478   2.890   2.309  16.508  1.2825  0.7314  0.0285
14329TIP3    H264479   2.853   2.426  16.595  2.6086  0.7464  0.5767
14330TIP3   OH264480   5.855   6.757  16.826 -0.4064  0.0998  0.0940
14330TIP3    H164481   5.941   6.733  16.860 -0.6836 -0.8562  0.1468
14330TIP3    H264482   5.813   6.803  16.899  0.0077  0.4430  0.1184
14331TIP3   OH264483   0.800   6.516   0.131  0.0599  0.5897 -0.2549
14331TIP3    H164484   0.838   6.548   0.213  1.4132  0.4591 -0.8162
14331TIP3    H264485   0.854   6.440   0.109 -1.9622 -0.9888  0.1110
14332TIP3   OH264486   2.785   1.148  14.073  0.2045  0.3464  0.2658
14332TIP3    H164487   2.797   1.076  14.135  0.4934  0.6807  0.6024
14332TIP3    H264488   2.860   1.206  14.088  0.1142  0.5866 -0.1828
14333TIP3   OH264489   0.874   1.238   2.509  0.1097  0.1334  0.2748
14333TIP3    H164490   0.891   1.265   2.599  1.5641  0.0094  0.0630
14333TIP3    H264491   0.884   1.318   2.458  0.7132 -0.0619  0.0747
14334TIP3   OH264492   6.588   2.239  11.568  0.1125 -0.2436 -0.3317
14334TIP3    H164493   6.617   2.285  11.489 -0.3498  1.2455  0.3364
14334TIP3    H264494   6.662   2.185  11.593  0.0092 -1.2769 -2.1846
14335TIP3   OH264495   3.157   4.925  14.689  0.1772  0.2220  0.0316
14335TIP3    H164496   3.219   4.921  14.616  1.1726  1.5975  0.7590
14335TIP3    H264497   3.204   4.884  14.762 -0.0209  0.6461  0.4040
14336TIP3   OH264498   5.114   0.784   2.815 -0.8421 -0.2660 -0.4175
14336TIP3    H164499   5.143   0.746   2.732  0.2811 -1.1473  0.3665
14336TIP3    H264500   5.100   0.877   2.795  1.7846  0.0394 -1.0281
14337TIP3   OH264501   3.043   5.319   5.549 -0.4675 -0.2477  0.4906
14337TIP3    H164502   2.973   5.385   5.552  0.3807  0.9621 -3.6758
14337TIP3    H264503   3.018   5.260   5.479  2.4980  0.0205 -0.8692
14338TIP3   OH264504   5.638   1.222  12.803  0.1115 -0.5097  0.5867
14338TIP3    H164505   5.694   1.297  12.820 -1.4100  0.8400 -0.2484
14338TIP3    H264506   5.674   1.183  12.723 -0.0314  0.2381  0.1573
14339TIP3   OH264507   3.778   2.596   1.854  0.0086 -0.7034 -0.6069
14339TIP3    H164508   3.815   2.517   1.814 -0.4711 -0.9165 -0.6421
14339TIP3    H264509   3.707   2.563   1.909  0.5012 -0.3807  0.2170
14340TIP3   OH264510   0.862   4.594  11.846  0.3773  0.2323 -0.7627
14340TIP3    H164511   0.955   4.594  11.869  0.7935 -0.1229 -2.4178
14340TIP3    H264512   0.847   4.509  11.806 -0.5836  0.4498 -0.8768
14341TIP3   OH264513   6.640   3.734  14.690  0.8376 -0.8163 -0.2344
14341TIP3    H164514   6.646   3.776  14.776  1.4037  0.3309 -0.8384
14341TIP3    H264515   6.590   3.794  14.636 -0.3496 -1.9757 -0.4570
14342TIP3   OH264516   3.498   1.549   1.424 -0.4457 -0.5548 -0.1454
14342TIP3    H164517   3.421   1.510   1.465 -1.2571  1.5375  0.3661
14342TIP3    H264518   3.569   1.488   1.442 -1.4463 -1.2125  1.6336
14343TIP3   OH264519   3.799   2.855  10.550 -0.0621 -0.4969  0.2729
14343TIP3    H164520   3.772   2.787  10.611  0.6527 -0.8213  0.2389
14343TIP3    H264521   3.874   2.817  10.504  1.2697  0.8468  1.2827
14344TIP3   OH264522   3.688   4.251  17.217  0.1343 -0.7434 -0.0635
14344TIP3    H164523   3.677   4.215  17.305 -0.3166  0.9389  0.5902
14344TIP3    H264524   3.613   4.217  17.168 -0.5216 -0.3640  0.6614
14345TIP3   OH264525   5.639   1.512  17.241 -0.4813  0.4814 -0.6372
14345TIP3    H164526   5.587   1.590  17.263  0.8343  0.8815  1.2491
14345TIP3    H264527   5.730   1.541  17.251  0.0152 -1.5948  1.2310
14346TIP3   OH264528   4.570   4.713   5.907  0.3778 -0.6024 -0.6497
14346TIP3    H164529   4.663   4.716   5.885  0.1603 -2.2947 -1.8965
14346TIP3    H264530   4.538   4.633   5.866 -1.5411 -0.2790  0.1526
14347TIP3   OH264531   3.947   5.175  16.473 -0.0077  0.3258  0.7287
14347TIP3    H164532   3.924   5.262  16.442  0.0943  0.4189  0.9087
14347TIP3    H264533   4.043   5.171  16.465 -0.2258 -0.7545 -1.8200
14348TIP3   OH264534   1.095   3.641  16.564 -0.6187  0.7850 -0.0819
14348TIP3    H164535   1.181   3.627  16.525 -1.1981 -0.4545 -0.9281
14348TIP3    H264536   1.110   3.709  16.631  0.5596  2.2672 -1.7935
14349TIP3   OH264537   2.194   6.568  13.027  0.1785 -0.1023  0.5987
14349TIP3    H164538   2.120   6.545  13.082  0.4024 -1.6138  0.3147
14349TIP3    H264539   2.269   6.526  13.069  0.5435 -0.2528 -0.1819
14350TIP3   OH264540   5.489   2.291  11.337 -0.2284 -0.5977 -0.1458
14350TIP3    H164541   5.412   2.290  11.395  0.3921  1.2659  0.7667
14350TIP3    H264542   5.458   2.333  11.257 -0.0717  0.6162  0.4078
14351TIP3   OH264543   4.095   2.838  10.760 -0.1303 -0.6522  0.1007
14351TIP3    H164544   4.066   2.842  10.669  0.7409  1.5800 -0.0995
14351TIP3    H264545   4.182   2.799  10.756  0.7824  1.3687 -0.2588
14352TIP3   OH264546   0.649   2.993  12.679  0.5187 -0.4939  0.4018
14352TIP3    H164547   0.641   3.049  12.603  2.1408 -0.1868  0.4339
14352TIP3    H264548   0.712   3.037  12.735  0.2074 -1.2884  1.4050
14353TIP3   OH264549   1.125   2.764  17.260 -0.4861 -0.0205 -0.5440
14353TIP3    H164550   1.210   2.805  17.248 -0.7061 -0.0107 -2.2200
14353TIP3    H264551   1.140   2.695  17.325  0.9045 -0.3349 -1.1846
14354TIP3   OH264552   5.580   3.110  13.994 -0.3813  0.2472  0.2616
14354TIP3    H164553   5.657   3.158  14.022 -0.4611  0.4967  0.0535
14354TIP3    H264554   5.580   3.118  13.899 -0.5791  0.1217  0.2509
14355TIP3   OH264555   4.344   1.672   4.133  0.2879 -0.6256  0.2388
14355TIP3    H164556   4.258   1.704   4.105  0.3068 -0.2538  0.6077
14355TIP3    H264557   4.405   1.715   4.073  0.2597 -0.4611  0.3265
14356TIP3   OH264558   5.526   4.947   5.810  0.7415 -0.1333 -0.3101
14356TIP3    H164559   5.534   4.928   5.904  0.1791  2.8421  0.4173
14356TIP3    H264560   5.596   5.011   5.793  0.5145 -0.2620 -1.8116
14357TIP3   OH264561   2.511   1.869   3.370  0.0075  0.3648  0.0216
14357TIP3    H164562   2.428   1.877   3.321 -0.5833 -1.2441  0.7345
14357TIP3    H264563   2.495   1.918   3.451  0.0282  0.7118 -0.1827
14358TIP3   OH264564   0.742   6.397   2.570 -0.1291 -0.1239 -0.5010
14358TIP3    H164565   0.654   6.363   2.551  0.1111 -1.0162 -0.0464
14358TIP3    H264566   0.800   6.321   2.556  0.9123  1.1594 -3.6042
14359TIP3   OH264567   3.994   1.685   6.634  0.3472 -0.3642 -0.5663
14359TIP3    H164568   3.961   1.770   6.605  1.2939 -0.6758 -2.6978
14359TIP3    H264569   4.081   1.679   6.595  1.7240 -0.8465  2.4424
14360TIP3   OH264570   3.612   0.998   5.644  0.1739  0.0219 -0.2512
14360TIP3    H164571   3.588   0.930   5.706 -1.2183 -0.6488 -1.5050
14360TIP3    H264572   3.594   1.080   5.689  0.4699 -0.4445  0.7162
14361TIP3   OH264573   4.996   0.015  15.487  0.5601 -0.4421 -0.0200
14361TIP3    H164574   5.042  -0.025  15.413 -0.5232  0.8006 -1.3853
14361TIP3    H264575   4.947   0.088  15.449  1.5276  1.4535  2.2407
14362TIP3   OH264576   3.683   3.304  12.350 -0.1047  0.2465  0.1334
14362TIP3    H164577   3.681   3.332  12.259  0.7259 -1.3841 -0.4086
14362TIP3    H264578   3.767   3.335  12.383  0.5019 -0.9687 -0.2591
14363TIP3   OH264579   5.509   2.248   1.912  0.6540  0.7882  0.1628
14363TIP3    H164580   5.592   2.259   1.959  0.4318  0.1178  0.7270
14363TIP3    H264581   5.485   2.337   1.884  0.8754  1.1787  1.1765
14364TIP3   OH264582   6.349   5.799  12.532 -0.7406 -0.2864  0.2189
14364TIP3    H164583   6.361   5.874  12.592 -1.1969  1.7748 -2.1890
14364TIP3    H264584   6.434   5.755  12.532  0.1775  1.4356  0.1016
14365TIP3   OH264585   5.948   0.532  16.849 -0.3725  0.1201 -0.2770
14365TIP3    H164586   5.966   0.560  16.939 -0.4980  2.4578 -0.9473
14365TIP3    H264587   5.854   0.516  16.847  0.1524 -3.8502  0.9981
14366TIP3   OH264588   6.135   5.015  14.765  0.5031  0.0858  0.1070
14366TIP3    H164589   6.227   5.033  14.783  0.4375 -0.4610  1.0600
14366TIP3    H264590   6.136   4.950  14.695  0.9331 -1.8393  1.8190
14367TIP3   OH264591   1.196   1.921   4.902  0.0634  0.0428  0.1472
14367TIP3    H164592   1.227   1.866   4.830 -1.2830  1.2150 -1.3612
14367TIP3    H264593   1.131   1.868   4.947 -1.0286  0.2924 -1.1323
14368TIP3   OH264594   3.756   3.267   1.385 -0.1701  0.4129  0.3587
14368TIP3    H164595   3.748   3.308   1.298 -1.0758  1.3144  0.8427
14368TIP3    H264596   3.670   3.228   1.400 -0.1456  0.6063  1.0110
14369TIP3   OH264597   1.527   6.277   1.719 -0.1420 -0.1164 -0.0881
14369TIP3    H164598   1.577   6.358   1.711  0.1432 -0.1891  0.9025
14369TIP3    H264599   1.568   6.217   1.657  1.3100 -0.3262  1.0410
14370TIP3   OH264600   4.965   3.540   1.265 -0.5877 -0.2856 -0.3173
14370TIP3    H164601   4.887   3.551   1.210 -1.1623 -1.9501  0.1232
14370TIP3    H264602   4.965   3.616   1.323 -2.2456 -0.5843  0.0946
14371TIP3   OH264603   1.100   2.360  13.168 -0.2192  0.5212  0.3061
14371TIP3    H164604   1.134   2.421  13.103 -1.1609  0.2997 -0.3885
14371TIP3    H264605   1.028   2.315  13.125  2.7101 -3.7126 -0.5060
14372TIP3   OH264606   6.374   3.740  11.883 -0.3414  0.2540  0.2357
14372TIP3    H164607   6.362   3.675  11.952 -1.2432  0.0208 -0.1365
14372TIP3    H264608   6.469   3.754  11.879 -0.1073 -1.3372  0.0369
14373TIP3   OH264609   3.222   1.034   3.935 -0.7409  0.3933 -0.0702
14373TIP3    H164610   3.135   1.060   3.964 -0.4183  1.7716 -0.3141
14373TIP3    H264611   3.282   1.076   3.996 -0.2114  0.0000 -0.3135
14374TIP3   OH264612   0.603   1.124  15.988  0.3458  0.2182  0.6389
14374TIP3    H164613   0.535   1.186  15.962 -0.4599 -0.9141  0.0643
14374TIP3    H264614   0.576   1.092  16.073  0.8443  0.7464  1.0075
14375TIP3   OH264615   6.074   5.680   5.228  0.6174  0.3208  0.1283
14375TIP3    H164616   6.122   5.754   5.191  0.4033  1.0038  1.1858
14375TIP3    H264617   6.141   5.626   5.270  0.6111  0.7037  0.6474
14376TIP3   OH264618   0.447   6.355   2.774 -0.1294 -0.2728 -0.4918
14376TIP3    H164619   0.500   6.434   2.764 -1.0024  0.8486  3.1810
14376TIP3    H264620   0.435   6.324   2.684  2.7508  2.0545 -1.7924
14377TIP3   OH264621   3.450   2.192  11.080  0.3338 -0.7880 -0.2480
14377TIP3    H164622   3.358   2.216  11.066  0.0644 -0.8502  1.3212
14377TIP3    H264623   3.446   2.105  11.119  1.0062 -0.3324  0.8439
14378TIP3   OH264624   1.518   1.866  14.181  0.2957  0.4285 -0.1532
14378TIP3    H164625   1.463   1.916  14.242  0.1974  0.9414 -0.6628
14378TIP3    H264626   1.575   1.931  14.141  0.5480  0.0492 -0.4161
14379TIP3   OH264627   3.678   1.652  13.165  0.0646  0.9110  0.4326
14379TIP3    H164628   3.729   1.718  13.119 -2.2593  2.1277 -0.4722
14379TIP3    H264629   3.643   1.596  13.095  0.2011  0.0319  1.0539
14380TIP3   OH264630   1.884   3.491  12.730 -0.0341  0.5787  0.2423
14380TIP3    H164631   1.910   3.406  12.763  0.5550  0.7004  0.0862
14380TIP3    H264632   1.880   3.480  12.635 -1.1894  0.3809  0.3064
14381TIP3   OH264633   4.209   1.007   4.303 -0.1537  0.1502  0.1464
14381TIP3    H164634   4.148   1.078   4.286  1.0357  1.1032 -0.1920
14381TIP3    H264635   4.201   0.990   4.397 -1.6348 -0.4058 -0.0563
14382TIP3   OH264636   4.410   6.470  15.684  0.5913 -0.7424  0.4412
14382TIP3    H164637   4.503   6.464  15.660  0.7042 -0.1833  0.7247
14382TIP3    H264638   4.388   6.562  15.669  0.0845 -0.8752  0.3876
14383TIP3   OH264639   6.183   1.517   6.778 -0.6668 -0.0186  0.7443
14383TIP3    H164640   6.133   1.472   6.710  0.8614  0.3473 -0.6535
14383TIP3    H264641   6.267   1.537   6.737 -0.1591  1.2930  2.3564
14384TIP3   OH264642   6.084   3.729  12.539  0.3349  0.0449  0.4192
14384TIP3    H164643   6.000   3.740  12.495  1.4142  0.3145 -1.6742
14384TIP3    H264644   6.120   3.648  12.501  0.9921 -0.0885  1.3197
14385TIP3   OH264645   1.237   2.022   3.324 -0.0718 -0.1814  0.4538
14385TIP3    H164646   1.264   2.102   3.279 -1.5984 -0.6044 -1.2438
14385TIP3    H264647   1.314   1.996   3.375  0.7293  1.8753  0.3407
14386TIP3   OH264648   6.717   5.387   3.138 -0.1129 -0.7836 -0.3561
14386TIP3    H164649   6.782   5.317   3.142 -0.1832 -0.8100  0.5745
14386TIP3    H264650   6.680   5.382   3.050  1.1378 -0.7756 -0.8936
14387TIP3   OH264651   5.954   3.043   0.742  0.4107  0.2450  0.0746
14387TIP3    H164652   5.888   3.110   0.721 -0.6304 -0.1331  2.0221
14387TIP3    H264653   5.912   2.960   0.718  2.1046  0.2916 -3.3459
14388TIP3   OH264654   6.230   4.065  15.931  0.3539  0.3593 -0.0741
14388TIP3    H164655   6.320   4.092  15.950  0.6777 -0.0853 -0.9775
14388TIP3    H264656   6.210   4.106  15.847  0.7333 -1.9292 -1.3122
14389TIP3   OH264657   4.025   5.453  13.005 -0.0081  0.0059 -0.5170
14389TIP3    H164658   4.067   5.407  13.078  0.0729  0.7503 -0.0983
14389TIP3    H264659   3.951   5.498  13.044  0.2761  0.7420 -0.8282
14390TIP3   OH264660   6.117   3.077   5.798  0.0543 -0.5036 -0.2906
14390TIP3    H164661   6.059   3.009   5.833 -0.0586 -0.5084 -0.4851
14390TIP3    H264662   6.087   3.089   5.707 -0.6071  0.5738  0.0704
14391TIP3   OH264663   5.799   1.299  14.788 -0.1945  0.7100  0.0499
14391TIP3    H164664   5.730   1.356  14.824 -2.9417 -1.9084 -0.8670
14391TIP3    H264665   5.789   1.217  14.836  0.9889 -0.3505 -1.4934
14392TIP3   OH264666   5.982   1.590  11.898 -0.3211 -0.6953 -0.2650
14392TIP3    H164667   5.994   1.496  11.905 -0.5011 -0.5212  3.1336
14392TIP3    H264668   5.899   1.608  11.943  0.3801  1.2439  0.3194
14393TIP3   OH264669   0.597   6.692  14.276 -0.5305  0.6676 -0.1864
14393TIP3    H164670   0.632   6.603  14.280 -1.1602  0.4872  1.9827
14393TIP3    H264671   0.502   6.680  14.270 -0.6584  1.1847  0.6978
14394TIP3   OH264672   3.795   2.045  13.585  0.5338 -0.4646 -0.5207
14394TIP3    H164673   3.812   1.967  13.533  1.8569 -0.1559 -0.5673
14394TIP3    H264674   3.767   2.111  13.522 -2.2438 -1.3702 -0.2753
14395TIP3   OH264675   2.581   5.364   3.332  0.0763  0.4157  0.4731
14395TIP3    H164676   2.543   5.358   3.244  0.6787 -2.8794  0.3876
14395TIP3    H264677   2.523   5.312   3.387  1.1124  0.3669  1.5353
14396TIP3   OH264678   2.428   3.544  12.833  0.2302 -0.0277  0.5009
14396TIP3    H164679   2.420   3.615  12.897 -2.2732 -0.4104  0.6594
14396TIP3    H264680   2.509   3.499  12.856  0.0016  0.6077  2.6063
14397TIP3   OH264681   6.608   1.609   1.485 -0.6610  0.4149 -0.1892
14397TIP3    H164682   6.622   1.588   1.577 -1.2049 -0.5359 -0.3226
14397TIP3    H264683   6.659   1.543   1.438 -0.6961  0.6658 -0.5817
14398TIP3   OH264684   4.170   0.468  15.270  0.0918 -0.3391 -0.3727
14398TIP3    H164685   4.097   0.426  15.317  1.1628 -2.4457 -0.5442
14398TIP3    H264686   4.168   0.429  15.183 -0.2168  1.6045 -1.2789
14399TIP3   OH264687   4.634   2.209  10.897 -0.0900  0.6847  0.1576
14399TIP3    H164688   4.558   2.178  10.848  0.6626  0.3549 -0.8402
14399TIP3    H264689   4.658   2.291  10.854  1.1552 -0.0928 -0.6682
14400TIP3   OH264690   5.501   4.893   0.086  0.0699 -0.0433 -0.4912
14400TIP3    H164691   5.576   4.891   0.026 -0.5639  0.0612 -1.3039
14400TIP3    H264692   5.498   4.804   0.123  0.1711 -0.2613 -0.9987
14401TIP3   OH264693   6.763   5.627  11.235 -0.4045  0.0437  0.4229
14401TIP3    H164694   6.698   5.697  11.227  1.2942  1.5852  0.0711
14401TIP3    H264695   6.828   5.646  11.168  1.6656 -0.1456  2.3347
14402TIP3   OH264696   5.371   4.737  11.611 -0.2725  0.4728 -0.3245
14402TIP3    H164697   5.278   4.757  11.605 -0.5214 -0.5000  0.2531
14402TIP3    H264698   5.404   4.750  11.522 -0.8745  1.1799 -0.4524
14403TIP3   OH264699   6.740   0.481   1.956 -0.1167  0.0890  0.4171
14403TIP3    H164700   6.655   0.439   1.940  0.1416  0.2191 -1.4081
14403TIP3    H264701   6.799   0.408   1.977 -0.3017 -0.1673  0.0458
14404TIP3   OH264702   1.363   2.587   5.469 -0.1839 -0.3053  0.2402
14404TIP3    H164703   1.360   2.511   5.528  0.4984 -1.2959 -0.9554
14404TIP3    H264704   1.457   2.599   5.450 -0.4936 -1.1517 -2.0358
14405TIP3   OH264705   5.358   3.805  10.936 -0.5068  0.9898  0.2013
14405TIP3    H164706   5.449   3.825  10.956 -0.3292  0.5395 -0.1275
14405TIP3    H264707   5.343   3.719  10.975 -0.5770  0.7464 -0.3524
14406TIP3   OH264708   4.466   6.472  12.324 -0.2786  0.1276  0.4975
14406TIP3    H164709   4.496   6.506  12.409  1.1754 -1.9716  0.8533
14406TIP3    H264710   4.545   6.469  12.270 -0.9307  0.0067 -0.4619
14407TIP3   OH264711   3.796   6.077   4.675  0.0056  0.3148 -0.7490
14407TIP3    H164712   3.805   6.024   4.596 -0.4370  0.0113 -0.5940
14407TIP3    H264713   3.723   6.136   4.657  0.0743  0.4278 -0.6658
14408TIP3   OH264714   5.231   4.402  13.162 -0.9960 -0.5261  0.2577
14408TIP3    H164715   5.146   4.393  13.207 -1.2571  0.0519 -0.1191
14408TIP3    H264716   5.252   4.313  13.134 -0.6361 -0.9703  1.8629
14409TIP3   OH264717   3.232   6.331   3.909  0.0582 -0.6003  0.0368
14409TIP3    H164718   3.236   6.296   3.819  0.2902 -0.7782  0.1146
14409TIP3    H264719   3.317   6.373   3.921 -0.3959  0.4194 -0.2251
14410TIP3   OH264720   0.864   0.943   4.207  0.1032 -0.0718  0.6084
14410TIP3    H164721   0.799   0.899   4.153 -0.1936  0.2505  0.7026
14410TIP3    H264722   0.944   0.891   4.196  0.0769  0.0568 -0.2250
14411TIP3   OH264723   6.483   0.028  11.217 -0.1414 -0.4529 -0.6087
14411TIP3    H164724   6.463  -0.061  11.188 -2.5261 -0.7239  1.5895
14411TIP3    H264725   6.474   0.082  11.139 -0.2786 -1.9410 -1.6366
14412TIP3   OH264726   1.304   5.648  16.793 -0.4332  0.0519  0.2147
14412TIP3    H164727   1.364   5.579  16.824  0.3756  0.7415  0.2025
14412TIP3    H264728   1.323   5.656  16.700  0.0784  0.8894  0.3926
14413TIP3   OH264729   1.283   2.391  17.235  0.1969  0.2650 -0.0520
14413TIP3    H164730   1.278   2.416  17.143  1.4361  1.2082  0.1208
14413TIP3    H264731   1.261   2.298  17.236 -1.4398  0.6371 -1.0817
14414TIP3   OH264732   0.051   3.464   0.482  0.1004 -0.0641 -0.1670
14414TIP3    H164733  -0.034   3.432   0.453  0.7113 -0.2422 -1.7634
14414TIP3    H264734   0.085   3.395   0.538  0.3660 -1.1841 -1.6900
14415TIP3   OH264735   0.868   4.445   3.887  0.0615 -0.2493 -0.0758
14415TIP3    H164736   0.913   4.464   3.969  0.7589 -0.0971 -0.4867
14415TIP3    H264737   0.796   4.388   3.911  0.0576  0.0782  0.6909
14416TIP3   OH264738   1.340   1.618   4.890 -0.5347 -0.3777 -0.7842
14416TIP3    H164739   1.400   1.685   4.924 -0.0227 -0.3391 -1.7654
14416TIP3    H264740   1.304   1.656   4.810 -0.8129 -0.9695 -0.9415
14417TIP3   OH264741   6.423   3.112  14.367  0.3875 -0.1950  0.0568
14417TIP3    H164742   6.341   3.160  14.364  0.6862  0.4570  1.7811
14417TIP3    H264743   6.413   3.051  14.440 -0.2168 -3.2541 -2.4679
14418TIP3   OH264744   4.744   3.338   1.109 -0.2148 -0.2612 -0.1125
14418TIP3    H164745   4.803   3.281   1.157  1.7161  3.3556  2.0272
14418TIP3    H264746   4.801   3.390   1.052 -1.9927 -0.9869 -2.6526
14419TIP3   OH264747   6.436   3.903   1.615 -1.0430 -0.2425  0.0422
14419TIP3    H164748   6.514   3.899   1.561 -1.5457  0.6674 -0.7827
14419TIP3    H264749   6.375   3.841   1.574 -0.6562 -1.1747  0.8606
14420TIP3   OH264750   4.478   4.429   1.479 -0.5970 -0.2547  0.4398
14420TIP3    H164751   4.398   4.474   1.507 -0.6528 -0.5481  0.7569
14420TIP3    H264752   4.548   4.492   1.496 -0.8470  0.3037 -0.5755
14421TIP3   OH264753   3.447   0.303   4.416  0.1533 -0.1333 -0.3183
14421TIP3    H164754   3.489   0.218   4.398 -1.0979 -1.2797  1.9167
14421TIP3    H264755   3.436   0.304   4.511  1.2990  3.1220 -0.1596
14422TIP3   OH264756   5.286   4.295   2.492  0.1786  0.1249  0.1360
14422TIP3    H164757   5.223   4.310   2.422  0.8522  0.0200 -0.4969
14422TIP3    H264758   5.255   4.348   2.565 -1.2351 -0.7532  0.1787
14423TIP3   OH264759   5.064   1.625   5.661 -0.6660 -0.2821 -0.1033
14423TIP3    H164760   5.011   1.552   5.693 -1.9144  0.1040 -1.2550
14423TIP3    H264761   5.007   1.702   5.668  1.4153  1.0385  3.3071
14424TIP3   OH264762   1.496   1.061  13.782 -0.0263 -0.2214  0.1455
14424TIP3    H164763   1.591   1.069  13.774  0.2609 -2.2831  0.9738
14424TIP3    H264764   1.464   1.060  13.692  0.6754  1.0475 -0.1272
14425TIP3   OH264765   0.511   2.333  16.944  0.1109  0.7096  0.0557
14425TIP3    H164766   0.601   2.309  16.925  0.3117  0.7241  0.9651
14425TIP3    H264767   0.518   2.409  17.003 -0.4909  0.9376 -0.1601
14426TIP3   OH264768   3.733   2.418  15.483  0.4147  0.3508  0.0241
14426TIP3    H164769   3.660   2.361  15.458  0.4413  0.7392 -0.9256
14426TIP3    H264770   3.722   2.429  15.578 -0.4626 -0.0023 -0.0295
14427TIP3   OH264771   5.549   5.771  13.990 -0.4280  0.3882 -0.3783
14427TIP3    H164772   5.556   5.759  14.085  1.4246  0.5329 -0.4807
14427TIP3    H264773   5.576   5.861  13.975  1.4296 -0.2978 -1.2586
14428TIP3   OH264774   6.582   1.789  15.866  0.0221 -0.3840 -0.2502
14428TIP3    H164775   6.663   1.760  15.910 -0.3590 -3.1507 -1.2504
14428TIP3    H264776   6.542   1.708  15.835 -3.3293  0.9062  0.4954
14429TIP3   OH264777   3.805   2.590  14.103 -0.0218  0.2188  0.3358
14429TIP3    H164778   3.830   2.502  14.076 -1.4253  0.3357 -1.4830
14429TIP3    H264779   3.724   2.577  14.152 -0.0385  0.4474  0.3674
14430TIP3   OH264780   1.487   6.161   3.626 -0.3209  0.9056  0.2701
14430TIP3    H164781   1.408   6.197   3.585 -1.1260 -0.1851  0.8452
14430TIP3    H264782   1.557   6.220   3.598 -1.2198  1.4779 -0.8342
14431TIP3   OH264783   1.349   1.728  17.266  0.0188 -0.1057 -0.2145
14431TIP3    H164784   1.290   1.760  17.335  3.7397  2.2724  2.0420
14431TIP3    H264785   1.378   1.642  17.297  0.0157  0.0140  0.1254
14432TIP3   OH264786   3.263   2.871  11.726  0.2068  0.1187 -0.0163
14432TIP3    H164787   3.250   2.803  11.660  0.6913 -0.1478  0.1523
14432TIP3    H264788   3.183   2.923  11.724 -0.0740 -0.3177 -0.3136
14433TIP3   OH264789   3.844   1.860   5.123  0.1976  0.1991  0.4983
14433TIP3    H164790   3.837   1.939   5.178  0.6123  1.7106 -1.5349
14433TIP3    H264791   3.937   1.843   5.117  0.1885  0.3400 -0.1156
14434TIP3   OH264792   3.713   0.108   2.382 -0.4889  0.2969 -0.2977
14434TIP3    H164793   3.777   0.108   2.311  1.0324  0.7091  1.0216
14434TIP3    H264794   3.763   0.139   2.458 -2.0283 -0.3010  0.9772
14435TIP3   OH264795   3.267   1.010   2.775 -0.1184  0.4510  0.0143
14435TIP3    H164796   3.233   0.961   2.850  1.0136  0.3435  0.4844
14435TIP3    H264797   3.350   0.966   2.755  0.0418  1.0799 -0.6958
14436TIP3   OH264798   4.981   5.795   3.841  0.2727 -0.6657 -0.4476
14436TIP3    H164799   5.061   5.800   3.893  0.7069 -0.6424 -1.1231
14436TIP3    H264800   4.959   5.886   3.822 -0.1372 -0.6497  0.0657
14437TIP3   OH264801   4.140   0.758  11.935  0.0283 -0.4490  0.6142
14437TIP3    H164802   4.182   0.672  11.924  3.8756  1.0635  2.5635
14437TIP3    H264803   4.127   0.765  12.030  2.4386  2.2571  0.8027
14438TIP3   OH264804   0.955   5.285  14.231 -0.5179 -0.3826 -0.7578
14438TIP3    H164805   0.887   5.331  14.180 -0.3689  0.6606 -0.0413
14438TIP3    H264806   0.908   5.215  14.276 -0.9760 -0.1833 -0.9240
14439TIP3   OH264807   5.444   1.549  13.201  0.9658 -0.0855  0.1396
14439TIP3    H164808   5.356   1.548  13.238  0.9342  0.7702  0.0791
14439TIP3    H264809   5.473   1.458  13.208  1.1683  0.1316  2.7518
14440TIP3   OH264810   6.115   1.686  15.811  0.2676  0.1696 -0.2280
14440TIP3    H164811   6.076   1.762  15.855  1.6592  1.5021 -1.2762
14440TIP3    H264812   6.147   1.631  15.883  0.0395  0.9899  0.5160
14441TIP3   OH264813   0.125   1.495  15.965 -0.1766  0.2943 -0.0208
14441TIP3    H164814   0.089   1.575  16.004 -1.7979 -0.0872 -0.6933
14441TIP3    H264815   0.152   1.521  15.877 -1.5616 -0.0940 -0.5731
14442TIP3   OH264816   3.104   5.757  15.101  0.4654  0.2679  0.3202
14442TIP3    H164817   3.011   5.776  15.087  0.6779  1.3715  0.3608
14442TIP3    H264818   3.110   5.662  15.099 -0.5471  0.2156 -0.4984
14443TIP3   OH264819   5.772   4.881  14.308 -0.1893 -0.2492  0.3983
14443TIP3    H164820   5.781   4.976  14.318 -0.0699 -0.4056  1.8069
14443TIP3    H264821   5.680   4.869  14.284 -0.5151  0.1399  1.4142
14444TIP3   OH264822   5.476   5.310  13.252 -0.9458  0.0121 -0.4390
14444TIP3    H164823   5.533   5.354  13.188  0.4704  0.1204  0.8766
14444TIP3    H264824   5.530   5.300  13.330 -3.2308  1.5555  1.4254
14445TIP3   OH264825   1.524   1.612   2.010 -0.1490  0.0537 -0.0525
14445TIP3    H164826   1.571   1.531   1.992 -0.5956  0.1388 -1.6365
14445TIP3    H264827   1.589   1.669   2.052  0.4398 -0.7542  0.1304
14446TIP3   OH264828   3.527   3.635  11.560 -0.0610  0.5707  0.2033
14446TIP3    H164829   3.574   3.715  11.584  0.3541  0.4350 -0.1548
14446TIP3    H264830   3.436   3.652  11.585  0.4868  0.1573  2.5270
14447TIP3   OH264831   4.645   4.534  12.542  0.1313  0.5159 -0.0768
14447TIP3    H164832   4.551   4.532  12.559  0.3503 -1.0125  1.0284
14447TIP3    H264833   4.683   4.572  12.621  0.5329  0.1491 -0.0863
14448TIP3   OH264834   1.705   4.984   3.015  0.1970  0.3530  0.0182
14448TIP3    H164835   1.663   4.943   2.939  1.9764 -3.8414  1.1208
14448TIP3    H264836   1.637   4.984   3.082 -0.0331 -0.2867 -0.2010
14449TIP3   OH264837   1.190   5.974   3.618 -0.2118 -0.3456  0.0945
14449TIP3    H164838   1.275   5.969   3.575  0.2728  0.0892  0.9855
14449TIP3    H264839   1.129   5.996   3.548  0.7708  1.6777 -0.1652
14450TIP3   OH264840   5.164   3.667   5.124 -0.4658  0.4226  0.2415
14450TIP3    H164841   5.106   3.614   5.071 -1.1632  0.8482  0.5713
14450TIP3    H264842   5.106   3.719   5.179  0.2078  1.3441  0.0993
14451TIP3   OH264843   6.159   2.699  11.798 -0.5491  0.2265  0.2102
14451TIP3    H164844   6.174   2.632  11.731 -0.2801  0.7575 -0.2634
14451TIP3    H264845   6.219   2.770  11.775  0.9261 -0.3639  2.1178
14452TIP3   OH264846   4.639   2.148  17.187 -0.0540 -0.9328 -0.1903
14452TIP3    H164847   4.682   2.224  17.148  0.9037 -1.4595 -0.1610
14452TIP3    H264848   4.696   2.122  17.260 -2.2071  0.5160  2.1019
14453TIP3   OH264849   3.811   1.506   0.505 -0.3194 -0.2441 -0.0362
14453TIP3    H164850   3.761   1.548   0.435  1.6569 -0.1450 -1.4308
14453TIP3    H264851   3.805   1.567   0.579  0.3282  1.2783 -1.2050
14454TIP3   OH264852   2.695   5.350   3.759 -0.0042 -0.4690  0.6658
14454TIP3    H164853   2.764   5.309   3.707 -1.1583 -0.5996 -0.8125
14454TIP3    H264854   2.664   5.423   3.705 -1.4082 -0.7768  1.0237
14455TIP3   OH264855   1.625   3.723  14.082  0.2272  0.5194  0.1160
14455TIP3    H164856   1.631   3.786  14.154  3.8139  1.9829 -1.3305
14455TIP3    H264857   1.595   3.775  14.007  2.9969  0.5503 -1.0360
14456TIP3   OH264858   0.750   2.312  11.146  0.3401 -0.4498 -0.3767
14456TIP3    H164859   0.696   2.384  11.112  1.2047 -0.0027 -0.8148
14456TIP3    H264860   0.724   2.236  11.095 -1.0417 -0.6066  0.5208
14457TIP3   OH264861   0.366   3.043   2.185  0.1875 -0.2110 -0.0603
14457TIP3    H164862   0.345   2.991   2.263  0.5525  0.0445  0.2074
14457TIP3    H264863   0.436   3.101   2.213 -2.8030  3.1598  0.7817
14458TIP3   OH264864   6.448   5.161   0.689 -0.4728  0.3799 -0.4995
14458TIP3    H164865   6.525   5.183   0.741 -0.5459  0.4789 -0.4322
14458TIP3    H264866   6.468   5.075   0.651 -1.5788 -1.0532  1.9939
14459TIP3   OH264867   5.769   1.408  15.338  0.2553 -0.3876 -0.1457
14459TIP3    H164868   5.838   1.366  15.389  0.5334 -0.9732 -0.9858
14459TIP3    H264869   5.690   1.400  15.392  0.8226  0.2223  0.7897
14460TIP3   OH264870   4.506   1.261   3.525  0.0456  0.1190  0.2770
14460TIP3    H164871   4.500   1.172   3.558 -3.9709 -0.7176 -2.4064
14460TIP3    H264872   4.548   1.252   3.439 -0.3163  0.7896  0.0243
14461TIP3   OH264873   0.527   4.617   4.920  0.6677 -0.0940  0.9735
14461TIP3    H164874   0.595   4.551   4.903  0.4448  0.0625 -0.5819
14461TIP3    H264875   0.445   4.570   4.904  0.4959  0.3981  0.3891
14462TIP3   OH264876   2.840   0.047  12.986 -0.1908 -0.3175 -0.6068
14462TIP3    H164877   2.791   0.085  13.059  0.4762 -0.9460  0.1737
14462TIP3    H264878   2.808  -0.043  12.980  0.3993 -0.5384 -0.5024
14463TIP3   OH264879   2.924   0.498  11.230  0.1351  0.1699 -0.0164
14463TIP3    H164880   2.845   0.450  11.256  0.4540  0.5004  1.6242
14463TIP3    H264881   2.943   0.467  11.141 -2.1977  0.5736 -0.6721
14464TIP3   OH264882   1.436   3.113   2.920  0.0590 -0.1032  0.5800
14464TIP3    H164883   1.392   3.036   2.954 -1.9483  0.5864 -0.3770
14464TIP3    H264884   1.375   3.150   2.857  1.1915  1.9994  0.6570
14465TIP3   OH264885   5.704   1.074   2.907 -0.5992  0.2440 -0.4605
14465TIP3    H164886   5.666   1.016   2.974 -1.5172  2.0920  0.6516
14465TIP3    H264887   5.775   1.120   2.953  0.1520 -0.0017 -1.3507
14466TIP3   OH264888   0.598   4.605   2.265  1.0427  0.0747 -0.0022
14466TIP3    H164889   0.599   4.686   2.317  1.5212  0.3611 -0.4519
14466TIP3    H264890   0.518   4.612   2.212  2.4482  1.5334 -2.0185
14467TIP3   OH264891   3.751   6.758   2.833 -0.5709  0.2499  0.5399
14467TIP3    H164892   3.662   6.789   2.843 -2.0991 -2.9324 -2.1352
14467TIP3    H264893   3.743   6.662   2.827  2.9683 -0.0905 -0.0375
14468TIP3   OH264894   3.372   2.118   6.325  0.2563 -0.0385 -0.3831
14468TIP3    H164895   3.434   2.048   6.346  0.0409 -0.3998 -0.9324
14468TIP3    H264896   3.299   2.104   6.385  1.0039  0.8026  0.7376
14469TIP3   OH264897   6.445   4.400  16.074  0.2797 -0.0810 -0.1623
14469TIP3    H164898   6.369   4.428  16.023  1.1220 -0.0235 -1.4092
14469TIP3    H264899   6.459   4.309  16.048  0.7438 -0.0346 -0.0786
14470TIP3   OH264900   1.115   0.109  13.698 -0.6909 -0.5297 -0.1704
14470TIP3    H164901   1.066   0.101  13.780 -0.8335  0.8041 -0.1103
14470TIP3    H264902   1.161   0.192  13.706 -0.1480 -0.7276 -1.1554
14471TIP3   OH264903   5.160   0.112  14.193  0.0325  0.4374  0.4164
14471TIP3    H164904   5.216   0.182  14.158 -1.3292  0.8078 -1.0774
14471TIP3    H264905   5.085   0.110  14.134 -0.7799 -1.1228  1.4789
14472TIP3   OH264906   0.162   4.747   0.585  0.5885  0.3866  0.6080
14472TIP3    H164907   0.133   4.826   0.540 -0.5097  1.3907  2.9943
14472TIP3    H264908   0.171   4.774   0.676  0.0356 -2.2852  1.4840
14473TIP3   OH264909   6.393   5.483  11.646 -0.1555  0.8026  0.2001
14473TIP3    H164910   6.334   5.455  11.577 -0.3212  0.6503  0.4026
14473TIP3    H264911   6.338   5.533  11.706 -0.3449 -0.3703  1.0245
14474TIP3   OH264912   4.336   0.183  13.092  0.1003 -0.2758  0.1828
14474TIP3    H164913   4.337   0.266  13.046  0.4470 -0.1598  0.3990
14474TIP3    H264914   4.415   0.184  13.146  0.3542 -0.9430 -0.1663
14475TIP3   OH264915   2.580   4.191  14.157 -0.0254  0.6791 -0.7765
14475TIP3    H164916   2.555   4.104  14.125 -0.8104  0.8398 -0.6217
14475TIP3    H264917   2.499   4.242  14.154 -0.1284  0.6898  1.4443
14476TIP3   OH264918   2.249   2.170   4.048  0.1735  0.2541  0.6259
14476TIP3    H164919   2.223   2.109   4.118  0.0205 -1.9861 -1.3280
14476TIP3    H264920   2.320   2.222   4.087 -1.2083  0.4059  3.0743
14477TIP3   OH264921   0.999   2.261  16.206  0.5287  0.5679 -0.0152
14477TIP3    H164922   0.919   2.291  16.250  0.9983  2.3951 -0.3660
14477TIP3    H264923   1.022   2.180  16.252 -1.1816  0.3385  0.4804
14478TIP3   OH264924   3.018   1.170   0.394 -0.0531 -0.2883  0.1562
14478TIP3    H164925   3.033   1.097   0.334 -0.2209  0.8859 -1.3359
14478TIP3    H264926   3.104   1.183   0.436  0.4577 -0.1680 -0.9065
14479TIP3   OH264927   3.951   2.257  16.091 -0.4292 -0.4397  0.3697
14479TIP3    H164928   3.946   2.172  16.133 -1.9745 -2.6890 -4.0538
14479TIP3    H264929   4.026   2.250  16.031 -1.2185  0.8821 -0.8308
14480TIP3   OH264930   1.776   5.191  14.360  0.5659 -0.1066  0.3080
14480TIP3    H164931   1.753   5.245  14.435  1.3709  0.4464  0.1683
14480TIP3    H264932   1.861   5.153  14.384  0.7300 -0.0866 -0.2363
14481TIP3   OH264933   4.806   6.733   4.814  0.0867 -0.0549 -0.0411
14481TIP3    H164934   4.835   6.645   4.836 -0.0735 -1.0702 -3.5897
14481TIP3    H264935   4.729   6.747   4.871 -0.1984 -2.3848  0.2194
14482TIP3   OH264936   6.555   1.664   5.991  0.4171 -0.3118 -0.2036
14482TIP3    H164937   6.500   1.738   6.016  1.8888  0.5162  0.5869
14482TIP3    H264938   6.515   1.589   6.035 -1.6682 -0.1939 -1.8122
14483TIP3   OH264939   2.403   4.448   2.176 -0.1640 -0.1987 -0.1673
14483TIP3    H164940   2.452   4.529   2.194  0.0847 -0.6217  1.1651
14483TIP3    H264941   2.465   4.378   2.196 -0.0326 -0.7286 -2.3494
14484TIP3   OH264942   0.084   1.632   1.274 -0.3038  0.0962  0.1939
14484TIP3    H164943   0.104   1.582   1.353 -1.3497  0.6586  0.8404
14484TIP3    H264944   0.166   1.635   1.226  0.9659  1.6624  2.3566
14485TIP3   OH264945   5.767   3.728  11.425 -0.3523 -0.1894 -0.3298
14485TIP3    H164946   5.760   3.817  11.460 -1.9877 -0.3406 -0.2194
14485TIP3    H264947   5.818   3.738  11.345  1.3125  0.5162  0.7837
14486TIP3   OH264948   4.812   3.760  12.024 -0.4585  0.0641 -0.6559
14486TIP3    H164949   4.791   3.805  11.942  0.3240 -1.0222 -1.4729
14486TIP3    H264950   4.788   3.669  12.008  0.2926 -0.2714  0.0920
14487TIP3   OH264951   2.349   5.558   0.476  0.1955 -0.0040  0.1351
14487TIP3    H164952   2.258   5.540   0.449  0.1437  0.4797 -0.0241
14487TIP3    H264953   2.341   5.629   0.539  0.6145  1.3837 -1.3386
14488TIP3   OH264954   5.686   4.868   1.567 -0.8904  0.2089 -0.1297
14488TIP3    H164955   5.636   4.909   1.637 -1.3743 -1.2070  0.3739
14488TIP3    H264956   5.775   4.901   1.579 -1.7024  2.8896 -1.1580
14489TIP3   OH264957   2.027   2.283  15.784  0.1375 -0.2779 -0.2130
14489TIP3    H164958   2.074   2.282  15.868 -0.5752 -0.0157  0.1977
14489TIP3    H264959   1.996   2.373  15.775 -0.7972 -0.5888 -0.1828
14490TIP3   OH264960   2.971   2.906  12.894  0.1035 -0.0940  0.2111
14490TIP3    H164961   3.031   2.881  12.964  0.3927  1.4896  0.5591
14490TIP3    H264962   2.933   2.989  12.924 -3.1497 -1.6228  0.5546
14491TIP3   OH264963   0.588   4.002   1.504  0.1596  0.7777  0.4488
14491TIP3    H164964   0.522   3.958   1.558 -0.3080 -0.2704 -0.9439
14491TIP3    H264965   0.670   3.958   1.528 -0.4812 -1.8117 -1.8383
14492TIP3   OH264966   1.662   1.227  11.652 -0.0148  0.2731  0.1113
14492TIP3    H164967   1.643   1.267  11.737 -2.1607  0.9110 -0.6230
14492TIP3    H264968   1.756   1.240  11.639  0.1959  0.8444  2.0262
14493TIP3   OH264969   4.899   6.328   2.788 -0.4239  0.0682 -0.0872
14493TIP3    H164970   4.837   6.293   2.852 -1.1999  0.5501 -0.5700
14493TIP3    H264971   4.942   6.400   2.835  0.8782 -1.2430  0.7621
14494TIP3   OH264972   0.413   3.470   4.598 -0.3187  0.1290  0.0733
14494TIP3    H164973   0.430   3.378   4.581  1.5687  0.6060 -0.7744
14494TIP3    H264974   0.370   3.502   4.518  1.6432  0.6198 -0.8188
14495TIP3   OH264975   5.372   2.406  16.399 -0.2077  0.2091 -0.3260
14495TIP3    H164976   5.337   2.334  16.452  0.7189 -1.4539 -1.9127
14495TIP3    H264977   5.320   2.482  16.424 -1.6705 -1.1606  0.8952
14496TIP3   OH264978   4.531   3.860   5.657  0.5386  0.0233 -0.3762
14496TIP3    H164979   4.600   3.899   5.603 -0.0644  0.4603 -0.8371
14496TIP3    H264980   4.541   3.900   5.743 -0.4401  1.6508 -1.0016
14497TIP3   OH264981   1.232   2.758   2.678  0.2852 -0.0950  0.0566
14497TIP3    H164982   1.264   2.674   2.711 -1.8730 -1.2337 -0.6415
14497TIP3    H264983   1.183   2.796   2.751 -0.9413 -0.6808 -0.4379
14498TIP3   OH264984   0.108   4.814   2.965 -0.5644 -0.5583 -0.1260
14498TIP3    H164985   0.112   4.759   3.044 -3.5726 -0.8645 -0.0971
14498TIP3    H264986   0.070   4.756   2.899  2.8502 -0.5949 -2.1228
14499TIP3   OH264987   4.343   3.242  16.497  0.1723 -0.1459 -0.0808
14499TIP3    H164988   4.379   3.330  16.484 -0.0522 -0.0848 -0.2959
14499TIP3    H264989   4.341   3.231  16.592 -1.5378  0.8108  0.0151
14500TIP3   OH264990   3.502   4.987   6.261 -0.2724 -0.3547 -0.2460
14500TIP3    H164991   3.493   5.031   6.345 -2.1328 -0.4247 -0.3858
14500TIP3    H264992   3.596   4.970   6.252  0.2748  2.1942  0.4969
14501TIP3   OH264993   5.559   5.068  12.353 -0.5156 -0.3183 -0.4995
14501TIP3    H164994   5.525   5.155  12.372  1.1735  0.1038  0.7130
14501TIP3    H264995   5.536   5.052  12.262 -0.9937  1.3217 -0.6785
14502TIP3   OH264996   5.882   6.507  11.382  0.0615 -0.0931 -0.2413
14502TIP3    H164997   5.864   6.472  11.295 -0.0585 -0.3693 -0.1063
14502TIP3    H264998   5.798   6.542  11.412  0.0322 -0.2715 -0.1140
14503TIP3   OH264999   1.310   4.946  13.466  0.3571 -0.1928  0.3593
14503TIP3    H165000   1.374   5.013  13.440  1.6130 -1.8682 -0.9722
14503TIP3    H265001   1.341   4.915  13.551  0.1132  0.4790  0.6980
14504TIP3   OH265002   1.299   6.445  11.609 -0.3120 -0.5968 -0.3986
14504TIP3    H165003   1.277   6.380  11.542  1.7354 -1.5819 -0.1231
14504TIP3    H265004   1.258   6.413  11.689 -2.0744  0.1648 -0.9703
14505TIP3   OH265005   0.928   5.828  13.363 -0.4047  0.3642 -0.2027
14505TIP3    H165006   0.887   5.807  13.279 -1.5094  1.5632  0.0176
14505TIP3    H265007   1.020   5.806  13.351 -0.8151 -0.8889 -1.2343
14506TIP3   OH265008   6.165   4.535  16.577 -0.0501 -0.4050  0.1871
14506TIP3    H165009   6.119   4.598  16.632 -1.2638 -1.5392  0.4981
14506TIP3    H265010   6.115   4.454  16.586 -0.1625 -0.6564 -2.4703
14507TIP3   OH265011   4.181   4.064  13.064  0.1798  0.6498  0.0547
14507TIP3    H165012   4.265   4.080  13.107  1.2008  0.8786 -1.9341
14507TIP3    H265013   4.119   4.051  13.136  1.6462  1.7993  1.5811
14508TIP3   OH265014   4.640   4.581   0.814  0.2558 -0.1440 -0.0371
14508TIP3    H165015   4.624   4.601   0.906 -0.0771 -1.2930  0.1588
14508TIP3    H265016   4.658   4.666   0.774 -2.7122  0.7519  0.4473
14509TIP3   OH265017   3.897   3.300  13.769 -0.0086  0.1284 -0.5063
14509TIP3    H165018   3.925   3.347  13.847  0.4130 -0.3781 -0.3511
14509TIP3    H265019   3.876   3.212  13.800 -1.1809  0.3221 -0.7233
14510TIP3   OH265020   0.344   5.554  15.623  0.3221 -0.1159  0.3077
14510TIP3    H165021   0.292   5.585  15.697  0.1451 -0.4933  0.3450
14510TIP3    H265022   0.380   5.633  15.584 -0.5120  0.1751  0.1193
14511TIP3   OH265023   2.688   1.757   1.605 -0.3196 -0.7037  0.5486
14511TIP3    H165024   2.680   1.759   1.510 -1.2049  0.4333  0.6343
14511TIP3    H265025   2.691   1.664   1.627  2.9147 -0.9741 -0.8106
14512TIP3   OH265026   0.152   1.569   0.889 -0.1958 -0.6026  0.0832
14512TIP3    H165027   0.180   1.641   0.833  0.2607 -0.1164  0.9420
14512TIP3    H265028   0.066   1.595   0.921 -0.0272 -0.4393  0.4004
14513TIP3   OH265029   3.930   1.702  14.671  0.6058 -0.2881  0.0157
14513TIP3    H165030   3.844   1.732  14.701  0.5243 -0.9529  0.4657
14513TIP3    H265031   3.953   1.762  14.600 -0.7319 -0.7853 -0.8657
14514TIP3   OH265032   3.098   3.330   5.735  0.2835  0.1890 -0.7993
14514TIP3    H165033   3.060   3.416   5.717  0.1324  0.1550 -0.6436
14514TIP3    H265034   3.088   3.319   5.829 -0.6248 -0.4409 -0.9652
14515TIP3   OH265035   0.936   5.332  15.649 -0.2638 -0.5545 -0.6034
14515TIP3    H165036   0.891   5.250  15.631 -2.3032  0.7728 -1.6618
14515TIP3    H265037   0.989   5.348  15.571 -1.2488  0.0326 -1.1585
14516TIP3   OH265038   2.227   3.292   0.092  0.3353  0.1565 -0.1363
14516TIP3    H165039   2.321   3.310   0.094  0.0457  1.7160  1.3762
14516TIP3    H265040   2.200   3.307   0.001  1.5555 -0.4037 -0.5907
14517TIP3   OH265041   2.967   5.181   4.369 -0.5765 -0.1075  0.3951
14517TIP3    H165042   3.052   5.206   4.333 -0.1213  3.5918  3.7245
14517TIP3    H265043   2.904   5.240   4.326 -1.0160 -0.5981  0.3575
14518TIP3   OH265044   5.306   6.579  11.797 -0.1430  0.3994 -0.4977
14518TIP3    H165045   5.277   6.595  11.887 -1.2051  0.2057 -0.7972
14518TIP3    H265046   5.402   6.575  11.803 -0.1523  1.3392  0.4667
14519TIP3   OH265047   4.729   2.570  13.409 -0.1181 -0.0394  0.0358
14519TIP3    H165048   4.784   2.635  13.366 -1.4134  0.1298 -1.3891
14519TIP3    H265049   4.767   2.486  13.384  0.3767  0.1067  0.2794
14520TIP3   OH265050   2.187   4.380   4.536 -0.4103  0.1273 -0.1060
14520TIP3    H165051   2.163   4.335   4.455 -1.9598  0.3808  0.1858
14520TIP3    H265052   2.216   4.310   4.594  0.5849 -0.0720 -0.8173
14521TIP3   OH265053   2.536   3.909  12.019 -0.1783 -0.5683  0.0129
14521TIP3    H165054   2.593   3.973  11.976 -0.2576 -0.8810 -0.5547
14521TIP3    H265055   2.597   3.849  12.063 -0.1198  0.2312  1.0199
14522TIP3   OH265056   3.639   4.914  16.334  0.1993  0.5370 -0.0515
14522TIP3    H165057   3.690   4.859  16.275 -1.7685  0.1826 -1.4991
14522TIP3    H265058   3.584   4.966  16.276 -2.7515 -0.7535  1.4465
14523TIP3   OH265059   4.628   1.133   0.957 -0.3434  0.0082 -0.4568
14523TIP3    H165060   4.608   1.136   1.051 -3.3997 -0.9447 -1.0174
14523TIP3    H265061   4.577   1.204   0.920  1.0504  0.5347 -1.3844
14524TIP3   OH265062   6.618   5.665  12.526 -0.2686  0.3485 -0.0936
14524TIP3    H165063   6.625   5.709  12.442 -0.5364 -0.1140 -0.3671
14524TIP3    H265064   6.637   5.573  12.507 -2.5858 -0.1740 -0.0921
14525TIP3   OH265065   3.060   2.574  13.856  0.0054 -0.0805 -0.1262
14525TIP3    H165066   2.992   2.638  13.837 -0.8052 -1.1228 -0.7932
14525TIP3    H265067   3.099   2.604  13.938 -0.1223  1.4517 -0.6089
14526TIP3   OH265068   1.692   4.404  17.226 -0.4014  0.6214  0.0520
14526TIP3    H165069   1.617   4.416  17.284 -1.7840 -0.8042 -1.3967
14526TIP3    H265070   1.720   4.314  17.239 -0.4973  0.3944 -1.2119
14527TIP3   OH265071   1.668   6.498  13.685 -0.5223 -0.3320 -0.1666
14527TIP3    H165072   1.740   6.555  13.714  0.7965 -0.8404 -2.3276
14527TIP3    H265073   1.630   6.464  13.766  1.3249  0.3721  1.0269
14528TIP3   OH265074   1.577   3.794  16.051 -0.0916 -0.0878  0.1829
14528TIP3    H165075   1.484   3.781  16.068  0.1470 -0.8581  0.9805
14528TIP3    H265076   1.582   3.874  15.999 -1.3488 -1.1022 -1.5380
14529TIP3   OH265077   3.829   5.698  10.445 -0.2165 -0.0136  0.2138
14529TIP3    H165078   3.747   5.655  10.469 -0.0613 -0.8690 -0.7650
14529TIP3    H265079   3.880   5.629  10.401 -0.3683  1.4371 -2.3026
14530TIP3   OH265080   2.407   5.006   1.479 -0.0528 -0.5465 -0.5270
14530TIP3    H165081   2.483   5.012   1.537 -0.9764  0.4838  0.6107
14530TIP3    H265082   2.378   4.915   1.487  0.6282 -0.7611 -0.4361
14531TIP3   OH265083   0.698   4.608   5.378 -0.2419 -0.1472  0.2363
14531TIP3    H165084   0.665   4.651   5.299  0.2154  1.0562  0.7030
14531TIP3    H265085   0.650   4.525   5.381  0.2837 -0.5453 -1.7295
14532TIP3   OH265086   1.473   1.525  13.649 -0.1032 -0.0268 -0.3432
14532TIP3    H165087   1.392   1.490  13.613  0.8147 -1.5114 -1.0019
14532TIP3    H265088   1.506   1.457  13.708  1.1878  0.1060 -0.8830
14533TIP3   OH265089   6.301   4.780  14.902 -0.3216 -0.0226 -0.4105
14533TIP3    H165090   6.227   4.754  14.848  0.6076 -1.4559 -1.0167
14533TIP3    H265091   6.341   4.853  14.855 -0.7636  0.1182 -0.5689
14534TIP3   OH265092   6.611   1.024  14.430  0.0110  0.4562 -0.0356
14534TIP3    H165093   6.653   1.090  14.374 -1.0241  0.4543 -0.8436
14534TIP3    H265094   6.555   0.975  14.370 -1.2021  0.5208  1.0352
14535TIP3   OH265095   1.912   6.686  11.514  0.3209  0.4384 -0.4023
14535TIP3    H165096   1.832   6.733  11.490  1.0420  1.3698 -1.0186
14535TIP3    H265097   1.912   6.609  11.457 -2.0011 -1.5463  2.1464
14536TIP3   OH265098   6.796   0.032   0.724  0.1921  0.0736 -0.5174
14536TIP3    H165099   6.735   0.102   0.702 -0.4306 -0.3768 -0.2405
14536TIP3    H265100   6.814   0.044   0.818  1.2902  0.7919 -0.8135
14537TIP3   OH265101   0.182   1.443  15.077  0.1052  0.0735 -0.3218
14537TIP3    H165102   0.173   1.419  15.170 -1.7164 -0.7751 -0.6961
14537TIP3    H265103   0.105   1.496  15.059  0.8559  0.8751 -1.1660
14538TIP3   OH265104   3.175   2.361  14.800 -0.3106 -0.1737 -0.2400
14538TIP3    H165105   3.212   2.287  14.847  0.2497  0.5302  0.4239
14538TIP3    H265106   3.084   2.336  14.782 -0.3435 -0.6917  0.6697
14539TIP3   OH265107   1.317   0.371  16.800 -0.4811  0.0538 -0.2752
14539TIP3    H165108   1.274   0.403  16.721 -2.0847 -0.6085  0.3078
14539TIP3    H265109   1.253   0.313  16.840  0.8791 -0.7748  0.7465
14540TIP3   OH265110   6.799   0.396   1.457 -0.1789  0.0846  0.0786
14540TIP3    H165111   6.707   0.423   1.454 -0.6395 -1.6153 -1.6908
14540TIP3    H265112   6.797   0.301   1.453  1.6277 -0.0400  1.3249
14541TIP3   OH265113   3.184   4.670   1.774  0.4536 -0.0566 -0.3702
14541TIP3    H165114   3.237   4.595   1.746  2.1979  0.8267  0.4646
14541TIP3    H265115   3.110   4.631   1.821  1.1881 -1.2639 -0.1928
14542TIP3   OH265116   5.815   1.732  16.697  0.3405  0.3006  0.3917
14542TIP3    H165117   5.730   1.736  16.741 -0.9886  0.2626 -2.1087
14542TIP3    H265118   5.865   1.803  16.736 -2.1810  2.8153 -0.7857
14543TIP3   OH265119   1.763   2.552  14.322  0.7076 -0.3180  0.3270
14543TIP3    H165120   1.779   2.645  14.309 -0.8274  0.0468  0.9834
14543TIP3    H265121   1.777   2.538  14.416  1.0501 -0.7728  0.2111
14544TIP3   OH265122   5.877   0.121  15.874  0.5944 -0.1874 -1.1767
14544TIP3    H165123   5.954   0.081  15.913 -0.0755 -1.2474 -0.9165
14544TIP3    H265124   5.812   0.051  15.871 -0.5024  0.7890 -0.9811
14545TIP3   OH265125   6.512   3.305   3.090  0.3918  0.4402  0.2710
14545TIP3    H165126   6.540   3.234   3.147 -2.5798 -1.3496 -0.3865
14545TIP3    H265127   6.591   3.331   3.043  1.7601 -1.6688  1.3364
14546TIP3   OH265128   1.061   4.525  12.411 -0.5765  0.0421  0.3019
14546TIP3    H165129   1.055   4.617  12.434  0.9544  0.0483  0.7595
14546TIP3    H265130   1.032   4.521  12.320  0.4508  1.1573 -0.0886
14547TIP3   OH265131   5.185   4.723   4.106 -0.5341  0.4475 -0.5077
14547TIP3    H165132   5.108   4.726   4.050 -0.3469 -0.8318 -0.8584
14547TIP3    H265133   5.181   4.637   4.148  0.2722  0.6882  0.0812
14548TIP3   OH265134   1.460   3.753  12.465 -0.3556  0.3023  0.3379
14548TIP3    H165135   1.461   3.737  12.371 -1.3325  1.8437  0.0333
14548TIP3    H265136   1.424   3.673  12.503  0.7128 -0.6045 -0.5226
14549TIP3   OH265137   3.671   2.249   1.539 -0.2739  0.4543 -0.1374
14549TIP3    H165138   3.733   2.322   1.536 -0.5697  0.7308  0.4178
14549TIP3    H265139   3.618   2.260   1.460 -0.0900  0.6391 -0.2364
14550TIP3   OH265140   1.508   2.823  13.119  0.2769  0.1410 -0.0697
14550TIP3    H165141   1.567   2.853  13.188 -0.8661  1.0146  0.5510
14550TIP3    H265142   1.452   2.758  13.161  0.8082 -0.7273 -0.6717
14551TIP3   OH265143   4.680   2.504   5.629  0.1118  0.1288  0.1943
14551TIP3    H165144   4.723   2.589   5.622  0.6385 -0.2016 -0.6787
14551TIP3    H265145   4.731   2.446   5.572 -1.6831 -0.1928 -1.1295
14552TIP3   OH265146   0.303   2.960  10.415 -0.0768 -0.7907  0.2227
14552TIP3    H165147   0.381   2.909  10.392 -0.4500 -1.4953  0.5197
14552TIP3    H265148   0.254   2.904  10.475  0.1363  0.4297  1.5661
14553TIP3   OH265149   3.336   2.155  16.320  0.4777 -0.6473  0.3309
14553TIP3    H165150   3.373   2.222  16.378  0.4471 -0.3036 -0.0496
14553TIP3    H265151   3.405   2.138  16.256 -0.7439  1.4564 -1.6054
14554TIP3   OH265152   3.583   5.412  12.318 -0.4965 -0.0411 -0.0537
14554TIP3    H165153   3.594   5.317  12.313 -0.9173 -0.1218  0.5819
14554TIP3    H265154   3.495   5.425  12.354 -0.5070  0.5937 -0.2863
14555TIP3   OH265155   0.471   4.175   1.130  0.5814 -0.2368 -0.0879
14555TIP3    H165156   0.566   4.179   1.145  0.2244  1.0319  1.8997
14555TIP3    H265157   0.460   4.211   1.042  1.7509  1.7032  0.5347
14556TIP3   OH265158   6.129   4.019   5.130  0.1566  0.0753 -0.0705
14556TIP3    H165159   6.157   4.107   5.108  1.3620 -0.4634 -0.7288
14556TIP3    H265160   6.206   3.979   5.172 -0.0056 -1.0315 -0.8171
14557TIP3   OH265161   2.571   3.072   0.442  0.7852 -0.2239  0.3212
14557TIP3    H165162   2.558   3.047   0.351  1.6480 -0.4052  0.2384
14557TIP3    H265163   2.492   3.119   0.466 -0.2625 -1.8376  0.0672
14558TIP3   OH265164   6.559   4.473  13.652  0.0588 -0.4770  0.7474
14558TIP3    H165165   6.566   4.455  13.746 -0.7609  1.1337  1.1171
14558TIP3    H265166   6.512   4.397  13.617 -2.0233  0.1562  2.0701
14559TIP3   OH265167   1.461   0.780   5.406  0.2534 -0.1810  0.5700
14559TIP3    H165168   1.510   0.725   5.345  0.6895 -0.0934  0.8359
14559TIP3    H265169   1.462   0.731   5.489  2.7457  1.3030  1.4781
14560TIP3   OH265170   6.759   3.306   2.688  0.4075  0.4616 -0.4124
14560TIP3    H165171   6.701   3.284   2.615 -0.2969 -0.3927  0.3934
14560TIP3    H265172   6.845   3.315   2.648 -0.4934  3.0977 -1.8424
14561TIP3   OH265173   4.633   2.179   2.874 -0.1922  0.0887  0.0999
14561TIP3    H165174   4.695   2.252   2.869 -0.6704  0.6360  1.7290
14561TIP3    H265175   4.595   2.174   2.786  0.7121  1.0218 -0.3632
14562TIP3   OH265176   1.865   5.308  12.970  0.1938 -0.6739 -0.4427
14562TIP3    H165177   1.959   5.291  12.979 -0.3747 -3.4552  0.7981
14562TIP3    H265178   1.836   5.248  12.901 -0.6293  0.3498 -0.9965
14563TIP3   OH265179   3.639   1.592  16.272 -0.1249 -0.1111 -0.5019
14563TIP3    H165180   3.654   1.534  16.346  2.3999 -3.2351 -3.3030
14563TIP3    H265181   3.616   1.534  16.200  0.5901  2.4972 -2.9451
14564TIP3   OH265182   5.707   0.447  16.464 -0.4565 -0.0729  0.2996
14564TIP3    H165183   5.659   0.505  16.405 -2.6026 -1.3355  0.7751
14564TIP3    H265184   5.642   0.419  16.529  0.3124 -3.7028 -0.4172
14565TIP3   OH265185   0.902   2.979   3.510  0.1451 -0.0029  0.3029
14565TIP3    H165186   0.850   2.981   3.430  0.0603  1.6914  0.3869
14565TIP3    H265187   0.838   2.963   3.580 -0.1311  0.9874  0.2861
14566TIP3   OH265188   1.231   4.750   4.464 -0.1925  0.3899 -0.5405
14566TIP3    H165189   1.153   4.805   4.470  0.3482  1.0238  1.1938
14566TIP3    H265190   1.208   4.670   4.510 -0.9340 -0.8140 -2.9497
14567TIP3   OH265191   4.153   2.436  13.391 -0.2203 -0.5936  0.3045
14567TIP3    H165192   4.120   2.421  13.302 -0.9039  0.5792  0.3519
14567TIP3    H265193   4.208   2.514  13.383  2.0319 -2.1322  0.3641
14568TIP3   OH265194   1.970   3.390   1.415 -0.0663 -0.1962 -0.2080
14568TIP3    H165195   1.874   3.390   1.416 -0.0687 -0.0632  0.9360
14568TIP3    H265196   1.993   3.418   1.327 -1.0801  0.2035 -0.3576
14569TIP3   OH265197   3.415   5.292  12.018  0.5337 -0.2333  0.3357
14569TIP3    H165198   3.355   5.271  12.090 -0.7599 -0.4922 -0.7999
14569TIP3    H265199   3.408   5.387  12.009  0.6607 -0.2056  0.5122
14570TIP3   OH265200   2.151   2.191   0.656 -0.3169 -0.0682 -0.1093
14570TIP3    H165201   2.245   2.184   0.672 -0.4474 -1.9099 -0.0455
14570TIP3    H265202   2.130   2.113   0.605 -1.7216  0.6207 -0.6068
14571TIP3   OH265203   0.055   3.072  15.327 -0.1518  0.0958 -0.1714
14571TIP3    H165204   0.022   3.028  15.406 -0.8887 -0.4338 -0.7680
14571TIP3    H265205   0.095   3.153  15.359  0.1370 -0.4346  0.8148
14572TIP3   OH265206   0.782   1.901   0.406  0.0126 -0.0918  0.0620
14572TIP3    H165207   0.732   1.878   0.328  0.6394  0.8521 -0.6373
14572TIP3    H265208   0.800   1.818   0.449  0.9652 -0.7616 -1.6058
14573TIP3   OH265209   5.424   0.177  16.215  0.2190 -0.4448  0.6433
14573TIP3    H165210   5.368   0.223  16.277 -1.9755  0.8742 -2.1812
14573TIP3    H265211   5.490   0.241  16.189  0.2804 -0.5435  0.5525
14574TIP3   OH265212   5.769   0.433  11.371  0.6128  0.0777  0.3883
14574TIP3    H165213   5.844   0.484  11.340 -0.3996  1.5967  0.3982
14574TIP3    H265214   5.727   0.401  11.292  0.3711  0.5501  0.3230
14575TIP3   OH265215   1.986   0.572   1.355 -0.7749  0.4300 -0.6485
14575TIP3    H165216   2.067   0.552   1.402 -0.6219 -0.4863 -1.2769
14575TIP3    H265217   1.956   0.654   1.392  1.0494  1.3792 -1.1942
14576TIP3   OH265218   1.221   5.156   1.552  0.3988  0.2175  0.1382
14576TIP3    H165219   1.202   5.158   1.459  0.8589 -3.2040 -0.1153
14576TIP3    H265220   1.309   5.194   1.560  0.0480  1.2253 -0.6913
14577TIP3   OH265221   0.114   1.436  13.296  0.9990 -0.5526  0.8413
14577TIP3    H165222   0.035   1.404  13.251  0.2549  0.4889  1.3861
14577TIP3    H265223   0.171   1.466  13.225  0.2104  0.2240  0.5305
14578TIP3   OH265224   5.622   1.826  12.984 -0.0498 -0.0968  0.1128
14578TIP3    H165225   5.676   1.904  12.975  1.7076 -1.1467  1.2342
14578TIP3    H265226   5.533   1.856  12.968  0.7140  1.9176 -0.5066
14579TIP3   OH265227   3.707   3.752  14.108 -0.2871 -0.3256  0.0506
14579TIP3    H165228   3.720   3.660  14.131 -0.6005 -0.3926 -0.0409
14579TIP3    H265229   3.628   3.752  14.055 -0.5048  0.0486  0.3783
14580TIP3   OH265230   4.844   1.305   2.950  0.0292  0.2356  0.1117
14580TIP3    H165231   4.749   1.302   2.958 -0.0636  2.0229 -0.0849
14580TIP3    H265232   4.876   1.270   3.033 -0.7546 -2.7306 -0.7963
14581TIP3   OH265233   2.398   2.689   2.919  0.4273  0.0652 -0.0422
14581TIP3    H165234   2.308   2.715   2.940  1.0564  1.8696  0.5156
14581TIP3    H265235   2.392   2.651   2.831 -1.3595 -2.6554  1.1892
14582TIP3   OH265236   5.640   6.342  10.794  0.0628  0.1843 -0.2333
14582TIP3    H165237   5.649   6.250  10.769 -1.8323 -0.1396  0.1846
14582TIP3    H265238   5.550   6.349  10.827  0.8859  1.6960  1.7768
14583TIP3   OH265239   5.329   0.963  15.612  0.2427 -0.0510 -0.3313
14583TIP3    H165240   5.255   0.949  15.553  0.9561  1.0732 -1.5255
14583TIP3    H265241   5.406   0.962  15.554  0.9436  1.2835  0.5514
14584TIP3   OH265242   1.628   2.112  11.986 -0.5033  0.0548  0.1642
14584TIP3    H165243   1.585   2.138  12.067  0.8384 -1.6099  1.4366
14584TIP3    H265244   1.701   2.174  11.976 -0.4163 -0.0000  0.4568
14585TIP3   OH265245   0.356   0.926  11.577 -0.3239 -0.2204  0.3020
14585TIP3    H165246   0.374   1.010  11.620  0.4103 -0.0848 -0.2648
14585TIP3    H265247   0.294   0.948  11.507 -1.7839 -0.4949  1.4848
14586TIP3   OH265248   1.996   3.725   0.285  0.6141 -0.3524  0.6343
14586TIP3    H165249   2.023   3.784   0.214 -0.0099 -0.9735 -0.1132
14586TIP3    H265250   2.078   3.686   0.316  0.7335 -1.1585 -0.6909
14587TIP3   OH265251   2.122   1.189   3.933  0.0956  0.4146  0.0768
14587TIP3    H165252   2.209   1.224   3.914  0.1982 -0.3507 -0.9252
14587TIP3    H265253   2.079   1.258   3.983  1.3406  0.7281  0.7486
14588TIP3   OH265254   3.687   2.265  12.999 -0.0973  0.4258 -0.0796
14588TIP3    H165255   3.635   2.269  12.918 -0.8940  0.4905  0.4279
14588TIP3    H265256   3.622   2.262  13.069  0.5832 -0.3373  0.5336
14589TIP3   OH265257   2.395   4.248  16.529  0.5209 -0.2132  0.5927
14589TIP3    H165258   2.348   4.209  16.603 -1.9546 -0.1316 -0.8824
14589TIP3    H265259   2.410   4.339  16.556  0.1346 -0.3323  1.2231
14590TIP3   OH265260   3.910   6.158  13.379  0.6726  0.7755 -0.0246
14590TIP3    H165261   3.821   6.193  13.386  0.4299 -0.2124  2.1871
14590TIP3    H265262   3.967   6.230  13.405  0.3456  0.4815  1.5212
14591TIP3   OH265263   4.559   5.791  15.604 -0.5780  0.2889 -0.4423
14591TIP3    H165264   4.565   5.787  15.508 -0.7414  1.3715 -0.5006
14591TIP3    H265265   4.492   5.858  15.621 -0.3402  0.3022  0.4310
14592TIP3   OH265266   5.283   5.732   5.680  0.4858 -0.2476 -0.0291
14592TIP3    H165267   5.269   5.723   5.774 -0.4861  0.1552 -0.1236
14592TIP3    H265268   5.347   5.665   5.658  0.0306 -0.9427  0.7604
14593TIP3   OH265269   4.645   2.902  13.737 -0.5444  0.1485 -0.3989
14593TIP3    H165270   4.683   2.815  13.738 -3.1069 -1.0195 -0.3588
14593TIP3    H265271   4.631   2.922  13.644  0.7984  0.8726 -0.4511
14594TIP3   OH265272   1.876   4.710   3.017 -0.1027 -0.0184 -0.4936
14594TIP3    H165273   1.900   4.622   3.048 -2.1109 -0.5326 -0.3252
14594TIP3    H265274   1.814   4.694   2.945  0.3751  1.2575 -1.2114
14595TIP3   OH265275   2.120   4.553   2.651 -0.1174 -0.2399 -0.2833
14595TIP3    H165276   2.181   4.562   2.578  1.1162  0.1283  0.7672
14595TIP3    H265277   2.070   4.635   2.651  0.5854  0.1977 -0.0982
14596TIP3   OH265278   5.336   2.868   4.964 -0.0748 -0.5739 -0.2340
14596TIP3    H165279   5.413   2.814   4.946  0.0753 -0.0909 -1.0753
14596TIP3    H265280   5.341   2.938   4.899  0.1930  0.9332  1.3909
14597TIP3   OH265281   2.601   3.460  13.100 -0.0758  0.2702  0.2650
14597TIP3    H165282   2.589   3.444  13.193  0.0351 -1.3496  0.0134
14597TIP3    H265283   2.613   3.373  13.062  0.3065  0.9482 -1.1998
14598TIP3   OH265284   3.828   1.562  16.983 -0.2468  0.5011  0.0792
14598TIP3    H165285   3.740   1.541  17.015  0.0703 -1.3236 -0.1762
14598TIP3    H265286   3.863   1.478  16.953  1.4175  1.2872 -0.2385
14599TIP3   OH265287   4.231   6.631  13.938 -0.3127 -0.4641  0.6633
14599TIP3    H165288   4.324   6.616  13.921 -0.6851 -1.5490 -0.4849
14599TIP3    H265289   4.216   6.591  14.024 -0.0005 -1.5038  0.2467
14600TIP3   OH265290   0.035   5.023   5.126  0.2278  0.7076  0.2030
14600TIP3    H165291   0.008   5.056   5.212  1.3843 -0.3726  1.0027
14600TIP3    H265292   0.058   4.931   5.142 -0.3704  0.2521 -1.4410
14601TIP3   OH265293   5.470   3.954  14.625 -0.0466 -0.4727 -0.1006
14601TIP3    H165294   5.409   4.026  14.609 -0.4965 -0.7729  0.2370
14601TIP3    H265295   5.467   3.902  14.545 -0.1512 -0.4269 -0.1271
14602TIP3   OH265296   6.504   2.091  15.580  0.8258  0.6138 -0.1094
14602TIP3    H165297   6.543   2.171  15.616 -0.6245  0.8225  1.0206
14602TIP3    H265298   6.440   2.063  15.645  0.1517 -0.5670 -1.2430
14603TIP3   OH265299   4.228   1.506  11.131  0.4320  0.0830  0.5828
14603TIP3    H165300   4.232   1.478  11.040 -1.6886 -0.2349  0.5604
14603TIP3    H265301   4.307   1.558  11.144 -0.0296  1.4808 -1.8749
14604TIP3   OH265302   2.404   5.232  17.245  0.3284 -0.1095  0.0603
14604TIP3    H165303   2.497   5.245  17.227  0.5871 -0.0159  1.3953
14604TIP3    H265304   2.368   5.198  17.164  1.3712  0.6500 -0.7296
14605TIP3   OH265305   0.620   3.242   0.503 -0.0066 -0.4388 -0.1882
14605TIP3    H165306   0.646   3.273   0.589 -0.4564 -0.3971 -0.0649
14605TIP3    H265307   0.701   3.215   0.461  0.1469 -0.9815  0.4557
14606TIP3   OH265308   6.481   3.861   4.205 -0.1785 -0.2433  0.5931
14606TIP3    H165309   6.394   3.884   4.172  0.3109  0.0127 -0.5565
14606TIP3    H265310   6.534   3.850   4.126  0.4020 -2.1399  1.2058
14607TIP3   OH265311   3.463   4.286  16.054 -0.5134 -0.1151  0.5246
14607TIP3    H165312   3.481   4.359  15.995  1.1611  0.4239  1.6328
14607TIP3    H265313   3.453   4.210  15.997  0.9933  0.4003 -0.4750
14608TIP3   OH265314   2.611   5.688  12.636  0.4987  0.4990 -0.0082
14608TIP3    H165315   2.604   5.659  12.727 -0.0043 -1.1070 -0.5403
14608TIP3    H265316   2.695   5.733  12.631  1.3539 -0.9623  0.8441
14609TIP3   OH265317   5.327   3.325  12.089 -0.6289 -0.0949 -0.1018
14609TIP3    H165318   5.301   3.408  12.130 -1.6778 -2.6371  4.8829
14609TIP3    H265319   5.244   3.286  12.061 -0.5264 -0.9474  0.7509
14610TIP3   OH265320   3.945   2.911   3.347 -0.1297 -0.3801 -0.2481
14610TIP3    H165321   3.893   2.991   3.351 -2.7417 -2.0255 -0.1974
14610TIP3    H265322   3.932   2.870   3.433  1.5093 -0.6825 -0.1264
14611TIP3   OH265323   1.661   5.054   6.061  0.0980 -0.2011 -0.6467
14611TIP3    H165324   1.723   5.050   6.134 -1.6532  1.3197  1.0047
14611TIP3    H265325   1.613   4.971   6.067 -0.1755 -0.0015  0.1104
14612TIP3   OH265326   5.971   3.148   5.571 -0.4219 -0.2130  0.4970
14612TIP3    H165327   5.948   3.240   5.555 -0.3056 -0.5720 -2.0077
14612TIP3    H265328   6.054   3.136   5.525 -1.1034 -1.9091 -0.3389
14613TIP3   OH265329   6.425   6.633  12.918 -0.6564 -0.3607  0.0791
14613TIP3    H165330   6.460   6.632  13.006 -0.7908  1.2191  0.1751
14613TIP3    H265331   6.439   6.545  12.884 -1.4565 -1.2442  2.0075
14614TIP3   OH265332   2.720   0.579  12.362 -0.0634 -0.0389  0.1888
14614TIP3    H165333   2.648   0.626  12.404  0.1789  0.6359 -0.1525
14614TIP3    H265334   2.680   0.539  12.285 -0.0255  0.5364 -0.1340
14615TIP3   OH265335   6.462   1.853   6.184  0.4659  0.6490 -0.5173
14615TIP3    H165336   6.518   1.925   6.212  1.6668 -0.8687  1.0788
14615TIP3    H265337   6.461   1.792   6.258 -0.8140 -0.8055 -1.6838
14616TIP3   OH265338   4.843   4.835   4.505 -0.1714  0.0402 -0.3763
14616TIP3    H165339   4.842   4.913   4.560 -0.2119  0.2674 -0.6966
14616TIP3    H265340   4.765   4.786   4.531 -0.6813  0.5908 -0.8671
14617TIP3   OH265341   2.985   5.111   5.727 -0.0115  0.0955 -0.8012
14617TIP3    H165342   3.054   5.096   5.791 -0.7594 -1.0749 -0.2503
14617TIP3    H265343   3.014   5.188   5.677  1.4920 -0.1580 -0.3327
14618TIP3   OH265344   1.715   3.487  16.570  0.5456 -0.0273  0.2201
14618TIP3    H165345   1.767   3.418  16.528 -1.7126 -1.4058 -0.3944
14618TIP3    H265346   1.628   3.479  16.531 -0.8866  0.4245  3.1532
14619TIP3   OH265347   6.641   1.908   0.646 -0.1112  0.0386 -0.0492
14619TIP3    H165348   6.707   1.976   0.634 -2.1309  1.7876 -1.8039
14619TIP3    H265349   6.600   1.930   0.730 -0.0683  0.3798 -0.1141
14620TIP3   OH265350   6.798   1.293   4.177  0.0254 -0.7303  0.4662
14620TIP3    H165351   6.716   1.278   4.225  0.3980 -0.6417  1.1299
14620TIP3    H265352   6.771   1.297   4.085 -0.6274 -1.3740  0.6220
14621TIP3   OH265353   2.356   3.460   5.648 -0.3426 -0.1429 -0.2946
14621TIP3    H165354   2.304   3.381   5.635  1.5343 -1.3541 -0.7816
14621TIP3    H265355   2.383   3.485   5.559  0.1164  0.3137 -0.0283
14622TIP3   OH265356   5.987   3.576   2.536  0.1477 -0.0283 -0.7726
14622TIP3    H165357   5.976   3.494   2.487 -0.8648 -1.0732  1.1423
14622TIP3    H265358   6.082   3.591   2.537  0.4003 -1.5944 -0.4982
14623TIP3   OH265359   3.107   0.578  13.341 -0.4206 -0.1391  0.4472
14623TIP3    H165360   3.104   0.658  13.288  1.0950  0.9170  1.9118
14623TIP3    H265361   3.020   0.574  13.382 -0.7058  0.4477 -0.0902
14624TIP3   OH265362   0.635   5.280   3.522  0.2106  0.1118 -0.5284
14624TIP3    H165363   0.661   5.234   3.442 -2.4944 -1.1599 -0.7565
14624TIP3    H265364   0.588   5.357   3.490 -1.6527 -0.8628 -0.2306
14625TIP3   OH265365   0.492   6.178  17.189 -0.2873 -0.2677 -0.3307
14625TIP3    H165366   0.455   6.247  17.134  1.5669  0.3655 -0.8382
14625TIP3    H265367   0.521   6.224  17.268  1.2326 -0.3981 -0.7999
14626TIP3   OH265368   6.689   5.407  17.121  0.8202  0.3824 -0.1646
14626TIP3    H165369   6.679   5.325  17.170  0.0896  1.3385  1.3152
14626TIP3    H265370   6.606   5.453  17.134  0.6026  0.6875 -2.3073
14627TIP3   OH265371   3.756   5.153  15.510  0.5705  0.1169  0.9232
14627TIP3    H165372   3.732   5.143  15.602  1.7541  2.8145  1.5641
14627TIP3    H265373   3.791   5.242  15.503 -0.0341  0.1821 -2.2576
14628TIP3   OH265374   1.894   4.949   0.227  0.0773 -0.2375  0.0676
14628TIP3    H165375   1.906   4.999   0.307 -2.1519  1.2760 -0.4995
14628TIP3    H265376   1.815   4.896   0.242  0.1691 -0.6377 -0.7806
14629TIP3   OH265377   4.513   2.921   0.125 -0.1922 -0.6230 -0.2031
14629TIP3    H165378   4.461   2.882   0.196  0.9882 -1.0962  0.4217
14629TIP3    H265379   4.603   2.893   0.144  0.3396  0.4932 -1.0631
14630TIP3   OH265380   0.802   3.832   2.300  0.3975 -0.4392 -0.4155
14630TIP3    H165381   0.737   3.884   2.253 -0.8415 -0.4275  1.2829
14630TIP3    H265382   0.850   3.896   2.353  0.7048 -0.6739 -0.4074
14631TIP3   OH265383   5.362   0.677   5.362 -0.6032  0.1571 -0.2656
14631TIP3    H165384   5.338   0.593   5.401 -1.1617 -0.2708 -1.4919
14631TIP3    H265385   5.279   0.713   5.329 -0.3102  1.0086 -0.1043
14632TIP3   OH265386   5.265   1.653  14.355 -0.0789 -0.2548  0.4507
14632TIP3    H165387   5.274   1.701  14.272 -0.0623 -1.0910 -0.0365
14632TIP3    H265388   5.227   1.717  14.415  0.1386  0.4378 -0.1314
14633TIP3   OH265389   6.816   2.903   5.041 -0.7330  0.4981  0.3993
14633TIP3    H165390   6.881   2.845   5.079 -1.4622 -1.2516 -0.9370
14633TIP3    H265391   6.732   2.863   5.062 -1.1726 -0.0359 -2.2494
14634TIP3   OH265392   0.858   6.522   5.020 -0.4010  0.0635 -0.6419
14634TIP3    H165393   0.773   6.516   5.065  0.0297  0.4745  0.2440
14634TIP3    H265394   0.856   6.451   4.956 -0.7791 -0.9474  0.4662
14635TIP3   OH265395   1.660   5.994  16.540 -0.3350 -0.2490  0.0585
14635TIP3    H165396   1.680   6.079  16.501  2.0913 -0.8269 -0.0323
14635TIP3    H265397   1.565   5.989  16.539 -0.5068  2.3266 -0.2332
14636TIP3   OH265398   4.213   4.770   1.642  0.4761 -0.2052  0.1756
14636TIP3    H165399   4.123   4.749   1.665  0.5653 -0.1568  0.5756
14636TIP3    H265400   4.217   4.759   1.547  0.1075 -0.4198  0.1860
14637TIP3   OH265401   6.150   1.171   2.120  0.1035 -0.2446 -0.3415
14637TIP3    H165402   6.158   1.108   2.191  0.4629  0.0857 -0.0820
14637TIP3    H265403   6.123   1.252   2.163  2.1176  0.4492 -0.3250
14638TIP3   OH265404   1.913   6.524  11.125 -0.5392  0.0983 -0.0631
14638TIP3    H165405   1.890   6.554  11.036 -0.4656 -0.3270 -0.2260
14638TIP3    H265406   1.950   6.601  11.167 -1.4906  0.5748 -0.0821
14639TIP3   OH265407   6.163   4.891  13.393 -0.4795 -0.3325  0.4302
14639TIP3    H165408   6.245   4.859  13.356  1.3742  2.2286  2.2006
14639TIP3    H265409   6.137   4.962  13.334 -1.7045 -1.4127 -0.3721
14640TIP3   OH265410   0.107   3.972   2.088  0.3792  0.8875 -0.0132
14640TIP3    H165411   0.159   4.048   2.064 -1.9214  2.4777 -0.0796
14640TIP3    H265412   0.053   4.002   2.161 -0.3357 -0.7759  0.1606
14641TIP3   OH265413   1.363   1.146   5.949 -0.1825  0.3049 -0.8541
14641TIP3    H165414   1.351   1.176   5.859 -1.1838  0.1281 -0.7786
14641TIP3    H265415   1.372   1.051   5.942  1.4379  0.4411 -0.9293
14642TIP3   OH265416   6.744   4.119   1.017  0.6879 -0.4557  0.0970
14642TIP3    H165417   6.772   4.037   0.975  0.9856  1.0252 -2.7293
14642TIP3    H265418   6.678   4.155   0.958 -0.5357  0.6266  2.0773
14643TIP3   OH265419   2.869   4.871   5.705  0.5490 -0.1006  0.2475
14643TIP3    H165420   2.904   4.960   5.714  0.6680 -0.1017 -0.1997
14643TIP3    H265421   2.922   4.819   5.766  0.3741  0.1603  0.6264
14644TIP3   OH265422   2.600   2.910  14.173 -0.1630  0.1539  0.5131
14644TIP3    H165423   2.569   2.846  14.109  0.3638  0.0528  0.3560
14644TIP3    H265424   2.578   2.872  14.257  0.3268 -0.3321  0.4269
14645TIP3   OH265425   1.802   0.701  13.457  0.3427 -0.9074 -0.2036
14645TIP3    H165426   1.828   0.684  13.548  1.3238  0.6081 -0.1783
14645TIP3    H265427   1.777   0.615  13.423  0.6610 -1.6120  1.2788
14646TIP3   OH265428   1.003   1.795   5.089 -0.2260  1.1590  0.0562
14646TIP3    H165429   1.028   1.702   5.088 -1.9339  0.6843  0.1513
14646TIP3    H265430   1.026   1.825   5.177 -0.9905  0.4513  0.5015
14647TIP3   OH265431   5.129   2.839   1.502  0.5260  0.3121 -0.2584
14647TIP3    H165432   5.167   2.923   1.527 -2.4897  1.5720  0.3268
14647TIP3    H265433   5.135   2.786   1.582  1.0704  0.4970 -0.1774
14648TIP3   OH265434   5.109   4.072   2.019 -0.2180  0.1029  0.0958
14648TIP3    H165435   5.151   4.035   2.097  1.4277  0.6644 -0.5023
14648TIP3    H265436   5.020   4.037   2.021 -0.1241 -0.1050  2.0807
14649TIP3   OH265437   1.155   6.069   2.482  0.3630 -0.0416 -0.2073
14649TIP3    H165438   1.201   6.002   2.533  0.2670 -0.4279 -0.6235
14649TIP3    H265439   1.226   6.122   2.445  0.4636 -0.3095 -0.4077
14650TIP3   OH265440   6.725   0.590   2.525  0.5905  0.0637  0.2169
14650TIP3    H165441   6.726   0.494   2.530  0.4209  0.1173  1.2890
14650TIP3    H265442   6.642   0.615   2.565  1.3577  0.7395  1.4125
14651TIP3   OH265443   1.299   1.066   3.142  0.2748 -0.6161  0.1225
14651TIP3    H165444   1.368   1.062   3.076 -2.0079 -0.4529 -2.3665
14651TIP3    H265445   1.325   1.001   3.208  2.5843 -0.8150 -0.9384
14652TIP3   OH265446   3.400   3.695  15.633 -0.1268  0.4140  0.3302
14652TIP3    H165447   3.386   3.684  15.727  1.3452 -2.3212  0.2905
14652TIP3    H265448   3.491   3.722  15.625 -0.2262  0.5675 -0.3069
14653TIP3   OH265449   3.583   5.763   4.901 -0.0411 -0.4694  0.5001
14653TIP3    H165450   3.520   5.826   4.866  0.6040  0.0521  0.2788
14653TIP3    H265451   3.551   5.744   4.989 -1.0981 -1.0094  0.0121
14654TIP3   OH265452   6.429   4.325  15.757 -0.3333  0.0487  0.3522
14654TIP3    H165453   6.424   4.419  15.740 -0.8524 -0.4591 -2.6113
14654TIP3    H265454   6.522   4.303  15.751 -0.4653 -0.0373 -1.4697
14655TIP3   OH265455   0.393   2.344   1.148 -0.4704  0.1319  0.2703
14655TIP3    H165456   0.374   2.435   1.129  0.4013  0.3575  0.4266
14655TIP3    H265457   0.487   2.343   1.170  0.4431 -1.2970 -3.2115
14656TIP3   OH265458   3.704   2.487  11.778  0.1616  0.5320 -0.0235
14656TIP3    H165459   3.682   2.578  11.798 -0.5124  0.3869 -0.0724
14656TIP3    H265460   3.647   2.465  11.704 -1.0802 -0.5244  1.2127
14657TIP3   OH265461   3.457   4.369   6.127  0.0987  0.3830 -0.0548
14657TIP3    H165462   3.537   4.372   6.074 -1.3555 -0.4307 -2.3965
14657TIP3    H265463   3.460   4.285   6.171 -0.2575 -0.3686 -1.4476
14658TIP3   OH265464   1.954   4.217  14.962 -0.1616  0.0439  0.4417
14658TIP3    H165465   1.979   4.309  14.968 -0.1487  0.0937 -0.3230
14658TIP3    H265466   1.946   4.200  14.868  1.6016 -1.1966  0.4715
14659TIP3   OH265467   3.343   4.820  14.848 -0.3061 -0.1246  0.0910
14659TIP3    H165468   3.401   4.771  14.789 -0.6110  0.0292 -0.3385
14659TIP3    H265469   3.353   4.777  14.933  0.8801  0.2579  0.1571
14660TIP3   OH265470   3.482   6.079  12.431 -0.4396 -0.2369 -0.4954
14660TIP3    H165471   3.469   5.995  12.389 -0.7370 -0.2711 -0.3380
14660TIP3    H265472   3.520   6.058  12.517 -1.5625 -0.2843  0.0006
14661TIP3   OH265473   3.774   1.845  16.335 -0.2114  0.2494  0.1881
14661TIP3    H165474   3.782   1.906  16.409  1.1466  0.4832 -0.1299
14661TIP3    H265475   3.729   1.769  16.371 -1.4928  1.2348  0.7183
14662TIP3   OH265476   4.162   6.328   3.058  0.0347 -0.1611 -0.0964
14662TIP3    H165477   4.094   6.276   3.100 -1.8140  1.0036 -1.5433
14662TIP3    H265478   4.126   6.417   3.057  1.7843  0.5565 -0.4670
14663TIP3   OH265479   6.136   6.339   0.835  0.7540 -0.0131 -0.3378
14663TIP3    H165480   6.123   6.255   0.880  0.7141  0.3192  0.2775
14663TIP3    H265481   6.217   6.373   0.872  0.1112  0.8096  0.3437
14664TIP3   OH265482   2.852   6.528   3.964 -0.2303  0.2988  0.2235
14664TIP3    H165483   2.882   6.592   4.028  1.6250  0.4330 -0.7714
14664TIP3    H265484   2.853   6.445   4.012 -0.9818  0.7273  1.0061
14665TIP3   OH265485   5.252   4.474  14.672 -0.4520 -0.1784 -0.4106
14665TIP3    H165486   5.170   4.479  14.624 -0.5125  1.3636 -0.1872
14665TIP3    H265487   5.226   4.472  14.764 -0.2588 -0.1177 -0.3534
14666TIP3   OH265488   2.609   5.369  15.266 -0.1974 -1.0777 -0.3683
14666TIP3    H165489   2.567   5.297  15.312 -1.6543  0.0073  0.0472
14666TIP3    H265490   2.599   5.347  15.173 -0.6993 -1.3825 -0.2451
14667TIP3   OH265491   1.243   0.246   5.302 -0.4254 -0.0250 -0.2898
14667TIP3    H165492   1.328   0.270   5.339 -0.0196  0.6496 -1.5827
14667TIP3    H265493   1.264   0.191   5.226 -1.0384  1.4128 -1.5477
14668TIP3   OH265494   1.070   1.809   4.504 -0.0735  0.0921  0.1370
14668TIP3    H165495   1.096   1.813   4.412  1.1971  1.7114  0.5374
14668TIP3    H265496   1.013   1.733   4.510  1.1653 -1.0105 -1.6535
14669TIP3   OH265497   3.644   1.901  14.170  0.6663  0.4671  0.7324
14669TIP3    H165498   3.627   1.842  14.244 -2.0507  0.8508  0.4611
14669TIP3    H265499   3.642   1.989  14.208 -1.1954  0.6929  0.1718
14670TIP3   OH265500   0.061   0.663  15.664  0.1469 -0.3817  0.2436
14670TIP3    H165501  -0.011   0.699  15.611  0.5636  1.7046  1.0488
14670TIP3    H265502   0.051   0.568  15.656 -3.4737 -0.1806  1.3782
14671TIP3   OH265503   0.148   6.467  11.855  0.1566  0.2608 -0.1769
14671TIP3    H165504   0.179   6.544  11.901 -0.1625  0.0932  0.3254
14671TIP3    H265505   0.227   6.428  11.817  0.3303  0.7682 -0.3405
14672TIP3   OH265506   0.519   2.243   0.244 -0.0008  0.2963  0.2094
14672TIP3    H165507   0.570   2.257   0.323  0.0294  1.6407 -0.0375
14672TIP3    H265508   0.440   2.196   0.273  1.4769 -2.0834  0.5449
14673TIP3   OH265509   3.241   1.350   4.964 -0.0124  0.0161  0.0920
14673TIP3    H165510   3.215   1.442   4.961 -0.5892 -0.1212  0.6553
14673TIP3    H265511   3.161   1.302   4.943 -0.0080 -0.3861  0.9408
14674TIP3   OH265512   3.953   4.054   6.191  0.5503 -0.2868  0.3923
14674TIP3    H165513   3.997   4.132   6.225  1.1803  0.0768 -1.1840
14674TIP3    H265514   4.023   3.991   6.176  0.8961  0.9311 -3.8635
14675TIP3   OH265515   4.903   4.681   5.102  0.0287 -0.3995 -0.1390
14675TIP3    H165516   4.931   4.605   5.052 -0.2879 -1.5247  1.3465
14675TIP3    H265517   4.809   4.686   5.087  0.0408 -0.3213 -0.1911
14676TIP3   OH265518   2.562   6.575   3.079  0.1005  0.0248 -0.5157
14676TIP3    H165519   2.625   6.504   3.065  0.0635 -0.2572  0.6977
14676TIP3    H265520   2.495   6.537   3.135 -0.3634  0.7775 -0.5510
14677TIP3   OH265521   3.847   2.984   4.430 -0.2130  0.0137 -0.2704
14677TIP3    H165522   3.767   2.931   4.424  0.0724 -0.4690  0.2200
14677TIP3    H265523   3.886   2.977   4.343 -0.7588  0.3367 -0.5460
14678TIP3   OH265524   6.637   6.059   5.367 -0.3071 -0.6079 -0.2406
14678TIP3    H165525   6.578   5.999   5.322  0.9754 -0.1208 -2.6783
14678TIP3    H265526   6.661   6.014   5.448 -0.4384 -2.8124 -1.3919
14679TIP3   OH265527   1.552   3.956   1.501 -0.1981 -0.1905  0.1175
14679TIP3    H165528   1.639   3.962   1.541 -0.4619  0.9547  0.5328
14679TIP3    H265529   1.500   3.904   1.561 -0.2671  0.5466  0.6997
14680TIP3   OH265530   0.642   1.660   4.489 -0.0404  0.5764 -0.1510
14680TIP3    H165531   0.727   1.615   4.491  0.0377  0.7306  0.1235
14680TIP3    H265532   0.654   1.734   4.548  0.2563  1.7312 -1.6555
14681TIP3   OH265533   1.956   2.153  15.155  0.0996 -0.4245  0.2351
14681TIP3    H165534   2.031   2.116  15.108  0.6475 -2.2233  2.4121
14681TIP3    H265535   1.891   2.083  15.156 -0.8378  0.4345  0.0809
14682TIP3   OH265536   0.582   0.335  14.843 -0.0301 -0.4753  0.0264
14682TIP3    H165537   0.655   0.368  14.790  0.3976  0.7922  1.3818
14682TIP3    H265538   0.619   0.264  14.895  0.1977  0.0300  0.5601
14683TIP3   OH265539   1.719   0.115   1.816  0.0456 -0.3875 -0.1960
14683TIP3    H165540   1.806   0.075   1.803  0.4553  0.5497 -0.3332
14683TIP3    H265541   1.723   0.198   1.768 -1.4314 -1.0135 -1.4618
14684TIP3   OH265542   6.133   5.148  13.779  0.0227  0.1074 -0.2743
14684TIP3    H165543   6.179   5.162  13.696  1.7679 -1.8354  0.3406
14684TIP3    H265544   6.128   5.053  13.788 -2.8341  0.2748  0.4076
14685TIP3   OH265545   3.703   1.545  11.768 -0.1475 -0.4389 -0.1275
14685TIP3    H165546   3.771   1.613  11.767 -0.0183 -0.5376  1.1302
14685TIP3    H265547   3.746   1.467  11.733  0.1133 -0.2582 -0.2132
14686TIP3   OH265548   1.549   6.359   4.291 -0.7127  0.2686  0.0501
14686TIP3    H165549   1.579   6.268   4.282 -1.2818  0.1129 -0.3249
14686TIP3    H265550   1.523   6.383   4.202 -3.0010 -0.0546  0.6176
14687TIP3   OH265551   1.096   4.543   2.376  0.1857  0.2888 -0.7992
14687TIP3    H165552   1.104   4.489   2.297 -0.1131 -0.5876 -0.2343
14687TIP3    H265553   1.011   4.520   2.412 -0.3025  1.7460 -0.9889
14688TIP3   OH265554   0.562   2.202  14.419 -0.2475  0.2411  0.4349
14688TIP3    H165555   0.613   2.275  14.383 -0.6950  0.4179  0.1554
14688TIP3    H265556   0.625   2.152  14.471  0.4957 -0.2115 -0.8814
14689TIP3   OH265557   3.570   0.774   4.382  0.1444  0.3160 -0.0746
14689TIP3    H165558   3.586   0.767   4.477 -0.0968  0.2608 -0.0377
14689TIP3    H265559   3.622   0.703   4.344 -0.0495  0.1079  0.0499
14690TIP3   OH265560   5.924   6.723   0.336  0.2503  0.2359 -0.6054
14690TIP3    H165561   5.918   6.743   0.243 -0.3593  0.3405 -0.5459
14690TIP3    H265562   5.836   6.738   0.369  0.1497 -1.1310 -0.2658
14691TIP3   OH265563   0.552   0.462   4.009 -0.2729 -0.1021 -0.4412
14691TIP3    H165564   0.640   0.429   3.991 -0.2697  0.3446 -1.2578
14691TIP3    H265565   0.497   0.384   4.012  0.1857 -0.4029  0.3006
14692TIP3   OH265566   6.644   5.336   4.815  0.0313  0.0029  0.7263
14692TIP3    H165567   6.617   5.426   4.799 -1.3247 -0.5188 -0.1166
14692TIP3    H265568   6.660   5.300   4.727  0.8896 -0.4734  1.0726
14693TIP3   OH265569   6.248   1.325  15.769 -0.2643 -0.0791  0.2347
14693TIP3    H165570   6.291   1.360  15.691  0.2011 -0.6767  0.2230
14693TIP3    H265571   6.165   1.291  15.737  0.1211 -0.7338 -0.0803
14694TIP3   OH265572   1.580   1.240  15.364 -0.0962 -0.1771  0.4003
14694TIP3    H165573   1.668   1.217  15.394 -0.1013  1.1948  1.5297
14694TIP3    H265574   1.594   1.283  15.280  0.4298  0.9613  1.0536
14695TIP3   OH265575   2.969   2.411  13.174  0.0908  0.2695 -0.1443
14695TIP3    H165576   2.940   2.347  13.240  2.5113 -0.6733  0.0594
14695TIP3    H265577   2.925   2.492  13.198  1.7910  0.2532  3.3944
14696TIP3   OH265578   4.084   5.375  15.807 -0.2794  0.3318 -0.6094
14696TIP3    H165579   4.018   5.359  15.874 -0.6313 -0.8798 -1.2387
14696TIP3    H265580   4.126   5.290  15.794  0.2301  0.7095 -1.4545
14697TIP3   OH265581   1.348   6.777   3.454  0.2340 -0.7717 -0.0846
14697TIP3    H165582   1.338   6.734   3.539  2.2279 -2.1684 -0.5305
14697TIP3    H265583   1.258   6.794   3.426 -0.4565  0.9450  2.8954
14698TIP3   OH265584   5.254   6.373   0.040  0.1605  0.2187 -0.0757
14698TIP3    H165585   5.212   6.322  -0.030  1.8998  0.0060 -1.0146
14698TIP3    H265586   5.347   6.352   0.031  0.4814  0.7334  1.8894
14699TIP3   OH265587   1.913   5.219  14.124 -0.1162 -0.6045  0.3239
14699TIP3    H165588   1.942   5.129  14.137 -0.2549 -0.8745 -1.1642
14699TIP3    H265589   1.867   5.241  14.205 -0.1357 -1.8924  0.6742
14700TIP3   OH265590   1.114   4.662   0.811  0.3618 -0.2260 -0.4449
14700TIP3    H165591   1.047   4.713   0.765  1.1548  0.5548 -0.7732
14700TIP3    H265592   1.195   4.684   0.765  1.0230 -0.2111  0.7130
14701TIP3   OH265593   0.720   4.345   2.341 -0.2305  0.0194 -0.0282
14701TIP3    H165594   0.767   4.348   2.258 -1.2546  2.4881 -0.5406
14701TIP3    H265595   0.711   4.436   2.368 -0.0331 -0.7205  2.7561
14702TIP3   OH265596   2.659   1.297  12.355 -0.0407  0.3446  0.3562
14702TIP3    H165597   2.701   1.269  12.274 -0.0764 -1.6373  0.9788
14702TIP3    H265598   2.594   1.362  12.328 -0.7483 -1.0272 -1.3207
14703TIP3   OH265599   3.149   4.625  10.696  0.0269 -0.1254  0.1430
14703TIP3    H165600   3.154   4.537  10.733 -0.8501 -0.3404 -0.2437
14703TIP3    H265601   3.116   4.612  10.608  1.7482  0.4174 -0.6186
14704TIP3   OH265602   2.773   1.656  13.468 -0.4141 -0.2421  0.1574
14704TIP3    H165603   2.689   1.646  13.425  0.6706  1.2596 -2.4028
14704TIP3    H265604   2.768   1.741  13.512 -0.1178 -0.0145 -0.2504
14705TIP3   OH265605   0.800   5.837   2.185  0.4181 -0.4615 -0.3427
14705TIP3    H165606   0.800   5.795   2.099  0.3532 -1.1203 -0.0337
14705TIP3    H265607   0.890   5.827   2.216 -0.0171 -2.0353  0.5010
14706TIP3   OH265608   2.835   2.306  14.943 -0.0023  0.3126  0.3758
14706TIP3    H165609   2.750   2.350  14.945 -0.9051 -1.4413  1.2846
14706TIP3    H265610   2.898   2.374  14.967 -0.9338  2.0599 -1.8890
14707TIP3   OH265611   1.453   5.906   5.705  0.0242  0.3197  0.5376
14707TIP3    H165612   1.527   5.908   5.765 -0.3219 -0.5860  1.0027
14707TIP3    H265613   1.379   5.938   5.757 -0.3782 -0.9237  0.7539
14708TIP3   OH265614   5.223   2.774   4.197  0.6675  0.1300  0.3075
14708TIP3    H165615   5.309   2.771   4.238  0.6151 -2.2841  0.3032
14708TIP3    H265616   5.184   2.689   4.216 -1.2109  0.7080 -0.7895
14709TIP3   OH265617   2.155   1.932   5.682  0.2470  0.6162  0.3256
14709TIP3    H165618   2.164   1.958   5.773  1.3503  0.0521  0.3846
14709TIP3    H265619   2.064   1.902   5.674 -0.2546  1.9461  0.8945
14710TIP3   OH265620   5.450   5.601  11.433 -0.1595 -0.2623  0.2808
14710TIP3    H165621   5.500   5.682  11.420  0.8329 -0.5450  2.0813
14710TIP3    H265622   5.363   5.630  11.460 -0.4597  0.2159 -1.1578
14711TIP3   OH265623   2.636   5.600   2.791  0.1772  0.7476  0.3570
14711TIP3    H165624   2.604   5.682   2.827  0.1246 -0.1445  2.3793
14711TIP3    H265625   2.726   5.619   2.765  0.6895  1.0371  2.2702
14712TIP3   OH265626   2.228   0.350   2.734 -0.0655 -0.4486 -0.1331
14712TIP3    H165627   2.247   0.256   2.731  2.0394 -0.1128  1.3781
14712TIP3    H265628   2.294   0.386   2.794 -4.1071  1.2413  3.5470
14713TIP3   OH265629   5.111   4.701  11.245 -0.1265  0.9150  0.2805
14713TIP3    H165630   5.080   4.664  11.328  2.3497  0.1413  0.8968
14713TIP3    H265631   5.033   4.741  11.206 -1.5492  0.3663  2.4788
14714TIP3   OH265632   5.552   1.680  12.308 -0.5265 -0.0099 -0.3809
14714TIP3    H165633   5.559   1.774  12.321  1.2400 -0.4336  2.2136
14714TIP3    H265634   5.458   1.665  12.293 -0.7865  2.1723 -1.1045
14715TIP3   OH265635   4.479   4.394   3.973  0.1763 -0.3483  0.3699
14715TIP3    H165636   4.493   4.416   3.881  0.4101 -0.2677  0.4260
14715TIP3    H265637   4.418   4.320   3.970 -0.3992  0.1287  0.1749
14716TIP3   OH265638   3.925   3.715   3.454  0.0302 -0.3608 -0.4510
14716TIP3    H165639   4.008   3.744   3.493 -0.0099 -1.0282  0.1344
14716TIP3    H265640   3.891   3.650   3.515 -2.4307  2.1130  0.9344
14717TIP3   OH265641   3.987   2.854   0.473  0.3438  0.5596  0.3222
14717TIP3    H165642   4.016   2.767   0.501  1.5953  1.0639  0.5735
14717TIP3    H265643   3.970   2.901   0.554  0.3346  0.7899  0.1851
14718TIP3   OH265644   3.931   2.224  15.247 -0.7649  0.0619  0.5374
14718TIP3    H165645   3.972   2.200  15.164 -1.0532 -1.5188  0.8345
14718TIP3    H265646   3.992   2.286  15.287  1.4708 -2.4120  1.0856
14719TIP3   OH265647   6.127   0.594  15.088  0.0186  0.3267  0.0144
14719TIP3    H165648   6.049   0.616  15.139 -0.4650 -0.6358 -0.2986
14719TIP3    H265649   6.094   0.577  15.000  0.2736 -2.1316  0.3476
14720TIP3   OH265650   2.655   3.617   4.056 -0.0412 -0.2522 -0.3109
14720TIP3    H165651   2.636   3.538   4.107 -0.5477 -0.3828 -0.6960
14720TIP3    H265652   2.678   3.683   4.121 -3.7381  0.4939  0.3816
14721TIP3   OH265653   0.082   5.716   3.281  0.2514  0.3745  0.6249
14721TIP3    H165654   0.143   5.677   3.219  1.1150  0.7374  1.2408
14721TIP3    H265655   0.019   5.763   3.226  0.5480  0.0365 -0.0103
14722TIP3   OH265656   4.350   0.627   0.337  0.1733  0.4921  0.4153
14722TIP3    H165657   4.320   0.658   0.422 -1.6889  1.3324 -0.5248
14722TIP3    H265658   4.316   0.538   0.330 -0.1766  0.6351  0.3003
14723TIP3   OH265659   6.546   1.173   4.605 -0.2583 -0.5220  0.5581
14723TIP3    H165660   6.451   1.181   4.607 -0.2756 -0.6285  0.1189
14723TIP3    H265661   6.576   1.223   4.681 -0.6190  0.1925  0.2394
14724TIP3   OH265662   1.905   2.279   4.038 -0.0449  0.1079  0.3822
14724TIP3    H165663   1.951   2.362   4.051  1.1490 -0.3458 -0.8159
14724TIP3    H265664   1.833   2.301   3.978 -0.3244  0.4610  0.8398
14725TIP3   OH265665   3.283   1.190   5.722 -0.3593 -0.1624  0.1564
14725TIP3    H165666   3.318   1.148   5.644 -0.0434  2.5901 -1.2219
14725TIP3    H265667   3.240   1.119   5.770  1.3076 -2.2976 -1.4185
14726TIP3   OH265668   2.780   6.219  14.009  0.2700  0.4029  0.4208
14726TIP3    H165669   2.860   6.168  14.016  0.3702  0.3229 -1.1627
14726TIP3    H265670   2.792   6.291  14.071  2.2446  1.2675 -0.9201
14727TIP3   OH265671   5.110   6.640  15.009  0.1604  0.2288 -0.4001
14727TIP3    H165672   5.182   6.580  14.991  0.2396  0.3303 -0.4229
14727TIP3    H265673   5.031   6.589  14.989  0.1949 -0.1422  0.3800
14728TIP3   OH265674   2.843   5.943   1.877  0.1590 -0.2070  0.1073
14728TIP3    H165675   2.850   5.871   1.814  0.3413 -0.7171  0.6968
14728TIP3    H265676   2.760   5.927   1.922  0.1261  0.0408  0.1352
14729TIP3   OH265677   4.886   2.174   0.739 -0.4051  0.5747  0.2452
14729TIP3    H165678   4.912   2.105   0.678  0.3159 -0.9429  2.2107
14729TIP3    H265679   4.791   2.166   0.746 -0.3653  0.0460  0.1760
14730TIP3   OH265680   0.954   0.331  16.029 -0.6869 -0.9402 -1.1477
14730TIP3    H165681   0.866   0.359  16.055 -0.0964  0.7012 -0.8489
14730TIP3    H265682   0.939   0.257  15.970 -2.2988 -0.2201 -1.6812
14731TIP3   OH265683   4.898   2.151   3.305  0.1227  0.6800 -0.3522
14731TIP3    H165684   4.879   2.228   3.251  1.4996  1.2606 -0.0170
14731TIP3    H265685   4.958   2.182   3.373  0.5755 -0.6403 -0.1185
14732TIP3   OH265686   4.647   6.174   5.464 -0.3437 -0.1612 -0.0898
14732TIP3    H165687   4.552   6.169   5.448 -0.5563  0.9992  0.7149
14732TIP3    H265688   4.654   6.199   5.556  0.7677 -1.2261  0.1096
14733TIP3   OH265689   6.343   0.056  12.286 -0.1806  0.3932 -0.3508
14733TIP3    H165690   6.402   0.126  12.259  1.5623 -1.7254 -2.2364
14733TIP3    H265691   6.263   0.070  12.235  0.2254  0.9352 -0.8351
14734TIP3   OH265692   1.444   0.575  16.301 -0.1158  0.4240 -0.5881
14734TIP3    H165693   1.358   0.564  16.261  0.1326  0.4073 -1.1303
14734TIP3    H265694   1.501   0.601  16.228  0.5396 -0.5432 -0.4317
14735TIP3   OH265695   5.579   5.881   1.466  0.3056  0.3914 -0.7349
14735TIP3    H165696   5.504   5.822   1.468 -0.0581  0.8747  1.4544
14735TIP3    H265697   5.553   5.952   1.407 -0.1461 -0.4679 -1.5751
14736TIP3   OH265698   1.100   2.012  14.877 -0.0968  0.2162  0.1877
14736TIP3    H165699   1.013   2.052  14.883  0.3797  1.3543 -0.1919
14736TIP3    H265700   1.130   2.006  14.967 -0.7467 -0.5687  0.3486
14737TIP3   OH265701   0.677   0.870  15.909  0.2118  0.5015  0.4303
14737TIP3    H165702   0.611   0.811  15.946  0.0606  0.4842  0.1403
14737TIP3    H265703   0.658   0.955  15.948 -1.3256  0.9684 -1.2444
14738TIP3   OH265704   4.334   5.839   2.170 -0.2487 -0.1325 -0.4869
14738TIP3    H165705   4.396   5.769   2.148  0.9201  0.4618  0.8956
14738TIP3    H265706   4.331   5.839   2.265  0.2437  2.1449 -0.4589
14739TIP3   OH265707   2.005   0.825  13.226  0.4224 -0.6119 -0.4679
14739TIP3    H165708   2.094   0.849  13.199  1.0435 -0.4854  1.5523
14739TIP3    H265709   2.016   0.744  13.276 -0.0655  1.2100  2.7892
14740TIP3   OH265710   4.184   0.979  14.448  0.0825  0.1623 -0.7349
14740TIP3    H165711   4.216   0.972  14.358  0.5619 -2.3885 -0.3969
14740TIP3    H265712   4.130   1.058  14.448  0.9545  0.8021 -2.9787
14741TIP3   OH265713   1.536   2.581  10.917  0.2985  0.3092  0.5160
14741TIP3    H165714   1.497   2.633  10.987  1.4065  0.9446  0.6686
14741TIP3    H265715   1.493   2.496  10.923  0.8675  0.1466  2.3945
14742TIP3   OH265716   3.432   4.061   1.277  0.6337  0.0654  0.4206
14742TIP3    H165717   3.393   3.976   1.298 -2.3801  1.1471 -0.5824
14742TIP3    H265718   3.402   4.119   1.346  4.1928  0.0081  2.1496
14743TIP3   OH265719   2.538   6.402   4.257 -0.2937  0.1455 -0.0462
14743TIP3    H165720   2.619   6.449   4.280  0.2014 -0.5140 -0.4066
14743TIP3    H265721   2.542   6.322   4.310 -1.0837  0.4555  0.4886
14744TIP3   OH265722   5.520   1.239  16.938 -0.2308 -0.1893 -0.4511
14744TIP3    H165723   5.567   1.182  16.877  3.3797 -0.3672  2.3123
14744TIP3    H265724   5.578   1.314  16.949 -1.6787  0.6974  1.3007
14745TIP3   OH265725   6.092   4.163   0.982 -0.0638  0.0042 -0.6250
14745TIP3    H165726   6.161   4.219   0.946 -0.4147  0.3921 -0.6988
14745TIP3    H265727   6.010   4.205   0.956 -0.3382  0.7736  1.3367
14746TIP3   OH265728   1.882   6.652  13.778  0.1490  0.4508 -0.2459
14746TIP3    H165729   1.942   6.675  13.707  1.3105 -0.9675  0.2474
14746TIP3    H265730   1.826   6.729  13.788  1.4738  1.5614 -1.1494
14747TIP3   OH265731   0.719   1.439  11.654 -0.3080  0.0911 -0.0348
14747TIP3    H165732   0.749   1.521  11.616  0.2669  0.0140  0.2602
14747TIP3    H265733   0.742   1.372  11.589 -1.3997  0.2389 -0.5923
14748TIP3   OH265734   6.784   0.676  12.146 -0.6877  0.0850  0.5497
14748TIP3    H165735   6.721   0.603  12.147 -1.2851  0.5330 -1.7553
14748TIP3    H265736   6.763   0.725  12.067  0.9106  1.7382  1.1085
14749TIP3   OH265737   0.474   0.124   6.177 -0.1314  0.0515 -0.0905
14749TIP3    H165738   0.474   0.100   6.269 -0.8424  0.1002 -0.0747
14749TIP3    H265739   0.476   0.041   6.130 -0.5752  0.0034 -0.0295
14750TIP3   OH265740   5.374   3.665  12.914  0.1046  0.0918 -0.8033
14750TIP3    H165741   5.426   3.732  12.958  0.1116  1.1884 -2.4487
14750TIP3    H265742   5.432   3.628  12.848 -0.0270 -1.2776 -0.1673
14751TIP3   OH265743   6.037   5.286   1.065  0.4303 -0.1558  0.1568
14751TIP3    H165744   6.006   5.362   1.114  1.4149  0.1265  0.3632
14751TIP3    H265745   5.958   5.242   1.035 -0.1507  1.3889 -0.6366
14752TIP3   OH265746   2.557   0.229  16.202 -0.0663 -0.0968  0.3164
14752TIP3    H165747   2.603   0.309  16.229 -1.2788  0.4471  0.7868
14752TIP3    H265748   2.468   0.241  16.234 -0.4270 -1.3413 -0.2187
14753TIP3   OH265749   5.192   0.611  11.942  0.1273  0.2840 -0.1209
14753TIP3    H165750   5.200   0.556  11.864 -1.1055 -0.8672  0.5620
14753TIP3    H265751   5.105   0.592  11.977 -0.4401  2.8826 -0.0319
14754TIP3   OH265752   0.881   5.104   0.811 -0.0311 -0.0557 -0.6842
14754TIP3    H165753   0.872   5.036   0.745 -0.4573  0.6551 -1.3681
14754TIP3    H265754   0.793   5.142   0.819  0.9223  2.8331 -2.9272
14755TIP3   OH265755   5.924   1.968   3.076  0.3305 -0.2056  0.4416
14755TIP3    H165756   5.838   1.987   3.113  1.5427  2.2057  2.1820
14755TIP3    H265757   5.954   1.890   3.122 -0.3755 -0.2842  0.7605
14756TIP3   OH265758   4.388   4.442  10.838 -0.3924  0.2419  0.1256
14756TIP3    H165759   4.292   4.446  10.831 -0.2241  0.0271 -3.0673
14756TIP3    H265760   4.416   4.532  10.824 -0.1650  0.6265  2.8056
14757TIP3   OH265761   3.066   1.930   2.593  0.8377  0.1316 -0.3258
14757TIP3    H165762   3.064   1.916   2.498  0.9527 -0.9873 -0.1668
14757TIP3    H265763   3.156   1.959   2.611  0.9662 -0.1463 -0.5024
14758TIP3   OH265764   2.143   4.738  15.290 -0.0174 -0.2244 -0.0646
14758TIP3    H165765   2.123   4.823  15.250  1.8017  0.5951  0.6735
14758TIP3    H265766   2.132   4.753  15.384 -1.6816 -1.3976 -0.0490
14759TIP3   OH265767   6.491   6.188   1.724  0.4198  0.2366  0.5602
14759TIP3    H165768   6.506   6.156   1.635  0.2496  1.4717  0.0700
14759TIP3    H265769   6.559   6.146   1.777  0.2762 -0.8148 -0.0732
14760TIP3   OH265770   1.771   4.203  11.548 -0.3906  0.1107 -0.5621
14760TIP3    H165771   1.727   4.276  11.592 -2.0460 -1.5025  0.5410
14760TIP3    H265772   1.801   4.239  11.465 -2.1167  1.7535 -0.4929
14761TIP3   OH265773   3.536   5.232   5.014  0.9007  0.0070  0.1312
14761TIP3    H165774   3.523   5.274   5.099  0.0532  0.6900 -0.3273
14761TIP3    H265775   3.551   5.306   4.954 -2.4232 -0.1839 -1.0382
14762TIP3   OH265776   3.292   6.034   4.506 -0.2276  0.2490  0.0096
14762TIP3    H165777   3.369   5.992   4.543  0.1007  0.3462 -0.5577
14762TIP3    H265778   3.219   5.979   4.534 -0.0576  0.6957  1.3652
14763TIP3   OH265779   4.242   0.991   2.601 -0.4067 -0.3071 -0.3159
14763TIP3    H165780   4.246   0.936   2.679  0.3828  0.9596  0.5595
14763TIP3    H265781   4.181   1.061   2.625  1.2403  1.1148 -0.1232
14764TIP3   OH265782   6.641   5.380   0.539  0.3566 -0.6315  0.3431
14764TIP3    H165783   6.648   5.459   0.486  0.4172 -1.5074 -0.9643
14764TIP3    H265784   6.708   5.390   0.606  0.4483  0.3593  0.1079
14765TIP3   OH265785   6.081   5.678  12.287 -0.3001  0.2336  0.4234
14765TIP3    H165786   6.141   5.751  12.305  0.7253 -0.6592  0.7060
14765TIP3    H265787   6.043   5.699  12.202  1.0109  0.4464 -0.1282
14766TIP3   OH265788   3.820   5.164   1.498 -0.1680  0.3045  0.2646
14766TIP3    H165789   3.832   5.144   1.590 -2.5485 -1.7054  0.1783
14766TIP3    H265790   3.908   5.159   1.460  0.5452 -0.8766  2.0312
14767TIP3   OH265791   1.241   3.484   5.292  0.1619  0.2653  0.5163
14767TIP3    H165792   1.187   3.554   5.255  2.0321  2.0342  1.0320
14767TIP3    H265793   1.310   3.470   5.228  0.1871 -0.6335  0.7337
14768TIP3   OH265794   1.012   3.478  16.792  0.3038 -0.5032 -0.1009
14768TIP3    H165795   1.062   3.502  16.714 -0.2985 -0.5071 -0.4931
14768TIP3    H265796   1.047   3.534  16.861 -1.3877  1.9041 -1.0945
14769TIP3   OH265797   4.098   3.133   0.051 -0.2002  0.4435 -0.0034
14769TIP3    H165798   4.050   3.210   0.023  0.1076  1.0257  1.0362
14769TIP3    H265799   4.185   3.166   0.074 -0.1134 -0.1767  0.5984
14770TIP3   OH265800   3.015   2.697  10.656 -0.5092 -0.0651  0.0736
14770TIP3    H165801   2.967   2.774  10.686 -1.4816 -1.1479  1.3461
14770TIP3    H265802   2.978   2.624  10.706  2.9411 -0.8572  1.6700
14771TIP3   OH265803   1.317   4.462   1.592  0.5708  0.0727 -0.6196
14771TIP3    H165804   1.304   4.467   1.687  2.8421  0.3708 -0.3074
14771TIP3    H265805   1.389   4.522   1.574 -0.2021  0.4436 -2.6259
14772TIP3   OH265806   4.407   3.975   0.732  0.6036 -0.3075  0.0703
14772TIP3    H165807   4.382   3.927   0.653  0.3906  0.8415 -0.5797
14772TIP3    H265808   4.429   4.063   0.700  0.4666  0.1754  1.2934
14773TIP3   OH265809   4.516   6.470  12.610  0.2806 -0.8136  0.2557
14773TIP3    H165810   4.464   6.392  12.626  1.3641 -1.4799  0.5932
14773TIP3    H265811   4.562   6.485  12.693 -0.7333  0.8137  0.5463
14774TIP3   OH265812   5.279   6.660  15.535  0.2355  0.3547 -0.1469
14774TIP3    H165813   5.225   6.640  15.458  1.1660 -2.9922  0.0076
14774TIP3    H265814   5.369   6.653  15.503  0.6355  2.3839  0.4619
14775TIP3   OH265815   4.834   1.489  11.710 -0.2838  0.0192 -0.6218
14775TIP3    H165816   4.744   1.469  11.682 -0.2441  0.7499 -1.2974
14775TIP3    H265817   4.888   1.428  11.661 -0.2444  1.0557 -1.9164
14776TIP3   OH265818   1.785   2.270   2.137  0.5405  0.4951  0.0458
14776TIP3    H165819   1.861   2.327   2.121  0.9673  0.2244  1.0457
14776TIP3    H265820   1.754   2.246   2.050  1.0426  1.3528 -0.3807
14777TIP3   OH265821   5.113   1.447   5.992  0.1369  0.0652 -0.2277
14777TIP3    H165822   5.040   1.505   5.969  1.2891  2.4009  1.6913
14777TIP3    H265823   5.084   1.403   6.071  0.7307  0.9073  0.4689
14778TIP3   OH265824   2.920   2.596  16.703  0.0597  0.3994  0.2595
14778TIP3    H165825   2.941   2.538  16.776  0.1866  0.7135  0.4755
14778TIP3    H265826   2.832   2.629  16.722 -0.6166 -0.8653 -0.6201
14779TIP3   OH265827   2.919   1.840  12.011 -0.1903  0.3121  0.3478
14779TIP3    H165828   2.971   1.913  12.045 -1.1537  0.6247  1.1965
14779TIP3    H265829   2.834   1.879  11.989  0.6656  0.2624 -3.2246
14780TIP3   OH265830   0.461   5.425   4.137  0.2272 -0.3527  0.3935
14780TIP3    H165831   0.437   5.437   4.045 -1.1498  0.8542  0.9007
14780TIP3    H265832   0.557   5.432   4.137  0.2668 -0.6673 -0.9833
14781TIP3   OH265833   1.851   6.398   4.942  0.5553  0.5426  0.0098
14781TIP3    H165834   1.821   6.399   5.032  0.5745 -0.3309  0.0339
14781TIP3    H265835   1.807   6.472   4.900  0.2542  0.7170  0.6382
14782TIP3   OH265836   4.874   5.399   2.484 -0.3586  0.2616 -0.3721
14782TIP3    H165837   4.853   5.453   2.409 -1.4425 -1.7208 -1.5497
14782TIP3    H265838   4.789   5.365   2.514  0.3707 -1.6135 -0.3311
14783TIP3   OH265839   4.876   5.370   5.490  0.6006 -0.1769  0.0847
14783TIP3    H165840   4.936   5.378   5.564  0.7074 -1.0189  0.0941
14783TIP3    H265841   4.807   5.312   5.521  1.1500 -1.3286 -0.7888
14784TIP3   OH265842   4.481   4.253  12.965 -0.1144 -0.1229 -1.0406
14784TIP3    H165843   4.500   4.335  12.919 -0.9572 -0.4846 -2.0529
14784TIP3    H265844   4.393   4.266  13.001 -0.0003 -0.3498 -0.6746
14785TIP3   OH265845   0.805   3.063   0.735 -0.2595  0.1700  0.5087
14785TIP3    H165846   0.776   2.982   0.776 -1.1849 -0.2403 -0.9297
14785TIP3    H265847   0.895   3.046   0.706 -1.0056 -0.9179 -1.2532
14786TIP3   OH265848   1.690   4.090   3.908 -0.1126 -0.2543 -0.3175
14786TIP3    H165849   1.742   4.165   3.881 -2.2768  1.3814 -0.1583
14786TIP3    H265850   1.653   4.117   3.993  0.1452 -2.0479  0.3789
14787TIP3   OH265851   4.485   2.178  14.747 -0.3245  0.0509 -0.1749
14787TIP3    H165852   4.574   2.163  14.717  0.0820  0.7798  0.6709
14787TIP3    H265853   4.432   2.117  14.695  0.8071 -1.2742  0.2080
14788TIP3   OH265854   3.771   4.185  12.182  0.3894 -0.2772  0.6252
14788TIP3    H165855   3.750   4.240  12.107  2.6282 -0.6139 -0.2817
14788TIP3    H265856   3.824   4.241  12.239  1.0471 -0.8877  0.6171
14789TIP3   OH265857   3.862   5.034  15.059  0.4997 -0.2621 -0.2351
14789TIP3    H165858   3.853   5.125  15.087  0.2485 -0.2464 -0.3638
14789TIP3    H265859   3.772   5.005  15.043  0.6755 -0.0192 -1.8093
14790TIP3   OH265860   6.750   6.455   2.434  0.2658  0.7944  0.3256
14790TIP3    H165861   6.655   6.442   2.442  0.3514  0.5222  0.9637
14790TIP3    H265862   6.768   6.532   2.488  0.2890  1.3460 -0.4710
14791TIP3   OH265863   1.103   0.670  12.262 -0.1790 -0.5420 -0.3941
14791TIP3    H165864   1.118   0.763  12.245  0.4322 -0.8024 -1.2928
14791TIP3    H265865   1.097   0.630  12.175 -0.2587 -1.3748 -0.0103
14792TIP3   OH265866   3.238   2.534   2.980 -0.5905  0.6758 -0.4978
14792TIP3    H165867   3.229   2.460   2.919 -0.3380  1.4778 -1.5310
14792TIP3    H265868   3.297   2.594   2.935 -1.0081  1.6275  0.2144
14793TIP3   OH265869   5.388   5.043  13.926 -0.0237 -0.4058 -0.2158
14793TIP3    H165870   5.450   5.108  13.958  1.3383 -1.5736 -0.4563
14793TIP3    H265871   5.400   4.968  13.984 -0.7917 -0.8592 -0.6378
14794TIP3   OH265872   1.343   2.123   4.695  0.2938 -0.1398 -0.3532
14794TIP3    H165873   1.400   2.052   4.668 -0.0201 -1.2035  1.6672
14794TIP3    H265874   1.257   2.083   4.707 -0.4543  1.0692 -1.5364
14795TIP3   OH265875   1.970   6.329   0.379 -0.2231 -0.0494  0.3785
14795TIP3    H165876   2.016   6.248   0.361 -0.8427 -0.4789  0.7326
14795TIP3    H265877   1.919   6.346   0.300 -0.0213  0.0438  0.2687
14796TIP3   OH265878   1.878   0.593  12.820  0.0308  0.6377  0.3461
14796TIP3    H165879   1.837   0.507  12.811 -0.8995  0.9765  1.2720
14796TIP3    H265880   1.856   0.638  12.739  2.6257 -0.8390 -1.2633
14797TIP3   OH265881   2.079   4.295   2.763  0.4899 -0.6173 -0.3308
14797TIP3    H165882   2.100   4.382   2.729 -2.0564  0.3935  0.6269
14797TIP3    H265883   2.119   4.235   2.699  0.4973  1.2304 -2.1269
14798TIP3   OH265884   5.298   3.807   2.900  0.0551  0.4102  0.2522
14798TIP3    H165885   5.277   3.875   2.836 -4.1676 -0.9368  0.0503
14798TIP3    H265886   5.272   3.843   2.984 -0.5273 -0.2834  0.3707
14799TIP3   OH265887   3.331   1.309   2.320  0.1081  0.0231 -0.2540
14799TIP3    H165888   3.394   1.241   2.296  1.1543  1.0976 -0.5986
14799TIP3    H265889   3.320   1.299   2.415 -0.2951 -1.0732 -0.4068
14800TIP3   OH265890   0.995   5.564  14.349  0.7418 -0.5650  0.4320
14800TIP3    H165891   0.951   5.555  14.434  1.3557  0.4350  0.8611
14800TIP3    H265892   1.083   5.528  14.364  0.8600 -0.3628  0.2296
14801TIP3   OH265893   3.391   3.514   0.003  0.3521 -0.6356  0.8700
14801TIP3    H165894   3.361   3.438   0.053  1.5074 -1.4565  0.3447
14801TIP3    H265895   3.400   3.482  -0.087  0.3364  0.2624  0.5423
14802TIP3   OH265896   0.666   1.893   4.730  0.2972 -0.3391 -0.3065
14802TIP3    H165897   0.682   1.976   4.775  1.1850 -0.7198  0.0939
14802TIP3    H265898   0.684   1.826   4.796 -3.1853 -0.8156  0.2286
14803TIP3   OH265899   2.713   1.621  13.085 -0.6463 -0.1409  0.6308
14803TIP3    H165900   2.665   1.544  13.114 -1.2910 -0.0521 -0.1999
14803TIP3    H265901   2.656   1.695  13.107 -0.6443  0.0025  0.1581
14804TIP3   OH265902   2.496   1.641  11.799 -0.0692  0.5291  0.3532
14804TIP3    H165903   2.465   1.729  11.818 -2.5936 -0.0159 -1.0348
14804TIP3    H265904   2.481   1.629  11.706 -1.3309 -1.9221  0.8187
14805TIP3   OH265905   3.340   3.922  12.460 -0.1390 -0.0862  0.0256
14805TIP3    H165906   3.421   3.969  12.482 -0.4370 -0.1342  1.3009
14805TIP3    H265907   3.273   3.965  12.513 -1.0188  0.1573 -1.2649
14806TIP3   OH265908   3.143   0.329   2.952 -0.5008 -0.9971  0.8046
14806TIP3    H165909   3.156   0.398   2.886 -0.2428 -0.1979  1.6828
14806TIP3    H265910   3.089   0.371   3.019 -0.5690 -1.7399  1.2087
14807TIP3   OH265911   0.486   0.897  13.191  0.5841 -0.7489 -0.1216
14807TIP3    H165912   0.430   0.967  13.225  1.5662 -0.2598  0.5155
14807TIP3    H265913   0.572   0.914  13.231  0.8351 -2.2864  0.0071
14808TIP3   OH265914   4.682   6.767  12.258 -0.3428  0.0420 -0.3950
14808TIP3    H165915   4.692   6.685  12.210 -2.7237 -0.5915  0.1249
14808TIP3    H265916   4.756   6.768  12.319  0.0268 -1.4376 -0.8029
14809TIP3   OH265917   6.414   4.657   0.745  0.5046 -0.4100 -0.4799
14809TIP3    H165918   6.375   4.744   0.734  0.6085 -0.1878  0.8165
14809TIP3    H265919   6.389   4.631   0.834  0.3125 -1.7907 -0.9374
14810TIP3   OH265920   6.223   6.046   2.841  0.4828 -0.3215 -0.1418
14810TIP3    H165921   6.155   6.107   2.869  2.5868  2.2581 -0.5306
14810TIP3    H265922   6.185   5.959   2.858 -2.6332  1.0352  0.2410
14811TIP3   OH265923   6.494   3.235   1.198  0.1400  0.1280 -0.3453
14811TIP3    H165924   6.422   3.234   1.261 -0.5477 -1.1560 -1.1354
14811TIP3    H265925   6.570   3.262   1.249 -0.5489 -0.2354  0.8919
14812TIP3   OH265926   4.522   5.786  12.844  0.0710 -0.4054  0.3553
14812TIP3    H165927   4.435   5.747  12.832  0.1927 -1.2730  1.9980
14812TIP3    H265928   4.522   5.864  12.790 -1.8856 -0.1954  0.6314
14813TIP3   OH265929   5.480   3.691   1.806  0.4110  0.2447  0.1618
14813TIP3    H165930   5.415   3.749   1.846  0.3913  0.4143 -0.1146
14813TIP3    H265931   5.463   3.697   1.712 -0.2487 -0.9876  0.1962
14814TIP3   OH265932   6.051   2.664  17.106 -0.6029  0.2669 -0.0299
14814TIP3    H165933   5.976   2.722  17.116 -0.8129  0.1762 -1.0376
14814TIP3    H265934   6.043   2.629  17.018  0.7206  0.4046 -0.2218
14815TIP3   OH265935   2.703   3.886  11.513 -0.5593 -0.4658 -0.0305
14815TIP3    H165936   2.627   3.907  11.569 -0.5372 -1.0636  0.2238
14815TIP3    H265937   2.664   3.862  11.429 -0.5725  0.8946 -0.4225
14816TIP3   OH265938   6.794   3.792   1.121 -0.2871  0.3856  0.3578
14816TIP3    H165939   6.835   3.827   1.042 -1.7782 -0.5388 -0.8565
14816TIP3    H265940   6.773   3.701   1.098 -2.0497  0.5382  1.3181
14817TIP3   OH265941   3.275   2.287  15.309 -0.0950  0.2276 -0.5253
14817TIP3    H165942   3.233   2.271  15.394 -0.7818  0.4072 -0.8250
14817TIP3    H265943   3.347   2.224  15.306 -0.9872 -0.8212 -0.4493
14818TIP3   OH265944   4.605   3.693  16.938 -0.0859  0.3413 -0.1432
14818TIP3    H165945   4.621   3.667  16.847 -0.3556  1.0236 -0.3907
14818TIP3    H265946   4.622   3.788  16.939  1.5108  0.0601  0.8921
14819TIP3   OH265947   3.162   4.843   4.602  0.0807 -0.4500  0.2432
14819TIP3    H165948   3.100   4.832   4.674 -0.8623 -0.7317 -0.5949
14819TIP3    H265949   3.107   4.844   4.523  1.0915 -0.1191 -0.4669
14820TIP3   OH265950   1.402   1.916  12.262 -0.0936 -0.1946  0.2457
14820TIP3    H165951   1.397   1.905  12.357 -2.7036  1.2304  0.3184
14820TIP3    H265952   1.495   1.927  12.244  0.4177 -0.2926  2.6755
14821TIP3   OH265953   2.078   5.544  15.359 -0.4996  0.2746 -0.1926
14821TIP3    H165954   2.024   5.532  15.281  0.6663 -2.1598 -0.6515
14821TIP3    H265955   2.015   5.558  15.430 -1.6418 -0.0083 -1.1354
14822TIP3   OH265956   1.770   3.699   0.965  0.3313  0.1535  0.4979
14822TIP3    H165957   1.811   3.786   0.960  1.0943 -0.1603  1.0547
14822TIP3    H265958   1.836   3.640   0.927 -0.9244  0.0343 -1.5949
14823TIP3   OH265959   0.376   3.902   2.695  0.0181  0.1202  0.1060
14823TIP3    H165960   0.388   3.955   2.617  2.6648  0.5044  0.7355
14823TIP3    H265961   0.354   3.965   2.764 -3.2571 -0.3014 -0.4309
14824TIP3   OH265962   0.298   2.360   3.452  0.0895  0.4149  0.4601
14824TIP3    H165963   0.298   2.276   3.407  1.3585  1.5505 -1.7543
14824TIP3    H265964   0.209   2.369   3.486 -0.7293 -0.7513 -1.3170
14825TIP3   OH265965   5.824   6.333  13.315  0.3170  0.0064  0.3309
14825TIP3    H165966   5.915   6.305  13.324  0.6557  1.3482  1.1442
14825TIP3    H265967   5.830   6.425  13.290 -0.8274  0.2350  0.8826
14826TIP3   OH265968   0.720   4.998   2.859  0.2974  0.6724 -0.5749
14826TIP3    H165969   0.640   5.051   2.865 -1.1035 -1.4219 -0.5119
14826TIP3    H265970   0.785   5.049   2.908 -1.8025  0.9232  2.0896
14827TIP3   OH265971   3.804   6.445  10.440 -0.1507 -0.3821 -0.5390
14827TIP3    H165972   3.811   6.356  10.475 -1.3104 -0.1527  0.3289
14827TIP3    H265973   3.822   6.502  10.516 -1.8490  0.1206 -0.4839
14828TIP3   OH265974   6.765   2.684  13.318  0.6286 -0.2331  0.6106
14828TIP3    H165975   6.851   2.670  13.359  0.4637  0.9390  1.3923
14828TIP3    H265976   6.703   2.663  13.388  0.2938 -0.5617  0.2097
14829TIP3   OH265977   1.630   5.627   0.138  0.7960  0.5996  0.1784
14829TIP3    H165978   1.593   5.691   0.077 -0.0055 -0.3959 -0.3935
14829TIP3    H265979   1.679   5.680   0.201  1.5967  1.6421 -1.2940
14830TIP3   OH265980   2.769   5.399  11.115  0.5701  0.0081 -0.3614
14830TIP3    H165981   2.708   5.344  11.164  0.5650  0.1136 -0.2506
14830TIP3    H265982   2.811   5.338  11.053 -0.3537  0.1216 -1.1155
14831TIP3   OH265983   3.583   2.898   2.575 -0.5073  0.1754  0.6633
14831TIP3    H165984   3.677   2.880   2.573 -0.5761 -0.2783  1.3374
14831TIP3    H265985   3.574   2.969   2.639 -0.3053  2.2798 -1.5353
14832TIP3   OH265986   5.127   6.386   1.280 -0.1285 -0.0996 -0.2845
14832TIP3    H165987   5.173   6.309   1.314 -0.3626 -0.1852 -0.1530
14832TIP3    H265988   5.041   6.352   1.253 -0.0732  0.0347 -0.6351
14833TIP3   OH265989   0.531   6.626   0.841 -0.3261  0.3951  0.1372
14833TIP3    H165990   0.620   6.660   0.852 -0.6167  1.6572 -1.3431
14833TIP3    H265991   0.541   6.552   0.781 -0.4529  1.4314 -1.1792
14834TIP3   OH265992   1.220   4.171   1.424 -0.3972 -0.2544  0.6021
14834TIP3    H165993   1.195   4.226   1.499 -3.3889 -0.3356 -0.2552
14834TIP3    H265994   1.222   4.082   1.460 -0.9247 -0.1855  0.8121
14835TIP3   OH265995   1.540   0.434   4.947 -0.2511 -0.0726 -0.2389
14835TIP3    H165996   1.610   0.425   5.013 -1.0305 -0.6063  0.5291
14835TIP3    H265997   1.581   0.481   4.875  0.4526  1.0714  0.8928
14836TIP3   OH265998   0.371   6.727  16.522  0.0627  0.0314  0.1329
14836TIP3    H165999   0.461   6.697  16.518 -0.3052 -0.9787 -0.8628
14836TIP3    H266000   0.376   6.812  16.565  1.3763 -0.4329  0.9168
14837TIP3   OH266001   1.036   3.402   6.186  0.0207 -0.0475 -0.0351
14837TIP3    H166002   0.991   3.484   6.205 -0.3750 -0.5740  1.3469
14837TIP3    H266003   1.077   3.377   6.268  0.3222 -1.1252 -0.4984
14838TIP3   OH266004   0.315   0.430  12.473 -0.3309  0.0284 -0.0334
14838TIP3    H166005   0.302   0.388  12.388  0.6850 -0.0911 -0.1377
14838TIP3    H266006   0.260   0.381  12.533  0.4299 -1.1187 -0.2609
14839TIP3   OH266007   3.134   3.796   2.330 -0.4190  0.1264  0.4116
14839TIP3    H166008   3.040   3.804   2.313 -0.5378 -2.1026 -0.1465
14839TIP3    H266009   3.141   3.789   2.425 -0.8549  0.0708  0.4412
14840TIP3   OH266010   4.753   3.818  16.273 -0.1300 -0.2862 -0.8524
14840TIP3    H166011   4.743   3.848  16.363 -0.6119  0.6175 -1.2057
14840TIP3    H266012   4.819   3.876  16.235  1.0048 -1.4648 -0.7204
14841TIP3   OH266013   4.148   5.173   0.802  0.3409  0.2078  0.1244
14841TIP3    H166014   4.152   5.135   0.890 -0.1307  0.6650  0.3551
14841TIP3    H266015   4.088   5.247   0.812  0.1484  0.1547 -0.6257
14842TIP3   OH266016   5.480   3.818  14.404 -0.1223  0.5548 -0.0742
14842TIP3    H166017   5.510   3.849  14.319  0.4714  0.0952 -0.0375
14842TIP3    H266018   5.401   3.768  14.385  0.0005  0.4678 -0.3513
14843TIP3   OH266019   3.121   1.961  11.580  0.0184  0.2339  0.3430
14843TIP3    H166020   3.055   2.017  11.620  0.0163  0.9761 -0.6849
14843TIP3    H266021   3.140   1.895  11.647 -1.4106  0.2876  0.8247
14844TIP3   OH266022   0.129   6.626  13.642 -0.6241 -0.5976  0.5296
14844TIP3    H166023   0.057   6.665  13.593 -0.6824 -1.1247  0.1961
14844TIP3    H266024   0.203   6.686  13.627 -0.9784 -0.0721  0.8491
14845TIP3   OH266025   4.656   1.678   3.200  0.1349  0.5280 -0.7527
14845TIP3    H166026   4.710   1.711   3.128  0.0528  0.1547 -0.9942
14845TIP3    H266027   4.687   1.588   3.214  0.6616  0.8560  0.1983
14846TIP3   OH266028   5.448   0.366  13.528  0.4137 -0.4590  0.3112
14846TIP3    H166029   5.530   0.383  13.481 -0.9529 -0.7336 -2.2267
14846TIP3    H266030   5.442   0.437  13.591  2.2171  0.0137 -0.0108
14847TIP3   OH266031   2.829   0.535   3.493 -0.9696 -0.3469 -0.0998
14847TIP3    H166032   2.761   0.584   3.447 -0.7457 -0.8929 -1.0120
14847TIP3    H266033   2.825   0.568   3.583 -4.0689 -2.0361  0.4864
14848TIP3   OH266034   1.801   3.136  15.908 -0.3438 -0.4237 -0.6924
14848TIP3    H166035   1.856   3.112  15.833 -0.4935  1.0561 -1.3020
14848TIP3    H266036   1.711   3.132  15.874 -0.4491 -0.3490 -0.4233
14849TIP3   OH266037   2.209   1.051  12.308  0.0565  0.5474  0.7702
14849TIP3    H166038   2.188   0.997  12.232 -1.9363  0.8807  1.0474
14849TIP3    H266039   2.284   1.104  12.280  1.6748 -1.9242  0.3250
14850TIP3   OH266040   4.150   2.370  15.395 -0.3411  0.2257 -0.0858
14850TIP3    H166041   4.159   2.462  15.371  2.7029 -0.0056 -0.0172
14850TIP3    H266042   4.081   2.369  15.461  0.9903  2.7577  1.4216
14851TIP3   OH266043   3.586   6.741   3.229 -0.3232 -0.5363  0.4963
14851TIP3    H166044   3.681   6.740   3.213 -0.2460 -1.3442  0.9858
14851TIP3    H266045   3.575   6.806   3.299 -0.0861 -0.7436  0.7270
14852TIP3   OH266046   0.584   5.257  17.157  0.2055  0.2060  0.0462
14852TIP3    H166047   0.508   5.268  17.100  1.0329  0.3936 -1.0331
14852TIP3    H266048   0.548   5.224  17.239 -1.2165  1.7727  0.0747
14853TIP3   OH266049   0.067   5.168  15.931  0.3968  0.7459 -0.1086
14853TIP3    H166050   0.040   5.215  16.010 -0.1033  0.1646  0.0736
14853TIP3    H266051   0.121   5.096  15.964 -0.3825  0.1010 -0.2512
14854TIP3   OH266052   5.411   3.084  11.391  0.8376  0.6452 -0.0035
14854TIP3    H166053   5.394   3.046  11.305 -2.2171  0.2374  0.7308
14854TIP3    H266054   5.344   3.151  11.402  1.3304  0.8605  1.9715
14855TIP3   OH266055   5.226   2.548  12.233  0.5004  0.2928 -0.1921
14855TIP3    H166056   5.199   2.626  12.184 -0.0544  0.2715  0.0828
14855TIP3    H266057   5.237   2.480  12.166  0.2752  0.4106 -0.3486
14856TIP3   OH266058   5.318   4.195  14.655 -0.0662  0.1842  0.2248
14856TIP3    H166059   5.293   4.285  14.635 -2.0714 -0.2944  0.4903
14856TIP3    H266060   5.243   4.159  14.702  0.0662 -2.0791 -1.2134
14857TIP3   OH266061   5.996   1.787   5.400  0.1898  0.1194  0.2522
14857TIP3    H166062   6.067   1.724   5.385  0.0908 -0.1443  0.8622
14857TIP3    H266063   6.005   1.811   5.493 -0.4384  0.1773  0.2997
14858TIP3   OH266064   5.831   1.184  12.095 -0.2117 -0.7020 -0.2050
14858TIP3    H166065   5.917   1.197  12.056 -0.6056 -0.8268 -1.1211
14858TIP3    H266066   5.775   1.158  12.022 -0.7311 -1.9318  0.6043
14859TIP3   OH266067   1.384   4.301   4.172  0.7022  0.4750 -0.4038
14859TIP3    H166068   1.334   4.362   4.226 -0.8889 -1.1516  0.0113
14859TIP3    H266069   1.402   4.350   4.091  3.5917  3.1263  1.7180
14860TIP3   OH266070   5.258   1.521   3.112 -0.1364  0.0094  0.3412
14860TIP3    H166071   5.253   1.498   3.205 -0.3854  0.8273  0.5328
14860TIP3    H266072   5.176   1.567   3.094 -1.4887 -2.7996 -1.0243
14861TIP3   OH266073   0.347   1.947   1.343 -0.7660 -0.1622  0.1111
14861TIP3    H166074   0.258   1.982   1.333 -0.6347  0.3962  0.8823
14861TIP3    H266075   0.367   1.909   1.257 -2.4321 -1.9277  0.4691
14862TIP3   OH266076   1.723   4.118  15.859 -0.2850 -0.2635  0.1979
14862TIP3    H166077   1.743   4.152  15.946  1.0686  0.1621 -0.2546
14862TIP3    H266078   1.644   4.065  15.870 -0.6838  0.5934  1.4880
14863TIP3   OH266079   5.722   2.629   1.846 -0.1050  0.3805  0.8697
14863TIP3    H166080   5.790   2.689   1.817  0.4221 -0.0693  1.1744
14863TIP3    H266081   5.712   2.646   1.940 -1.9492  1.9748  0.4196
14864TIP3   OH266082   1.475   0.812  13.358 -0.1354  0.3568 -0.0714
14864TIP3    H166083   1.398   0.781  13.310 -0.2465  1.4726 -0.6202
14864TIP3    H266084   1.474   0.761  13.440 -1.0903 -0.0906 -0.3557
14865TIP3   OH266085   1.336   4.135  14.700 -0.3072 -0.0840 -0.0514
14865TIP3    H166086   1.310   4.212  14.751 -0.0332  1.7831 -2.6452
14865TIP3    H266087   1.430   4.128  14.714 -0.7988 -2.0708  2.9094
14866TIP3   OH266088   0.945   4.808   4.162 -0.1528  0.5577 -0.2689
14866TIP3    H166089   0.884   4.870   4.122  0.6960  2.7608  1.7108
14866TIP3    H266090   0.889   4.747   4.209 -0.9565  0.7561 -0.9513
14867TIP3   OH266091   3.391   3.039  16.913 -0.1325  0.2363  0.4165
14867TIP3    H166092   3.393   3.127  16.950 -1.7171 -0.2029  1.6155
14867TIP3    H266093   3.373   2.982  16.988  1.0418 -1.1242 -0.3118
14868TIP3   OH266094   0.610   2.756   1.087 -0.1999 -0.0957  0.3992
14868TIP3    H166095   0.611   2.808   1.168 -0.2186  0.7089 -0.1058
14868TIP3    H266096   0.541   2.692   1.100 -0.8023  0.5998  0.6863
14869TIP3   OH266097   2.045   0.520  13.286  0.4018 -0.1083 -0.3736
14869TIP3    H166098   1.980   0.454  13.261 -0.1753  0.4876 -0.4447
14869TIP3    H266099   2.124   0.496  13.237  0.8325 -1.9503  1.1351
14870TIP3   OH266100   5.044   6.653   0.584 -0.0252 -0.0429 -0.3596
14870TIP3    H166101   4.999   6.728   0.546 -0.3801 -0.2648 -0.3719
14870TIP3    H266102   4.975   6.600   0.623  0.1390 -0.7756 -1.0503
14871TIP3   OH266103   2.603   5.239  14.993  0.2912  0.2967  0.0256
14871TIP3    H166104   2.694   5.268  14.988  0.4306 -0.4879 -2.7598
14871TIP3    H266105   2.602   5.154  14.949 -2.0160  0.9296 -1.2184
14872TIP3   OH266106   0.055   0.737  11.223  0.5621  0.0427  0.3517
14872TIP3    H166107   0.025   0.660  11.174  0.8671  1.3816 -2.0409
14872TIP3    H266108  -0.018   0.758  11.281 -0.4264 -0.7411 -0.5724
14873TIP3   OH266109   1.859   1.894  14.424  0.2458  0.0029 -0.1200
14873TIP3    H166110   1.826   1.839  14.495  0.9704  0.6532  0.7360
14873TIP3    H266111   1.906   1.833  14.366  1.5338 -0.2263  1.1142
14874TIP3   OH266112   1.233   3.107   4.489 -0.1094  0.1159  0.4791
14874TIP3    H166113   1.295   3.051   4.443 -1.2000  0.3891 -1.3995
14874TIP3    H266114   1.150   3.061   4.483 -1.4008  2.6184 -2.6179
14875TIP3   OH266115   2.199   4.112   3.969  0.5981  0.2925 -0.2556
14875TIP3    H166116   2.118   4.119   3.917  0.3177  1.0653  0.2872
14875TIP3    H266117   2.237   4.029   3.941 -0.9512 -0.6320  0.2722
14876TIP3   OH266118   5.638   5.186   4.814 -0.8814 -0.0345  0.6309
14876TIP3    H166119   5.663   5.183   4.722 -1.2828 -2.7259  0.5868
14876TIP3    H266120   5.581   5.263   4.820  0.8841  1.4244 -0.8953
14877TIP3   OH266121   0.214   4.753   1.471 -0.3269 -0.1608 -0.0464
14877TIP3    H166122   0.136   4.800   1.500  0.2047  0.2941  0.6742
14877TIP3    H266123   0.184   4.664   1.451 -1.3938  0.5288 -1.6581
14878TIP3   OH266124   6.567   1.058  16.507 -0.3789 -0.2137 -0.2261
14878TIP3    H166125   6.568   1.014  16.591  1.2595 -2.0293 -1.1460
14878TIP3    H266126   6.501   1.012  16.455 -1.0207  0.5685 -0.1199
14879TIP3   OH266127   6.557   3.123   1.950  0.4108  0.1740 -0.3817
14879TIP3    H166128   6.632   3.167   1.991 -0.4074 -0.8318  2.2916
14879TIP3    H266129   6.516   3.191   1.896  2.3055  1.1727 -0.5941
14880TIP3   OH266130   3.572   4.376   1.562 -0.4251 -0.8942 -0.2341
14880TIP3    H166131   3.613   4.292   1.584 -1.0427 -1.4255 -1.1226
14880TIP3    H266132   3.566   4.377   1.467 -0.8975 -0.0645 -0.2072
14881TIP3   OH266133   2.837   6.638   1.720 -0.2267 -0.0419 -0.4300
14881TIP3    H166134   2.927   6.645   1.690 -0.2357  0.1355 -0.4173
14881TIP3    H266135   2.833   6.691   1.799 -0.2398 -0.3933 -0.1975
14882TIP3   OH266136   4.649   0.089   4.537 -0.5167 -0.1388  0.1704
14882TIP3    H166137   4.652   0.121   4.627 -1.7733  1.6569 -0.3964
14882TIP3    H266138   4.558   0.101   4.510 -0.0045  0.0326 -1.5710
14883TIP3   OH266139   4.914   4.486  14.047  0.3128  0.0227  0.3199
14883TIP3    H166140   4.862   4.566  14.051  0.6365  0.2955 -0.6917
14883TIP3    H266141   4.853   4.419  14.016  0.5478  0.3315 -0.8198
14884TIP3   OH266142   0.886   3.407  16.335  0.2053 -0.7299 -0.4637
14884TIP3    H166143   0.844   3.460  16.402 -0.5508  0.7997 -2.1054
14884TIP3    H266144   0.825   3.334  16.320 -1.3695  0.8511 -1.9931
14885TIP3   OH266145   1.537   6.065   3.105  0.1187  0.1134  0.6368
14885TIP3    H166146   1.593   5.989   3.086  1.3348  1.1535 -0.0531
14885TIP3    H266147   1.520   6.104   3.019  1.9704  2.3016  1.1924
14886TIP3   OH266148   5.283   3.682   4.639 -0.4142  0.7979 -0.2868
14886TIP3    H166149   5.228   3.674   4.717  0.6379 -0.6039  0.3439
14886TIP3    H266150   5.303   3.775   4.633  0.7533  0.7465  2.0283
14887TIP3   OH266151   4.737   6.695  13.044  0.6039 -0.2883 -0.2803
14887TIP3    H166152   4.820   6.661  13.077 -0.1687 -2.0130 -0.0488
14887TIP3    H266153   4.717   6.769  13.101  0.6193 -1.5821  1.4602
14888TIP3   OH266154   1.728   1.395  12.703 -0.0701  0.2551  0.1199
14888TIP3    H166155   1.672   1.466  12.736  0.5078  0.6232  0.3080
14888TIP3    H266156   1.791   1.439  12.646  0.3487 -0.0965  0.3114
14889TIP3   OH266157   4.151   5.264  16.194  0.0381  0.0695  0.2881
14889TIP3    H166158   4.210   5.259  16.269 -1.0060  0.4600  1.1504
14889TIP3    H266159   4.207   5.247  16.118  1.1060 -0.3208  1.1515
14890TIP3   OH266160   3.970   3.608  12.611 -0.3405 -0.2223  0.3342
14890TIP3    H166161   3.918   3.616  12.531  1.7896  1.0069 -0.9616
14890TIP3    H266162   4.054   3.574  12.582  0.8013  1.1693  1.8838
14891TIP3   OH266163   3.429   4.999  12.395 -0.1748  0.5810  0.2499
14891TIP3    H166164   3.479   5.052  12.334 -0.9126  0.7137 -0.2450
14891TIP3    H266165   3.369   4.949  12.340 -0.3341  0.1489  0.8063
14892TIP3   OH266166   2.802   1.943  11.507  0.4696 -0.1693 -0.6720
14892TIP3    H166167   2.850   2.008  11.559 -0.9564  0.1075  0.3237
14892TIP3    H266168   2.851   1.862  11.519  0.8738  0.1812  0.0968
14893TIP3   OH266169   0.467   3.161   4.837  0.6518  0.1657 -0.0656
14893TIP3    H166170   0.472   3.067   4.855 -1.4872 -0.0154 -0.2878
14893TIP3    H266171   0.474   3.168   4.742  1.0307  0.2663 -0.0341
14894TIP3   OH266172   3.131   0.632   6.030 -0.1696 -0.4165  0.4712
14894TIP3    H166173   3.171   0.555   6.069  2.1042  0.9548  0.9154
14894TIP3    H266174   3.089   0.677   6.103  0.6784  0.0860  0.6476
14895TIP3   OH266175   6.327   5.563   5.286 -0.3458  1.0071 -0.1561
14895TIP3    H166176   6.313   5.495   5.353 -0.4611  0.9254 -0.2627
14895TIP3    H266177   6.333   5.514   5.204 -1.6900  1.2227 -0.3992
14896TIP3   OH266178   5.493   5.750   5.474 -0.1988 -0.1589  0.7800
14896TIP3    H166179   5.512   5.803   5.551  3.9419 -1.9888  1.1598
14896TIP3    H266180   5.545   5.789   5.404  3.5488 -3.9897  1.2487
14897TIP3   OH266181   5.340   2.630   6.024 -0.8329 -0.7017 -0.3871
14897TIP3    H166182   5.339   2.591   6.111 -1.7547 -0.4048 -0.2539
14897TIP3    H266183   5.428   2.667   6.014 -1.0263  0.1106  0.8035
14898TIP3   OH266184   0.658   6.419  12.659  0.1974  0.6260  0.3253
14898TIP3    H166185   0.717   6.457  12.594 -1.6976 -0.1621 -1.9191
14898TIP3    H266186   0.672   6.324  12.651 -1.7945  0.3979 -0.6747
14899TIP3   OH266187   3.115   6.408  15.425 -0.5891  0.1936  0.2489
14899TIP3    H166188   3.035   6.404  15.477 -0.4688 -0.0442  0.4166
14899TIP3    H266189   3.175   6.461  15.477 -1.8542  3.5242 -1.5259
14900TIP3   OH266190   4.849   1.410   0.288  0.0964 -0.2275 -0.3772
14900TIP3    H166191   4.842   1.391   0.381  0.9237  0.7618 -0.1021
14900TIP3    H266192   4.763   1.447   0.264 -0.6208 -1.8544 -0.3459
14901TIP3   OH266193   4.944   6.285   4.729 -0.3044 -0.6524  0.2256
14901TIP3    H166194   4.908   6.234   4.657  0.1236  0.1801 -0.5856
14901TIP3    H266195   5.037   6.294   4.709 -0.1172 -0.6693  1.0357
14902TIP3   OH266196   3.072   3.412   0.285  0.2313  0.0112  0.0081
14902TIP3    H166197   3.072   3.340   0.348 -1.0472  0.9944  1.1803
14902TIP3    H266198   2.990   3.403   0.237 -0.3333  1.1402  0.7290
14903TIP3   OH266199   1.500   5.271   1.567 -0.2511 -0.1732  0.0887
14903TIP3    H166200   1.508   5.366   1.574  1.3106 -0.4070  1.8380
14903TIP3    H266201   1.566   5.236   1.627 -0.3970 -2.3796 -0.9547
14904TIP3   OH266202   4.451   3.547   2.836  0.4491 -0.1651  0.2076
14904TIP3    H166203   4.465   3.479   2.770  0.8252 -1.3579  1.4787
14904TIP3    H266204   4.381   3.513   2.891 -0.5427  1.2705 -0.1611
14905TIP3   OH266205   5.295   1.665  12.302 -0.1338  0.5509 -0.4679
14905TIP3    H166206   5.223   1.698  12.250 -1.3705  0.8836  1.4284
14905TIP3    H266207   5.254   1.613  12.371  1.5389 -1.0902 -0.6354
14906TIP3   OH266208   4.773   2.462   3.880 -0.0292  0.6333 -0.6378
14906TIP3    H166209   4.822   2.396   3.831 -1.4904 -0.5567 -0.5229
14906TIP3    H266210   4.778   2.541   3.826  3.2289  0.9757  0.0573
14907TIP3   OH266211   5.431   1.917   3.212 -0.1566  0.5986 -0.8088
14907TIP3    H166212   5.411   1.896   3.303 -0.3002  0.3152 -0.9047
14907TIP3    H266213   5.345   1.925   3.170 -0.0897  0.5619 -0.9558
14908TIP3   OH266214   4.837   4.904   3.814 -0.0933  0.1037 -0.3134
14908TIP3    H166215   4.811   4.993   3.839  1.7563 -0.0989  2.4559
14908TIP3    H266216   4.831   4.904   3.718 -2.6794  2.3873 -0.2140
14909TIP3   OH266217   4.904   5.295  10.948  0.5988 -0.2724  0.0007
14909TIP3    H166218   4.880   5.329  10.862 -0.8067 -1.3893 -0.0639
14909TIP3    H266219   4.877   5.363  11.010 -0.3382 -0.3751 -0.2870
14910TIP3   OH266220   5.329   3.312   3.441 -0.1250 -0.1542 -0.2316
14910TIP3    H166221   5.313   3.230   3.487 -0.3764  0.7384  1.3400
14910TIP3    H266222   5.249   3.363   3.456  0.8561  1.1803  0.6627
14911TIP3   OH266223   4.891   2.802   4.773  0.2391  0.2468 -0.1968
14911TIP3    H166224   4.916   2.710   4.764  2.4806  0.8680 -0.7284
14911TIP3    H266225   4.907   2.840   4.687  0.1161  1.2967  0.2331
14912TIP3   OH266226   4.363   3.316  14.245  0.2297 -0.6561  0.7249
14912TIP3    H166227   4.455   3.309  14.273  0.9792  0.1407 -1.4888
14912TIP3    H266228   4.354   3.249  14.177 -0.8564 -0.7680  0.9745
14913TIP3   OH266229   2.021   6.223  14.720  0.2184  0.3573 -0.6871
14913TIP3    H166230   1.928   6.203  14.710  0.1947  1.2051 -2.4092
14913TIP3    H266231   2.066   6.147  14.681  0.1962  1.0812 -2.1666
14914TIP3   OH266232   5.299   1.013  12.653  0.0101 -0.0930 -0.2989
14914TIP3    H166233   5.234   0.943  12.655  0.1518 -0.3519 -3.2253
14914TIP3    H266234   5.246   1.094  12.653 -0.1801 -0.1873  1.2480
14915TIP3   OH266235   2.460   6.334   6.538  0.2104  0.1636  0.0999
14915TIP3    H166236   2.465   6.427   6.518  2.3810  0.8314  3.3457
14915TIP3    H266237   2.402   6.328   6.614  0.9995 -0.9587  0.6392
14916TIP3   OH266238   2.436   3.226   5.389 -0.6341  0.2831  0.0176
14916TIP3    H166239   2.485   3.207   5.470  1.2732  0.2358 -1.1219
14916TIP3    H266240   2.364   3.163   5.391 -1.3789  1.1456  2.3209
14917TIP3   OH266241   4.610   4.210  13.605 -0.0643  0.0406  0.1664
14917TIP3    H166242   4.579   4.198  13.694 -0.8923 -0.1304 -0.1439
14917TIP3    H266243   4.563   4.287  13.573 -0.2383 -0.2682 -0.3343
14918TIP3   OH266244   4.706   6.246   3.020 -0.4405 -0.3325 -0.5188
14918TIP3    H166245   4.612   6.231   3.012 -0.1880 -1.8779 -0.5726
14918TIP3    H266246   4.716   6.283   3.108 -0.9736 -1.2095 -0.0837
14919TIP3   OH266247   4.156   2.093  16.552 -0.0397  0.1512  0.1710
14919TIP3    H166248   4.190   2.121  16.467 -0.2224  0.9116  0.3407
14919TIP3    H266249   4.075   2.142  16.563 -0.7574 -1.0242  0.1515
14920TIP3   OH266250   1.101   4.174   4.728 -0.1781 -0.6972  0.1464
14920TIP3    H166251   1.134   4.139   4.811 -1.6807  0.9165  1.4566
14920TIP3    H266252   1.051   4.102   4.690  1.0542 -1.6593  0.3272
14921TIP3   OH266253   1.244   0.223   3.041 -0.2908 -0.2149  0.2243
14921TIP3    H166254   1.244   0.185   2.953 -2.6102  0.6709 -0.1975
14921TIP3    H266255   1.183   0.168   3.091  1.4321 -1.0431  1.4427
14922TIP3   OH266256   1.737   2.055  17.080 -0.1018  0.6476  0.2730
14922TIP3    H166257   1.668   2.120  17.070  0.1507  1.1269  1.4521
14922TIP3    H266258   1.781   2.080  17.162  1.3990  0.2976 -0.4121
14923TIP3   OH266259   4.748   3.947   4.499 -0.0489 -0.1081  0.0669
14923TIP3    H166260   4.654   3.940   4.514  0.2169  0.3808  2.0916
14923TIP3    H266261   4.767   4.040   4.507  0.9465 -0.4451  1.9022
14924TIP3   OH266262   3.562   5.622  17.259 -0.1110 -0.4778  0.2061
14924TIP3    H166263   3.557   5.571  17.178 -0.5520  1.5035 -1.0470
14924TIP3    H266264   3.471   5.645  17.278  0.2667  1.6601 -0.4515
14925TIP3   OH266265   1.289   3.510   0.009 -0.3980 -0.6889 -0.6540
14925TIP3    H166266   1.265   3.432   0.060  0.4057 -0.4390  0.1264
14925TIP3    H266267   1.359   3.479  -0.049 -0.6559 -0.7445 -0.9379
14926TIP3   OH266268   1.831   5.001  15.145 -0.4333  0.2050 -0.5770
14926TIP3    H166269   1.815   5.009  15.051  1.1358  1.5434 -0.7508
14926TIP3    H266270   1.788   5.078  15.183 -1.4275 -0.5570 -0.1419
14927TIP3   OH266271   3.830   3.332  12.789  0.5836  0.5550 -0.0774
14927TIP3    H166272   3.770   3.260  12.771 -0.5713  1.3266  0.6208
14927TIP3    H266273   3.912   3.290  12.813  0.3655 -0.5117 -1.1389
14928TIP3   OH266274   5.942   4.909  13.549  0.0747 -0.3990 -0.9566
14928TIP3    H166275   5.953   5.003  13.539 -0.5109 -0.3005 -0.7229
14928TIP3    H266276   6.021   4.871  13.511  0.8660  0.2340  0.0330
14929TIP3   OH266277   0.346   0.141  15.328  0.3512  0.3838  0.0510
14929TIP3    H166278   0.439   0.121  15.320  0.4455  0.7430  0.2491
14929TIP3    H266279   0.329   0.141  15.422  0.3490  1.2107  0.0560
14930TIP3   OH266280   6.255   2.612  14.729 -0.6372 -0.3738 -0.0428
14930TIP3    H166281   6.216   2.697  14.708 -2.0702 -0.8951  0.4620
14930TIP3    H266282   6.244   2.560  14.649 -2.2216 -0.9678  0.5602
14931TIP3   OH266283   6.311   1.813   3.925 -0.0143 -0.7561 -0.7806
14931TIP3    H166284   6.320   1.832   3.832  0.0225 -2.3116 -1.1121
14931TIP3    H266285   6.400   1.793   3.954  0.0494  0.2430 -0.2970
14932TIP3   OH266286   5.786   2.579  11.787 -0.2561  0.4033 -0.5471
14932TIP3    H166287   5.819   2.498  11.747 -1.2854 -1.3118  1.9397
14932TIP3    H266288   5.837   2.649  11.746  1.0048 -1.5503 -2.3872
14933TIP3   OH266289   3.949   4.930   2.667 -0.2055 -0.6266  0.4000
14933TIP3    H166290   3.960   4.855   2.609 -2.0450  0.1063 -0.9735
14933TIP3    H266291   3.998   5.000   2.626  1.4374 -1.0324  1.6348
14934TIP3   OH266292   0.891   3.378  14.979 -0.3383  0.2323  0.1412
14934TIP3    H166293   0.852   3.393  14.893  0.2997 -0.6891 -0.3211
14934TIP3    H266294   0.944   3.298  14.968  0.9098  0.9205  1.0019
14935TIP3   OH266295   3.127   2.780   2.403 -0.6495  0.5093  0.1166
14935TIP3    H166296   3.196   2.769   2.337 -0.2753 -0.8092  0.7214
14935TIP3    H266297   3.050   2.807   2.352 -0.3948 -0.5795 -0.8818
14936TIP3   OH266298   4.510   0.890  11.338 -0.2168 -0.2094  0.4467
14936TIP3    H166299   4.542   0.847  11.259  0.3249 -0.9517  1.0693
14936TIP3    H266300   4.450   0.957  11.305 -0.3890 -0.8440 -0.5701
14937TIP3   OH266301   3.993   4.291  14.105  0.2817  0.2707 -0.1102
14937TIP3    H166302   4.027   4.346  14.034  0.1947 -1.6642 -1.6770
14937TIP3    H266303   3.945   4.352  14.161  0.2656  1.8207 -1.7589
14938TIP3   OH266304   4.881   6.540   2.539  0.1620  0.4134 -0.1311
14938TIP3    H166305   4.903   6.510   2.627 -3.0450  1.3582  1.0642
14938TIP3    H266306   4.892   6.635   2.543 -0.6015  0.5250 -0.5707
14939TIP3   OH266307   2.631   0.420  12.752  0.0671  0.9486  0.2391
14939TIP3    H166308   2.609   0.401  12.843  1.0347 -3.3879 -0.3206
14939TIP3    H266309   2.547   0.438  12.710 -0.9950 -2.0153  0.9822
14940TIP3   OH266310   0.848   1.658   0.536  0.0971  0.3161 -0.1731
14940TIP3    H166311   0.814   1.684   0.622 -1.8733  1.7826 -1.3254
14940TIP3    H266312   0.848   1.563   0.537  0.9290  0.3321  1.7675
14941TIP3   OH266313   3.173   5.307  16.863 -0.5509 -0.0640  0.4610
14941TIP3    H166314   3.177   5.386  16.811  0.0655 -0.8126 -0.6411
14941TIP3    H266315   3.098   5.258  16.828 -1.0358  0.1010  1.2476
14942TIP3   OH266316   5.568   4.320   5.257  0.1100 -0.0645 -0.1883
14942TIP3    H166317   5.611   4.280   5.181 -0.6898 -0.0865 -0.6400
14942TIP3    H266318   5.550   4.410   5.229 -0.6930 -0.2337 -0.2422
14943TIP3   OH266319   4.054   1.059  14.191 -0.1631 -0.2337  0.3366
14943TIP3    H166320   4.123   1.124  14.198 -0.4263 -0.1364  2.3607
14943TIP3    H266321   3.979   1.098  14.237 -0.4664 -1.7305  1.1634
14944TIP3   OH266322   0.705   2.137  15.623 -0.1119  0.5654 -0.2574
14944TIP3    H166323   0.630   2.196  15.615  0.7748  1.6443 -0.7534
14944TIP3    H266324   0.688   2.067  15.560 -1.1228  0.3308  0.2637
14945TIP3   OH266325   0.592   2.857  17.233  0.1190 -0.4196  0.7164
14945TIP3    H166326   0.547   2.915  17.294  0.6304 -1.1340  1.7827
14945TIP3    H266327   0.683   2.887  17.234 -0.1968  0.7113 -1.0714
14946TIP3   OH266328   4.742   2.940   0.995  0.2651  0.3191  0.3235
14946TIP3    H166329   4.716   2.968   1.083 -1.1436 -0.3871  0.1518
14946TIP3    H266330   4.733   2.845   0.996 -2.0303  0.4681 -1.2476
14947TIP3   OH266331   4.224   4.803  15.810  0.4371  0.0748 -0.4798
14947TIP3    H166332   4.254   4.755  15.732 -0.0543 -0.6607 -0.2222
14947TIP3    H266333   4.241   4.742  15.882 -1.4461 -0.2644 -0.2990
14948TIP3   OH266334   6.371   2.400  17.208  0.2160  0.2558 -0.1791
14948TIP3    H166335   6.436   2.470  17.201 -0.1949  0.8921  1.9049
14948TIP3    H266336   6.377   2.371  17.299 -2.0323 -0.0458 -0.1007
14949TIP3   OH266337   5.270   0.381   3.023  0.2926  0.0345 -0.0378
14949TIP3    H166338   5.340   0.353   2.964  2.0003 -0.6980  2.2546
14949TIP3    H266339   5.302   0.462   3.062  0.0225 -0.4960  1.2971
14950TIP3   OH266340   2.150   3.537  13.697 -0.2437  0.4918 -0.4130
14950TIP3    H166341   2.239   3.570  13.681 -0.3119  0.8353 -0.1240
14950TIP3    H266342   2.145   3.530  13.793 -0.2894 -0.2127 -0.4646
14951TIP3   OH266343   0.038   4.718  15.153 -0.3834 -0.0382 -0.3554
14951TIP3    H166344  -0.033   4.764  15.108  0.2951 -0.2403 -1.6491
14951TIP3    H266345   0.001   4.697  15.240 -1.1882  1.6496 -0.2655
14952TIP3   OH266346   3.748   0.328  11.319  0.6465  0.2078 -0.4544
14952TIP3    H166347   3.702   0.400  11.363  0.5917 -0.7422  1.0584
14952TIP3    H266348   3.791   0.370  11.245  1.5010  2.0191  1.0158
14953TIP3   OH266349   0.866   5.575  12.986  0.6758 -0.1436 -0.2894
14953TIP3    H166350   0.831   5.652  12.942 -1.4949 -0.9936 -0.0966
14953TIP3    H266351   0.842   5.587  13.078  3.4140  0.6395  0.3737
14954TIP3   OH266352   2.552   2.936   0.180  0.5188 -0.1235  0.3911
14954TIP3    H166353   2.569   2.859   0.234  1.9613 -1.2254 -1.5901
14954TIP3    H266354   2.593   2.917   0.096  1.0894  2.8926 -0.0912
14955TIP3   OH266355   3.051   4.136  12.147  0.7768 -0.2295  0.1601
14955TIP3    H166356   3.055   4.228  12.171 -0.4526 -0.1475  0.1208
14955TIP3    H266357   3.128   4.121  12.093  0.7593  0.8869 -0.1890
14956TIP3   OH266358   0.160   2.436  13.145  0.3479  0.0001  0.2194
14956TIP3    H166359   0.190   2.525  13.124 -0.3994  0.3447  0.5596
14956TIP3    H266360   0.110   2.409  13.068  0.3436 -0.0213  0.2291
14957TIP3   OH266361   2.593   0.452  15.512 -0.9070  0.0791 -0.7497
14957TIP3    H166362   2.569   0.504  15.436  0.9676  1.7257 -0.2600
14957TIP3    H266363   2.511   0.416  15.545 -1.9667  1.0823 -2.2933
14958TIP3   OH266364   0.869   0.622   1.134 -0.6153  0.3392  0.5624
14958TIP3    H166365   0.824   0.541   1.109 -0.7664  0.1313  1.5005
14958TIP3    H266366   0.889   0.665   1.051  0.6932 -1.3188 -0.0113
14959TIP3   OH266367   5.837   2.152   6.033  0.2151  0.1421  0.0709
14959TIP3    H166368   5.924   2.145   5.993  0.0013 -0.2250 -0.3359
14959TIP3    H266369   5.800   2.064   6.025 -0.8438  0.6958 -1.2341
14960TIP3   OH266370   1.013   3.131  17.085  0.0401 -0.8411  0.0249
14960TIP3    H166371   0.978   3.074  17.017  2.5234 -0.3979 -1.6745
14960TIP3    H266372   1.085   3.178  17.043  0.4865  0.7498  2.4659
14961TIP3   OH266373   6.278   2.892  17.251 -0.0324 -0.5146 -0.5691
14961TIP3    H166374   6.319   2.821  17.299  1.5193  0.8663  0.2084
14961TIP3    H266375   6.245   2.951  17.319  2.1536  1.4367 -1.1440
14962TIP3   OH266376   6.415   4.238  13.600 -0.0073  0.2357  0.7992
14962TIP3    H166377   6.377   4.166  13.550  0.2048  0.3349  0.4997
14962TIP3    H266378   6.340   4.280  13.642 -0.0732 -0.5406  1.4774
14963TIP3   OH266379   5.721   0.055  13.508 -0.1202 -0.2005 -0.3147
14963TIP3    H166380   5.678   0.071  13.424 -0.0936 -0.6495 -0.4144
14963TIP3    H266381   5.797   0.002  13.486 -0.3212 -0.6327  0.0408
14964TIP3   OH266382   1.781   3.343   4.449  0.3336 -0.2420 -0.5365
14964TIP3    H166383   1.790   3.249   4.431  0.5278  0.2297 -3.1141
14964TIP3    H266384   1.851   3.384   4.398  0.7213  1.2681  1.1577
14965TIP3   OH266385   2.655   3.842  15.795 -0.1550 -0.8047  0.4348
14965TIP3    H166386   2.708   3.771  15.832  2.0815 -0.2518 -1.5900
14965TIP3    H266387   2.664   3.914  15.856  1.9255 -0.5327 -0.1716
14966TIP3   OH266388   2.276   2.592  15.043  0.2170 -0.4934 -0.2973
14966TIP3    H166389   2.348   2.529  15.047  1.7801  1.2342 -0.5585
14966TIP3    H266390   2.199   2.539  15.024  1.4136 -2.3821 -0.0075
14967TIP3   OH266391   6.768   6.414   5.666 -0.1320  0.2406 -0.2124
14967TIP3    H166392   6.844   6.464   5.698  0.9703 -0.7973 -1.1612
14967TIP3    H266393   6.705   6.418   5.738  0.6458  1.4835  0.4252
14968TIP3   OH266394   3.151   5.234  17.137 -0.1543  0.2515  0.1863
14968TIP3    H166395   3.205   5.294  17.189  0.0019  2.0406 -2.0036
14968TIP3    H266396   3.148   5.273  17.050 -2.3015 -1.5378 -0.5800
14969TIP3   OH266397   2.759   1.624  12.543  0.6362  0.2507 -0.2962
14969TIP3    H166398   2.707   1.590  12.616  0.0953  0.6319 -0.5104
14969TIP3    H266399   2.805   1.547  12.509  1.0408  0.0993  0.5639
14970TIP3   OH266400   1.572   5.603  11.666 -0.1908  0.0581  0.2132
14970TIP3    H166401   1.664   5.617  11.643  0.5038 -1.3573  1.9449
14970TIP3    H266402   1.553   5.514  11.637 -1.2125  0.5805 -0.7243
14971TIP3   OH266403   5.573   5.741  15.368  0.1180  0.1610 -0.2148
14971TIP3    H166404   5.616   5.755  15.453  0.6530  0.8684 -0.6022
14971TIP3    H266405   5.512   5.815  15.360 -0.4235 -0.2765 -0.1399
14972TIP3   OH266406   3.276   3.861   5.578 -0.4780  0.1878 -0.0809
14972TIP3    H166407   3.329   3.797   5.626  0.9559  0.7292 -0.9293
14972TIP3    H266408   3.323   3.943   5.587 -1.2106  0.6949 -0.8125
14973TIP3   OH266409   4.948   2.299  15.027  0.0461 -0.3651 -0.3183
14973TIP3    H166410   4.889   2.364  15.064  0.9187 -0.1418  0.7038
14973TIP3    H266411   5.033   2.319  15.066  0.5228 -1.5083 -0.7561
14974TIP3   OH266412   6.483   6.140  12.505 -0.0815  0.1390  0.3816
14974TIP3    H166413   6.425   6.197  12.556  1.5306  1.2851  0.9831
14974TIP3    H266414   6.559   6.127  12.561  1.9643  1.8575 -1.8545
14975TIP3   OH266415   6.292   1.887  15.710 -0.1052 -0.4874 -0.2440
14975TIP3    H166416   6.234   1.818  15.740 -0.3835 -0.1704 -0.0431
14975TIP3    H266417   6.328   1.924  15.790 -2.6650  1.9318 -0.1275
14976TIP3   OH266418   3.094   6.433   3.416 -0.5490 -0.4180  0.2061
14976TIP3    H166419   3.169   6.428   3.356 -2.3357 -2.4751 -1.9342
14976TIP3    H266420   3.098   6.352   3.466 -0.1435  0.4459  1.6002
14977TIP3   OH266421   5.763   6.188   3.123 -0.1908 -0.0061  0.3822
14977TIP3    H166422   5.694   6.214   3.062  0.3332 -0.3438 -0.3628
14977TIP3    H266423   5.716   6.166   3.204 -0.9635 -0.3227 -0.1449
14978TIP3   OH266424   1.539   2.278  15.245 -0.4107 -0.4668 -0.2943
14978TIP3    H166425   1.571   2.211  15.305  4.3028  1.9720  0.1033
14978TIP3    H266426   1.558   2.244  15.158  1.6970  0.1717 -0.1009
14979TIP3   OH266427   5.307   6.197   1.421 -0.4365 -1.1823 -0.3066
14979TIP3    H166428   5.371   6.155   1.363  0.7776  0.8280 -0.4550
14979TIP3    H266429   5.325   6.160   1.507  2.1170  0.6467 -0.0198
14980TIP3   OH266430   0.067   4.904   3.836  0.0979  0.1528 -0.5144
14980TIP3    H166431   0.009   4.875   3.767  0.7142 -1.4427 -0.3754
14980TIP3    H266432   0.012   4.959   3.892 -0.0207  2.7269 -3.0700
14981TIP3   OH266433   2.625   3.498  14.754 -0.1549 -0.4368  0.3040
14981TIP3    H166434   2.583   3.451  14.826  1.0566  0.2119  1.4634
14981TIP3    H266435   2.601   3.589  14.767  1.1344 -0.1302  0.6783
14982TIP3   OH266436   1.400   3.888  11.779  0.4792  0.4355 -0.3104
14982TIP3    H166437   1.399   3.964  11.721  1.6167  1.0040  0.3908
14982TIP3    H266438   1.465   3.829  11.740 -0.5820 -0.3049 -0.9925
14983TIP3   OH266439   4.937   0.273  13.204  0.2215 -0.0144 -0.4497
14983TIP3    H166440   4.969   0.189  13.172  0.4908  0.3179 -1.0682
14983TIP3    H266441   4.899   0.315  13.127 -0.1549  0.3183 -0.0868
14984TIP3   OH266442   0.660   2.032   3.527  0.4938  0.4650 -0.4348
14984TIP3    H166443   0.747   2.062   3.554  0.6814 -0.8007  0.4018
14984TIP3    H266444   0.671   1.938   3.511 -1.1851 -0.1775  1.8240
14985TIP3   OH266445   0.177   1.818  11.374 -0.1656  0.5392  0.2008
14985TIP3    H166446   0.262   1.849  11.405 -0.0571  0.0819  0.3613
14985TIP3    H266447   0.192   1.795  11.282 -0.3702  1.4418 -0.0588
14986TIP3   OH266448   1.867   3.475  15.338  0.5844 -0.6363  0.0724
14986TIP3    H166449   1.792   3.420  15.317  0.9962 -0.9896 -0.4939
14986TIP3    H266450   1.933   3.452  15.272  2.1461 -2.2348  2.1045
14987TIP3   OH266451   5.061   5.306  13.431  0.2848  0.0553 -0.2457
14987TIP3    H166452   5.000   5.356  13.486  0.2978  0.4531 -0.5888
14987TIP3    H266453   5.111   5.253  13.493 -0.8047 -0.7077 -0.0062
14988TIP3   OH266454   5.895   0.286   4.565  0.4185 -0.1681  0.0114
14988TIP3    H166455   5.914   0.377   4.589  1.1030  0.0952 -1.4860
14988TIP3    H266456   5.861   0.247   4.646  0.2940  1.3601  0.7182
14989TIP3   OH266457   1.628   2.865   4.330  0.0930 -0.3649 -0.0845
14989TIP3    H166458   1.614   2.914   4.249  0.3965 -0.1501 -0.0052
14989TIP3    H266459   1.539   2.841   4.359 -0.1362  1.1275  0.4977
14990TIP3   OH266460   5.267   0.446   5.505 -0.6522 -0.0833  0.1321
14990TIP3    H166461   5.201   0.397   5.455  2.1599 -0.0001 -3.8639
14990TIP3    H266462   5.311   0.379   5.558 -1.4713 -0.7402 -0.0015
14991TIP3   OH266463   0.632   2.132   3.900 -0.8116 -0.3654 -0.0805
14991TIP3    H166464   0.566   2.157   3.965 -1.5007 -1.7279 -0.2458
14991TIP3    H266465   0.587   2.138   3.816  0.1549  1.6580 -0.5011
14992TIP3   OH266466   3.995   5.042  12.185 -0.0286  0.2593  0.3947
14992TIP3    H166467   4.032   5.130  12.195  0.5011  0.2352 -1.1505
14992TIP3    H266468   3.981   5.033  12.091 -1.8902 -0.5979  0.7501
14993TIP3   OH266469   5.154   5.675  10.831  0.5313 -0.7268  0.1932
14993TIP3    H166470   5.181   5.748  10.776 -1.7419  0.5697  0.7376
14993TIP3    H266471   5.196   5.598  10.791  1.8890  0.6812 -1.1432
14994TIP3   OH266472   6.151   3.907  12.069 -0.6586  0.1847  0.3158
14994TIP3    H166473   6.091   3.833  12.082  1.0811 -1.1311  1.0453
14994TIP3    H266474   6.218   3.873  12.009 -0.2061  1.3741  0.1419
14995TIP3   OH266475   5.229   3.698  12.615  0.1030  0.3060 -0.2257
14995TIP3    H166476   5.202   3.621  12.566 -0.4078 -0.4881  1.2553
14995TIP3    H266477   5.202   3.772  12.561 -1.7019 -0.5311 -0.4966
14996TIP3   OH266478   4.925   4.591   4.682 -0.2836 -0.0887  0.1320
14996TIP3    H166479   4.836   4.624   4.666 -0.2595 -0.0864 -0.0006
14996TIP3    H266480   4.947   4.544   4.602  0.0941  0.4828 -0.1069
14997TIP3   OH266481   1.284   4.088   1.152 -0.2321 -0.1001  0.5018
14997TIP3    H166482   1.245   4.002   1.167  0.3963 -0.2844  1.0895
14997TIP3    H266483   1.286   4.129   1.239 -0.1893  0.3693  0.2836
14998TIP3   OH266484   5.926   5.251   4.681  0.7011  0.5087 -0.4961
14998TIP3    H166485   5.926   5.233   4.775 -2.1643  0.3683 -0.4837
14998TIP3    H266486   5.933   5.165   4.640  1.4750  0.5361 -0.4360
14999TIP3   OH266487   2.612   4.071   5.923  0.3091  0.8626  0.1426
14999TIP3    H166488   2.597   4.028   6.007  0.9957  0.5364  0.1021
14999TIP3    H266489   2.553   4.146   5.923 -0.2488  0.4248  0.5934
15000TIP3   OH266490   6.061   3.421  14.502 -0.7671 -0.1556  0.4287
15000TIP3    H166491   6.021   3.368  14.571 -0.3252 -1.7423 -0.5176
15000TIP3    H266492   6.144   3.450  14.539 -0.4523 -1.1484  0.5120
15001TIP3   OH266493   2.476   4.336  13.853 -0.1650 -0.1773 -0.2473
15001TIP3    H166494   2.457   4.346  13.947  1.1367  2.4866 -0.2033
15001TIP3    H266495   2.539   4.264  13.849 -0.2132 -0.2957  0.9273
15002TIP3   OH266496   1.226   2.977   4.798  0.4272  0.4684 -0.0297
15002TIP3    H166497   1.151   3.037   4.804 -0.5868 -0.7223 -0.5610
15002TIP3    H266498   1.219   2.922   4.876 -0.0673 -0.5486 -0.7755
15003TIP3   OH266499   5.392   3.079   5.947 -0.0548 -0.6537  0.1788
15003TIP3    H166500   5.396   3.144   6.017  0.2914  0.1746 -0.5955
15003TIP3    H266501   5.299   3.072   5.927 -0.0152  0.3727 -0.4226
15004TIP3   OH266502   5.495   1.088  12.464 -0.0739  0.0474 -0.0589
15004TIP3    H166503   5.490   1.183  12.457  2.2299  0.1135 -0.9916
15004TIP3    H266504   5.427   1.066  12.528 -0.5543  2.3115  0.2633
15005TIP3   OH266505   1.780   4.163   2.499 -0.0795 -0.1570  0.5364
15005TIP3    H166506   1.814   4.174   2.587 -0.1084  0.7191  0.4471
15005TIP3    H266507   1.686   4.149   2.511  0.2254 -2.1277  0.7567
15006TIP3   OH266508   5.903   5.537   1.935 -0.0947 -0.3771 -0.4098
15006TIP3    H166509   5.847   5.470   1.974  0.0347  0.3073  1.0162
15006TIP3    H266510   5.932   5.500   1.852  1.0967 -2.6534  0.9629
15007TIP3   OH266511   3.229   2.317  12.069  0.0259 -0.0232 -0.4468
15007TIP3    H166512   3.300   2.381  12.073 -0.3613  0.3397  0.6359
15007TIP3    H266513   3.263   2.239  12.114 -0.6952  0.5790  1.1730
15008TIP3   OH266514   5.496   3.981   1.124 -0.4007  0.0239  0.3228
15008TIP3    H166515   5.581   4.024   1.120 -1.2011  1.5416 -0.9396
15008TIP3    H266516   5.509   3.906   1.182  1.4318  1.0503  1.2575
15009TIP3   OH266517   2.034   3.185  15.751  0.4991  0.4436  0.0351
15009TIP3    H166518   2.018   3.213  15.661 -0.5394 -1.6090 -0.4519
15009TIP3    H266519   2.054   3.266  15.799  1.4175  1.5056 -2.1008
15010TIP3   OH266520   5.081   0.699   3.223  0.0490  0.0894 -0.2715
15010TIP3    H166521   5.006   0.708   3.280 -0.9179 -0.9237 -1.3537
15010TIP3    H266522   5.088   0.784   3.178  0.3761  0.6346  0.8054
15011TIP3   OH266523   3.282   4.564   6.240 -0.1576 -0.5219 -0.0232
15011TIP3    H166524   3.289   4.639   6.182  1.4508  1.5103  2.7109
15011TIP3    H266525   3.338   4.497   6.200  1.2367  0.9817 -0.6385
15012TIP3   OH266526   5.352   5.632  12.721 -0.1623 -0.2389 -0.7738
15012TIP3    H166527   5.432   5.596  12.683 -0.6431 -1.4926 -0.5922
15012TIP3    H266528   5.301   5.661  12.645 -0.5288 -1.5004 -1.0050
15013TIP3   OH266529   2.845   1.465   1.290 -0.1760  0.0416  0.7246
15013TIP3    H166530   2.921   1.482   1.346 -0.0662 -0.4989  0.7433
15013TIP3    H266531   2.883   1.437   1.206 -0.3630 -1.9007  1.2663
15014TIP3   OH266532   1.969   5.401   4.834 -0.0280 -0.1024  0.1577
15014TIP3    H166533   1.980   5.440   4.748 -1.9353  0.1575  0.0034
15014TIP3    H266534   1.886   5.436   4.866  1.0619  0.4818  2.4856
15015TIP3   OH266535   4.615   0.603   2.725 -0.1411 -0.4191 -0.1169
15015TIP3    H166536   4.690   0.630   2.778  0.3831  0.1744 -1.1685
15015TIP3    H266537   4.609   0.508   2.739  2.7793 -1.0234 -2.5397
15016TIP3   OH266538   5.159   6.519  16.967  0.2841  0.6756 -0.1762
15016TIP3    H166539   5.201   6.579  17.029  1.4632  1.2511 -1.5156
15016TIP3    H266540   5.189   6.432  16.993 -1.7845  0.5633  2.0620
15017TIP3   OH266541   0.607   6.692   3.820 -0.5532 -0.1023  0.5463
15017TIP3    H166542   0.676   6.714   3.882 -0.4458  0.3069  0.2884
15017TIP3    H266543   0.625   6.748   3.744 -1.4706  0.3940  0.6802
15018TIP3   OH266544   5.334   6.759  16.298  0.1343 -0.0561  0.2962
15018TIP3    H166545   5.242   6.753  16.275  0.1805 -0.5537  0.2482
15018TIP3    H266546   5.363   6.842  16.259  0.3263 -1.1088 -1.8331
15019TIP3   OH266547   5.766   4.090   0.153 -0.6481  0.1279  0.0810
15019TIP3    H166548   5.796   4.008   0.192 -1.6707 -1.3268 -2.1060
15019TIP3    H266549   5.797   4.087   0.063 -1.0554  1.9751 -0.1390
15020TIP3   OH266550   4.120   1.654   5.596 -0.1876 -0.1186  0.1363
15020TIP3    H166551   4.157   1.741   5.612  2.0541 -1.1230  0.5337
15020TIP3    H266552   4.052   1.669   5.530 -0.0600  1.9785  0.4464
15021TIP3   OH266553   0.092   5.103   0.135  0.1974 -0.4220  0.2335
15021TIP3    H166554   0.016   5.160   0.120  1.4474  1.3191  0.3788
15021TIP3    H266555   0.082   5.033   0.071 -0.2914  1.0632 -1.3521
15022TIP3   OH266556   4.849   5.445  13.594  1.3174 -0.1919  0.5711
15022TIP3    H166557   4.856   5.405  13.680  0.4740  0.1131  0.7886
15022TIP3    H266558   4.815   5.533  13.611 -0.1336 -0.5907 -0.1642
15023TIP3   OH266559   1.635   6.676   0.218  0.1183  0.0137 -0.1605
15023TIP3    H166560   1.621   6.764   0.182  1.0628  0.8109  1.3539
15023TIP3    H266561   1.728   6.657   0.200 -0.1648 -0.8163 -0.7754
15024TIP3   OH266562   5.777   4.210  14.774  0.4362  0.2272  0.6619
15024TIP3    H166563   5.808   4.226  14.864  1.2264 -0.5211  0.5363
15024TIP3    H266564   5.813   4.282  14.723 -0.0308  0.6656  0.9571
15025TIP3   OH266565   1.620   3.899  16.735 -0.0146  0.4795  0.1683
15025TIP3    H166566   1.573   3.839  16.793  0.3136  0.8509  0.8302
15025TIP3    H266567   1.694   3.849  16.702  0.2961  0.5349  0.7719
15026TIP3   OH266568   1.048   6.287  14.160 -0.1858  0.0172  0.1269
15026TIP3    H166569   1.093   6.222  14.106  1.2343  0.7785  0.3681
15026TIP3    H266570   1.051   6.368  14.108 -1.7232 -0.0429 -0.0697
15027TIP3   OH266571   0.854   1.994   1.154 -0.2111 -0.4513  0.3629
15027TIP3    H166572   0.832   1.907   1.189  0.0601  0.2240  2.2611
15027TIP3    H266573   0.814   2.055   1.215  0.7497  0.7734 -0.2184
15028TIP3   OH266574   3.218   5.708  13.368 -0.1644 -0.1915 -0.0763
15028TIP3    H166575   3.224   5.613  13.361  0.9028 -0.1525  0.2635
15028TIP3    H266576   3.131   5.729  13.332 -0.2350 -1.2439 -0.5456
15029TIP3   OH266577   5.251   0.773   0.434 -0.4616 -0.4161  0.1830
15029TIP3    H166578   5.238   0.745   0.525  0.3032 -0.4978  0.2679
15029TIP3    H266579   5.247   0.868   0.438 -1.5691 -0.4526  0.1236
15030TIP3   OH266580   0.830   4.800  13.743 -0.0787 -0.0378 -0.1271
15030TIP3    H166581   0.780   4.821  13.664  0.8564  0.9641 -0.4483
15030TIP3    H266582   0.915   4.772  13.711  0.1582 -0.0584  0.5175
15031TIP3   OH266583   5.987   1.706  14.585 -0.1028 -0.1895 -0.7590
15031TIP3    H166584   6.070   1.753  14.582 -0.5065  0.6892  1.0380
15031TIP3    H266585   6.009   1.620  14.620  0.0694  0.0610 -0.2334
15032TIP3   OH266586   3.599   6.449  13.614  0.4729  0.6917 -0.1251
15032TIP3    H166587   3.655   6.513  13.658 -0.7473  0.3941  1.9767
15032TIP3    H266588   3.539   6.501  13.562  1.9772  1.0560 -1.5475
15033TIP3   OH266589   1.233   4.106  15.414 -0.5965 -0.7562  0.1729
15033TIP3    H166590   1.200   4.196  15.419 -1.6070 -1.1295  0.3584
15033TIP3    H266591   1.208   4.077  15.326  1.8884 -0.0385 -0.7989
15034TIP3   OH266592   3.225   4.929  15.203 -0.4439 -0.5661  0.3286
15034TIP3    H166593   3.268   5.009  15.234  0.1338 -0.3845 -0.9070
15034TIP3    H266594   3.131   4.951  15.201 -0.1034  0.9013 -2.2491
15035TIP3   OH266595   6.443   1.543   1.183 -0.1801 -0.4943  0.2213
15035TIP3    H166596   6.471   1.632   1.164 -0.3426 -0.0241  2.0564
15035TIP3    H266597   6.520   1.489   1.165 -0.5441 -0.2109 -2.4103
15036TIP3   OH266598   1.799   2.492  16.078  0.5153  0.3144  0.3091
15036TIP3    H166599   1.733   2.561  16.088  1.0730  0.8970 -0.0127
15036TIP3    H266600   1.840   2.511  15.994  0.3936 -0.6495  0.0237
15037TIP3   OH266601   6.520   3.056   5.298  0.4537  0.3725 -0.0740
15037TIP3    H166602   6.482   2.993   5.237  0.1656  0.1796  0.2980
15037TIP3    H266603   6.572   3.114   5.243 -0.5274  0.7522 -0.6139
15038TIP3   OH266604   3.464   1.783  15.187 -0.0623  0.4274  0.3493
15038TIP3    H166605   3.554   1.760  15.209 -0.0022  1.3880  1.1460
15038TIP3    H266606   3.449   1.741  15.102  0.1829 -2.1387  1.5182
15039TIP3   OH266607   6.381   0.251  13.021 -0.8823  0.3127 -0.2408
15039TIP3    H166608   6.391   0.177  12.961  0.6021  1.3986 -1.3903
15039TIP3    H266609   6.299   0.293  12.993 -0.9418 -0.0186 -0.5727
15040TIP3   OH266610   3.118   3.620   5.171  0.8800  0.1858  0.6205
15040TIP3    H166611   3.109   3.548   5.234  0.7432  0.5456  1.0118
15040TIP3    H266612   3.192   3.671   5.204 -1.0801  2.0946  2.1741
15041TIP3   OH266613   4.145   4.851  13.470  0.1153 -0.2077  0.3432
15041TIP3    H166614   4.051   4.864  13.484 -0.0663 -1.1713  0.0939
15041TIP3    H266615   4.186   4.929  13.507 -0.6227 -0.8842  2.7022
15042TIP3   OH266616   1.333   4.310   3.493 -0.0829 -0.2040 -0.2067
15042TIP3    H166617   1.327   4.221   3.527  1.4734  0.4853  2.0616
15042TIP3    H266618   1.427   4.330   3.495 -0.3176  1.1300 -1.6061
15043TIP3   OH266619   4.407   0.454  11.389  0.2497  0.3993 -0.1879
15043TIP3    H166620   4.418   0.462  11.294  1.2500  2.1544  0.0470
15043TIP3    H266621   4.465   0.381  11.413 -0.8360 -0.7636 -1.0508
15044TIP3   OH266622   4.205   4.026   0.399 -0.6192 -0.4115  0.2855
15044TIP3    H166623   4.173   3.947   0.355  0.7406 -0.6093 -0.3645
15044TIP3    H266624   4.258   3.994   0.472 -1.0310 -0.0870  0.7351
15045TIP3   OH266625   3.690   4.582  14.459  0.2887 -0.2023  0.4131
15045TIP3    H166626   3.613   4.534  14.488 -0.2993  0.2442 -0.3977
15045TIP3    H266627   3.762   4.521  14.471 -0.6111 -1.7483 -1.7905
15046TIP3   OH266628   6.757   2.242  13.888  0.3108  0.1951 -0.0701
15046TIP3    H166629   6.793   2.306  13.949  0.2010 -0.7625  1.0115
15046TIP3    H266630   6.791   2.269  13.802  0.6255  1.4301  0.4327
15047TIP3   OH266631   2.541   6.143  13.883  0.2639 -0.1436  0.1275
15047TIP3    H166632   2.610   6.180  13.938 -0.7476 -0.0023  1.3192
15047TIP3    H266633   2.588   6.105  13.808  1.6475 -0.3050  1.0606
15048TIP3   OH266634   3.170   0.092   0.729 -0.4877  0.0780 -0.1109
15048TIP3    H166635   3.232   0.112   0.800  0.4207  0.1980 -0.9329
15048TIP3    H266636   3.086   0.078   0.774  0.1270 -0.0644  1.0054
15049TIP3   OH266637   2.715   4.241   2.564 -0.1551  0.3416 -0.2197
15049TIP3    H166638   2.661   4.312   2.529 -0.4679  0.0305 -0.3763
15049TIP3    H266639   2.656   4.165   2.566 -0.1325  0.3481  0.9450
15050TIP3   OH266640   6.625   6.166   5.714 -0.0524 -0.6559  0.6569
15050TIP3    H166641   6.662   6.216   5.641 -0.3391 -2.6363 -0.8906
15050TIP3    H266642   6.626   6.075   5.684 -0.8448 -1.4353  2.8535
15051TIP3   OH266643   5.958   1.866   1.416 -0.3275 -0.1990 -0.6149
15051TIP3    H166644   5.874   1.850   1.373 -0.4015  2.7839 -1.6949
15051TIP3    H266645   6.022   1.824   1.360 -1.0036 -1.7136 -0.2687
15052TIP3   OH266646   3.854   0.064   2.617 -0.5033  0.8989 -0.3625
15052TIP3    H166647   3.837  -0.001   2.686 -1.3922  1.6037  0.0923
15052TIP3    H266648   3.946   0.051   2.594 -0.7032 -0.6036 -0.3532
15053TIP3   OH266649   3.177   2.941   1.299 -0.7856  0.4519  0.3112
15053TIP3    H166650   3.125   3.022   1.308 -0.2350  0.8565 -0.1220
15053TIP3    H266651   3.168   2.898   1.384 -2.4609  0.1413  0.0072
15054TIP3   OH266652   4.304   2.420  13.633 -0.1803  0.2160  0.1585
15054TIP3    H166653   4.249   2.379  13.566 -1.2135  0.3919  0.8973
15054TIP3    H266654   4.393   2.394  13.609 -0.5394  0.2617 -1.2719
15055TIP3   OH266655   6.755   4.302   2.432 -0.5636 -0.2520 -0.1522
15055TIP3    H166656   6.666   4.302   2.468 -0.7932  2.0902 -0.6426
15055TIP3    H266657   6.811   4.284   2.507 -1.3210  0.3004  0.5532
15056TIP3   OH266658   0.171   6.418   1.596  0.3444  0.4967 -0.2489
15056TIP3    H166659   0.236   6.410   1.527  0.0076 -1.2840 -0.4023
15056TIP3    H266660   0.221   6.409   1.677  0.1559 -2.5641 -0.3915
15057TIP3   OH266661   4.630   6.416  15.275 -0.5929 -0.4171 -0.3545
15057TIP3    H166662   4.583   6.480  15.329  0.2603 -0.4088  0.3882
15057TIP3    H266663   4.590   6.332  15.298 -1.4506 -0.2052 -1.0453
15058TIP3   OH266664   5.971   4.509   5.589 -0.1300  0.0229  0.2844
15058TIP3    H166665   5.965   4.556   5.672 -0.7832 -0.4026  0.4823
15058TIP3    H266666   6.047   4.547   5.545  0.9425 -0.5724  1.5989
15059TIP3   OH266667   3.408   0.319   0.636  0.1206 -0.2816  0.4040
15059TIP3    H166668   3.374   0.287   0.719 -1.4196 -1.9336 -0.8111
15059TIP3    H266669   3.469   0.251   0.607  0.5174  0.1953  0.1207
15060TIP3   OH266670   0.316   1.838   5.270  0.2406  0.3138  0.3958
15060TIP3    H166671   0.294   1.853   5.362  0.1356 -1.4936  0.6728
15060TIP3    H266672   0.364   1.755   5.269  1.9468  1.2698 -0.9445
15061TIP3   OH266673   0.961   3.975   5.443 -0.1189 -0.6937  0.8833
15061TIP3    H166674   0.869   3.958   5.465 -0.4629  0.7000  0.6192
15061TIP3    H266675   0.964   3.969   5.347 -0.1078  0.0205  0.8347
15062TIP3   OH266676   1.895   3.610  14.343  0.2422  0.4658  0.0264
15062TIP3    H166677   1.968   3.626  14.284  0.8944  2.0284  1.2325
15062TIP3    H266678   1.860   3.697  14.362 -0.1209 -0.0290  1.7349
15063TIP3   OH266679   6.554   6.327  15.181  0.5425 -0.0449  0.6646
15063TIP3    H166680   6.565   6.422  15.180  0.3942 -0.0366 -0.4976
15063TIP3    H266681   6.534   6.304  15.090  1.1581 -1.2558  0.8273
15064TIP3   OH266682   6.488   2.325  12.222  0.0632 -0.6285  0.0179
15064TIP3    H166683   6.433   2.304  12.147  0.4994 -1.1282 -0.1639
15064TIP3    H266684   6.534   2.243  12.242  1.5522  0.0666 -0.4992
15065TIP3   OH266685   4.205   5.139  15.965  0.6826 -0.3338 -1.1540
15065TIP3    H166686   4.271   5.090  15.916  0.4730 -1.4833 -0.3304
15065TIP3    H266687   4.157   5.071  16.013 -1.7099  0.3894 -2.4438
15066TIP3   OH266688   1.249   3.606  14.769 -0.2139 -0.1110  0.3722
15066TIP3    H166689   1.328   3.555  14.755 -1.0554 -1.5033  0.6705
15066TIP3    H266690   1.199   3.596  14.687 -0.2737  0.4481  0.3317
15067TIP3   OH266691   4.699   4.559   2.321 -0.4425 -0.1712  0.0332
15067TIP3    H166692   4.671   4.548   2.230 -1.2663 -0.2645  0.2960
15067TIP3    H266693   4.629   4.518   2.373  0.5294 -1.0651  0.6678
15068TIP3   OH266694   4.670   3.051   4.093  0.4064  0.0102  0.0338
15068TIP3    H166695   4.744   3.009   4.049  1.0291 -0.0810  1.1296
15068TIP3    H266696   4.624   3.098   4.024  1.8092  0.5261 -0.5727
15069TIP3   OH266697   6.342   5.868   1.483 -0.2374  0.4995  0.3060
15069TIP3    H166698   6.432   5.838   1.470 -0.7227 -0.3726 -1.1662
15069TIP3    H266699   6.291   5.787   1.494 -1.0264  0.9392 -0.0634
15070TIP3   OH266700   0.125   4.482  11.329 -0.5152 -0.3157  0.3238
15070TIP3    H166701   0.032   4.464  11.316 -0.2171 -0.1209 -2.5282
15070TIP3    H266702   0.170   4.406  11.292  0.4938  1.2614 -1.8419
15071TIP3   OH266703   6.003   1.453  16.697  0.3264 -0.0776 -0.2782
15071TIP3    H166704   5.940   1.520  16.670  1.7989  1.0172 -1.0768
15071TIP3    H266705   5.965   1.371  16.667 -1.6022  0.3658  0.8968
15072TIP3   OH266706   2.965   0.749   0.324  0.6552 -0.3047  0.0870
15072TIP3    H166707   3.031   0.818   0.334  0.2400  0.5144 -2.4800
15072TIP3    H266708   3.011   0.678   0.279  0.0492 -0.0924 -0.8849
15073TIP3   OH266709   6.683   4.671  16.948  0.1229  0.0295 -0.4613
15073TIP3    H166710   6.655   4.580  16.959  0.0760  0.2134  0.9731
15073TIP3    H266711   6.611   4.723  16.984  0.5387  0.6151 -0.4715
15074TIP3   OH266712   3.103   6.795  16.227  0.2114 -0.3121 -0.2894
15074TIP3    H166713   3.053   6.734  16.281  0.3467  0.7524  1.0872
15074TIP3    H266714   3.064   6.789  16.140 -1.4391 -0.4528  0.4482
15075TIP3   OH266715   3.905   5.183   3.082  0.5681 -0.4301  0.9718
15075TIP3    H166716   3.866   5.243   3.146  1.8691  1.1853  0.2964
15075TIP3    H266717   3.831   5.149   3.033 -0.1222  1.7445  0.4263
15076TIP3   OH266718   3.328   0.521   0.221  0.4648 -0.4795  0.5227
15076TIP3    H166719   3.359   0.581   0.153  2.1573 -0.2264  1.4704
15076TIP3    H266720   3.234   0.514   0.206  0.1709  2.6156  0.5568
15077TIP3   OH266721   6.043   5.030   5.612 -0.2050  0.2876 -0.6425
15077TIP3    H166722   6.012   5.021   5.522  1.1941 -0.0432 -1.1140
15077TIP3    H266723   6.089   4.948   5.630 -0.0731  0.5432  0.2082
15078TIP3   OH266724   2.737   3.618  11.379 -0.0085 -0.1444 -0.0317
15078TIP3    H166725   2.751   3.681  11.309  0.0278 -1.4887 -1.2761
15078TIP3    H266726   2.653   3.642  11.418 -0.6694 -0.1600 -1.4171
15079TIP3   OH266727   3.648   3.017  10.378 -0.3557  0.1351  0.0481
15079TIP3    H166728   3.702   2.951  10.421 -0.2407  0.3023  0.1609
15079TIP3    H266729   3.573   2.968  10.344 -0.2958 -0.0446  0.1737
15080TIP3   OH266730   3.746   2.370   5.324 -0.3587 -0.1252  0.4932
15080TIP3    H166731   3.723   2.414   5.242  0.3001 -1.8766 -0.6683
15080TIP3    H266732   3.670   2.315   5.344 -1.1934  1.5232  1.9542
15081TIP3   OH266733   2.088   3.134  12.175  0.7090 -0.4229 -0.4332
15081TIP3    H166734   2.092   3.224  12.208  0.9808 -0.3365 -0.6975
15081TIP3    H266735   2.121   3.081  12.248 -2.6484 -0.6733  1.0170
15082TIP3   OH266736   5.617   5.185  11.144  0.3758  0.3470  0.3837
15082TIP3    H166737   5.601   5.271  11.184 -0.3573 -0.0046  0.8627
15082TIP3    H266738   5.538   5.134  11.164  0.3358 -0.0956 -0.8241
15083TIP3   OH266739   4.911   2.124  14.825 -0.5667 -0.3750  0.2646
15083TIP3    H166740   4.925   2.184  14.898 -2.1525 -1.7388  1.7203
15083TIP3    H266741   4.832   2.157  14.781 -1.3545 -1.3090  0.9779
15084TIP3   OH266742   3.862   6.501   0.714  0.8130  0.4599 -0.0829
15084TIP3    H166743   3.816   6.505   0.798  0.8853 -2.3941  0.1193
15084TIP3    H266744   3.802   6.543   0.652 -0.4753  0.0764  0.8766
15085TIP3   OH266745   4.824   3.526   2.262 -0.2113  0.0125  0.3352
15085TIP3    H166746   4.889   3.596   2.259  0.2097 -0.3626  0.5671
15085TIP3    H266747   4.867   3.456   2.311 -0.3684 -0.6787 -0.5001
15086TIP3   OH266748   4.761   3.232  11.718  0.2047 -0.1809  0.2427
15086TIP3    H166749   4.693   3.197  11.661  1.1227 -0.0235 -0.9626
15086TIP3    H266750   4.758   3.175  11.795 -0.1988 -1.1804 -0.4873
15087TIP3   OH266751   2.058   5.166  13.678 -0.2806 -0.3791  0.2635
15087TIP3    H166752   2.067   5.099  13.611  2.4264 -0.3126  0.5103
15087TIP3    H266753   2.011   5.122  13.749 -0.2069 -1.4436 -0.3303
15088TIP3   OH266754   3.621   1.452  13.335  0.1960 -0.1119  0.4231
15088TIP3    H166755   3.650   1.512  13.266  0.3612 -1.7699 -0.9821
15088TIP3    H266756   3.537   1.418  13.305  1.5473 -2.9761 -0.3859
15089TIP3   OH266757   3.729   3.581  12.848 -0.2152 -0.4086  0.2893
15089TIP3    H166758   3.636   3.561  12.841 -0.5965  1.2992  0.1507
15089TIP3    H266759   3.773   3.496  12.838 -1.7266 -1.1637 -0.1144
15090TIP3   OH266760   5.472   3.853  15.546 -0.8546 -0.4604  0.0600
15090TIP3    H166761   5.510   3.780  15.498 -1.7805 -1.3078  0.5855
15090TIP3    H266762   5.424   3.903  15.480 -1.4850 -1.1932 -0.0517
15091TIP3   OH266763   0.309   2.792   4.181 -0.1903  0.1922 -0.2720
15091TIP3    H166764   0.313   2.749   4.095 -0.8517 -0.6385  0.1172
15091TIP3    H266765   0.401   2.814   4.201 -0.0575  0.5964 -1.2870
15092TIP3   OH266766   0.487   4.167   6.322  0.0009  0.4888 -0.1245
15092TIP3    H166767   0.472   4.103   6.253  1.3649  0.4261 -0.3802
15092TIP3    H266768   0.454   4.125   6.402 -1.1642  0.3815 -0.6550
15093TIP3   OH266769   3.422   0.611   4.176 -0.1740 -0.1067 -0.0775
15093TIP3    H166770   3.380   0.695   4.195  1.4504  0.5164  0.9336
15093TIP3    H266771   3.478   0.595   4.252  0.4619 -1.5169 -0.8179
15094TIP3   OH266772   1.493   6.466  15.057  0.0299  0.3864 -0.1407
15094TIP3    H166773   1.419   6.407  15.043  1.8572 -2.6481  2.1945
15094TIP3    H266774   1.490   6.487  15.151  1.4668  1.1075 -0.2377
15095TIP3   OH266775   3.414   0.766   6.163  0.6576  0.1367  0.0737
15095TIP3    H166776   3.351   0.836   6.183  0.1420 -0.4031  0.3397
15095TIP3    H266777   3.407   0.705   6.236  0.1428 -0.8714 -0.8009
15096TIP3   OH266778   4.902   3.664  12.931  0.2805  0.3424  0.1056
15096TIP3    H166779   4.946   3.740  12.970 -0.8501  0.9728  0.1798
15096TIP3    H266780   4.840   3.701  12.868  2.0656 -0.6668 -2.3298
15097TIP3   OH266781   5.313   5.795  14.888 -0.3099  0.1698  0.1358
15097TIP3    H166782   5.316   5.761  14.977 -1.8704 -1.1819 -0.3085
15097TIP3    H266783   5.405   5.806  14.863  0.1472 -0.5833  1.4724
15098TIP3   OH266784   0.161   2.862  12.147  0.2561  0.6845 -0.0244
15098TIP3    H166785   0.121   2.834  12.229 -0.3190  0.5737 -0.3363
15098TIP3    H266786   0.246   2.899  12.172  0.7913 -0.8347  0.4456
15099TIP3   OH266787   4.745   5.880   6.180  0.0949  0.2898  0.0314
15099TIP3    H166788   4.764   5.933   6.102  3.3262 -0.0584  0.5195
15099TIP3    H266789   4.700   5.803   6.146 -0.6445  1.2497 -1.2087
15100TIP3   OH266790   0.974   3.815   0.163 -0.2062  0.1589 -0.6140
15100TIP3    H166791   0.943   3.821   0.254 -0.9273  2.7943 -0.9652
15100TIP3    H266792   0.911   3.757   0.120 -0.6419 -0.0454  0.2832
15101TIP3   OH266793   0.920   3.807   2.023 -0.5888 -0.7345 -0.5280
15101TIP3    H166794   0.899   3.774   2.111 -2.6151 -1.8402 -1.4098
15101TIP3    H266795   0.912   3.730   1.966 -0.3167  0.2058 -1.8542
15102TIP3   OH266796   6.361   6.708   4.578 -0.1375 -0.4175 -0.2899
15102TIP3    H166797   6.374   6.800   4.599  0.4289 -0.7979  1.0711
15102TIP3    H266798   6.420   6.691   4.504  0.3157  0.1208 -0.0481
15103TIP3   OH266799   5.640   0.114  16.466 -0.5746  0.1374  0.1366
15103TIP3    H166800   5.623   0.122  16.372  1.3693  0.5692 -0.2053
15103TIP3    H266801   5.553   0.106  16.506 -1.3701 -1.0471 -1.7869
15104TIP3   OH266802   2.447   4.238   0.142  0.0862 -0.6410 -0.5904
15104TIP3    H166803   2.399   4.162   0.110 -0.7089 -0.1392 -0.6091
15104TIP3    H266804   2.537   4.224   0.113  0.3315 -2.4307  0.9036
15105TIP3   OH266805   0.419   2.891  15.461 -0.1033 -0.1792 -0.3236
15105TIP3    H166806   0.502   2.864  15.421 -1.9500 -3.3024 -2.2721
15105TIP3    H266807   0.410   2.983  15.437  2.2395 -0.1127 -1.0874
15106TIP3   OH266808   5.792   2.398   2.112  0.1603  0.3943  0.0581
15106TIP3    H166809   5.761   2.482   2.078 -2.1705 -0.5536 -0.2667
15106TIP3    H266810   5.836   2.357   2.038  0.8610  1.0863  0.0777
15107TIP3   OH266811   5.854   6.474  14.135  0.3741  0.3360  0.2324
15107TIP3    H166812   5.902   6.510  14.060 -1.7980  0.6702 -1.0479
15107TIP3    H266813   5.885   6.525  14.210  4.0710 -1.3421 -0.0514
15108TIP3   OH266814   0.751   2.963  16.264 -0.3126  0.1190  0.3050
15108TIP3    H166815   0.747   2.914  16.346 -1.0441  0.2860  0.3785
15108TIP3    H266816   0.735   3.054  16.290 -1.5065  0.0415 -0.1393
15109TIP3   OH266817   6.790   0.021   2.986 -0.4067  0.0430 -0.1860
15109TIP3    H166818   6.757   0.095   3.036  2.4289  0.1836  1.5569
15109TIP3    H266819   6.713  -0.013   2.940 -1.9812  3.3184 -0.1102
15110TIP3   OH266820   4.327   1.269   4.482 -0.5625 -0.2011 -0.1246
15110TIP3    H166821   4.246   1.308   4.448 -1.2981 -2.2937 -0.8171
15110TIP3    H266822   4.386   1.268   4.408 -0.0963  0.7480  0.2229
15111TIP3   OH266823   0.255   3.181   5.811  0.0754 -0.5715  0.1741
15111TIP3    H166824   0.341   3.177   5.854 -0.5340  0.9082  1.6270
15111TIP3    H266825   0.272   3.157   5.720  1.5627 -2.9728  1.0497
15112TIP3   OH266826   6.142   5.288  15.923 -0.2034 -0.1055 -0.2844
15112TIP3    H166827   6.126   5.381  15.937  0.1583  0.2625 -2.2245
15112TIP3    H266828   6.205   5.264  15.991  1.7673  1.6885 -1.4196
15113TIP3   OH266829   0.908   3.983  12.183 -0.4372  0.5585 -0.1443
15113TIP3    H166830   1.003   3.991  12.175 -0.2540 -1.3918  0.0435
15113TIP3    H266831   0.892   3.971  12.276 -0.9236  1.2551 -0.1233
15114TIP3   OH266832   3.159   1.707   3.509 -0.4504 -0.5001  0.0795
15114TIP3    H166833   3.168   1.663   3.424 -1.3825 -3.1020  1.2655
15114TIP3    H266834   3.095   1.776   3.493 -1.1536 -1.4157 -1.1762
15115TIP3   OH266835   4.470   1.290   5.586  0.3874 -0.4163 -0.1824
15115TIP3    H166836   4.454   1.384   5.595  1.6624 -0.3561  1.8197
15115TIP3    H266837   4.383   1.251   5.575 -0.1741  0.9338 -0.6196
15116TIP3   OH266838   3.880   3.345  11.490  0.2979 -0.1656  0.1221
15116TIP3    H166839   3.788   3.364  11.474  0.1154  0.1379  1.4955
15116TIP3    H266840   3.890   3.252  11.470 -0.8950 -0.8403  2.5675
15117TIP3   OH266841   6.220   3.438  17.021 -0.1577  0.0359  0.1533
15117TIP3    H166842   6.179   3.425  17.107 -0.6311 -1.0642 -0.2282
15117TIP3    H266843   6.304   3.393  17.027 -0.3311 -0.3233 -0.0561
15118TIP3   OH266844   2.908   5.894  16.302 -0.1244 -0.1309 -0.5119
15118TIP3    H166845   2.892   5.817  16.357  1.7547  0.1064  0.4078
15118TIP3    H266846   2.877   5.868  16.216 -1.0156 -1.3317  0.1474
15119TIP3   OH266847   1.245   3.464  13.991 -0.2206 -0.5148 -0.1701
15119TIP3    H166848   1.200   3.381  14.009  3.9901 -2.5140  2.0046
15119TIP3    H266849   1.315   3.468  14.057  0.8474  3.9012 -1.3882
15120TIP3   OH266850   5.874   3.232  15.226 -0.3543 -0.4751 -0.1608
15120TIP3    H166851   5.793   3.284  15.226 -0.7598 -1.0889  0.8036
15120TIP3    H266852   5.944   3.296  15.219 -0.8582  0.2007  0.8877
15121TIP3   OH266853   4.183   6.658  16.254  0.0983 -0.4181 -0.1046
15121TIP3    H166854   4.241   6.689  16.324  1.6548 -1.9795 -0.6786
15121TIP3    H266855   4.095   6.682  16.284  0.7676 -0.6809  2.1986
15122TIP3   OH266856   5.110   4.209   1.505  0.3037 -0.5549 -0.1791
15122TIP3    H166857   5.177   4.226   1.439 -0.3059 -1.0024 -0.9259
15122TIP3    H266858   5.159   4.192   1.585  1.0425  0.6219 -0.3620
15123TIP3   OH266859   2.905   1.906   5.855 -0.3781 -1.0074 -0.0436
15123TIP3    H166860   2.987   1.953   5.840 -0.2343 -1.3048 -0.1797
15123TIP3    H266861   2.931   1.816   5.871 -0.5879 -0.8622  1.1925
15124TIP3   OH266862   3.128   4.239  10.945  0.1277 -0.3718 -0.4829
15124TIP3    H166863   3.145   4.238  10.851 -0.0423 -1.2057 -0.5037
15124TIP3    H266864   3.043   4.197  10.955 -0.0836  0.1591  0.0017
15125TIP3   OH266865   0.299   5.879   3.247  0.1237  0.3062 -0.5911
15125TIP3    H166866   0.339   5.792   3.244  0.9210  0.6665 -0.6684
15125TIP3    H266867   0.206   5.862   3.262  0.6101 -0.4998  1.8758
15126TIP3   OH266868   3.464   6.345   4.906 -0.0326 -0.0221 -0.3168
15126TIP3    H166869   3.558   6.356   4.923  0.4986 -3.2702 -0.7745
15126TIP3    H266870   3.441   6.420   4.852  2.5812  0.3056 -1.0810
15127TIP3   OH266871   5.020   6.131  11.410 -0.4481 -0.1283  0.6580
15127TIP3    H166872   5.053   6.189  11.341  1.1325  0.1047  1.5938
15127TIP3    H266873   4.967   6.188  11.466  0.2496  0.2006  0.9890
15128TIP3   OH266874   2.727   3.317   0.554 -0.2569  0.5799  0.0606
15128TIP3    H166875   2.679   3.325   0.472  0.8579  1.2675 -0.5340
15128TIP3    H266876   2.762   3.228   0.554 -1.1989  0.2059  0.3189
15129TIP3   OH266877   1.617   1.267  16.865  0.1193  0.3581  0.4278
15129TIP3    H166878   1.658   1.207  16.926  0.2620 -1.2852 -1.2303
15129TIP3    H266879   1.527   1.276  16.896  0.3085 -0.1246  1.1020
15130TIP3   OH266880   3.564   4.189  12.704  0.0336  0.4963 -0.1761
15130TIP3    H166881   3.539   4.272  12.744 -0.8309 -0.1437  0.6163
15130TIP3    H266882   3.521   4.190  12.618 -1.5985  0.0276  0.6121
15131TIP3   OH266883   2.587   0.717   0.983 -0.0633  0.0473  0.5147
15131TIP3    H166884   2.621   0.690   0.898  0.3617  1.8158  0.0922
15131TIP3    H266885   2.614   0.648   1.043 -1.1284 -1.6678 -0.9213
15132TIP3   OH266886   6.280   4.355   1.525 -0.0997 -0.4253  0.4480
15132TIP3    H166887   6.291   4.417   1.596 -0.7687 -0.0859  0.2618
15132TIP3    H266888   6.364   4.309   1.519  0.3356  0.3411  0.6945
15133TIP3   OH266889   6.480   6.054  13.568  0.2250  0.0443 -0.2966
15133TIP3    H166890   6.407   6.114  13.578 -0.1173 -0.2478 -1.0161
15133TIP3    H266891   6.487   6.010  13.653 -0.4378  0.0720 -0.2319
15134TIP3   OH266892   5.106   3.309   1.175  0.0827  0.0233  0.0735
15134TIP3    H166893   5.078   3.339   1.088 -3.7330  0.2816  1.2927
15134TIP3    H266894   5.074   3.377   1.235 -0.0972 -1.6699  1.9382
15135TIP3   OH266895   4.325   5.343   1.897 -0.1368 -0.4074  0.0123
15135TIP3    H166896   4.260   5.389   1.949 -0.1446  0.2766 -0.5870
15135TIP3    H266897   4.379   5.413   1.859  1.9210 -0.9960  1.7516
15136TIP3   OH266898   5.926   0.441   0.926 -0.4689 -0.0695  0.2890
15136TIP3    H166899   5.947   0.512   0.866  1.0064 -0.9348 -0.2293
15136TIP3    H266900   5.897   0.485   1.006  0.2061  1.1075 -0.1128
15137TIP3   OH266901   4.074   1.618   2.415 -0.1955 -0.1130 -0.1216
15137TIP3    H166902   4.018   1.552   2.374 -1.6095  0.0952  1.4280
15137TIP3    H266903   4.020   1.656   2.484  0.9063  2.0422 -0.4029
15138TIP3   OH266904   0.032   3.308   3.266 -1.0388 -0.4377  0.0782
15138TIP3    H166905   0.060   3.233   3.212  1.0155  1.0257 -0.9923
15138TIP3    H266906   0.103   3.371   3.256 -1.9334  0.9755  2.3534
15139TIP3   OH266907   2.256   0.918  14.529  0.1452 -0.1574  0.8785
15139TIP3    H166908   2.345   0.886  14.547  0.3212 -0.5165 -0.6087
15139TIP3    H266909   2.258   0.946  14.438 -1.1270  0.3662  0.9975
15140TIP3   OH266910   1.436   2.197   2.040 -0.3716  0.1171  0.4658
15140TIP3    H166911   1.378   2.266   2.007 -0.7660 -0.7676 -0.7218
15140TIP3    H266912   1.522   2.219   2.003 -0.6552 -0.4435 -0.5510
15141TIP3   OH266913   5.996   6.604   3.796  0.0276 -0.8194 -0.3934
15141TIP3    H166914   5.935   6.530   3.800 -0.7764 -0.1367  0.0628
15141TIP3    H266915   6.047   6.597   3.877 -1.5985  0.4342  0.7773
15142TIP3   OH266916   4.444   2.616   6.499 -0.9233  0.2647 -0.3394
15142TIP3    H166917   4.448   2.525   6.471 -0.9356  0.1182  0.1237
15142TIP3    H266918   4.524   2.629   6.551 -0.7175  0.6321 -0.7449
15143TIP3   OH266919   2.920   3.152  16.514  0.1106 -0.1761 -0.5249
15143TIP3    H166920   2.977   3.089  16.558  1.2701  1.2639  0.0663
15143TIP3    H266921   2.980   3.214  16.472 -1.0033 -0.0411 -1.9689
15144TIP3   OH266922   4.270   4.783  10.910  0.6287  0.0828  0.2294
15144TIP3    H166923   4.190   4.811  10.866  1.3529  2.0803  0.1174
15144TIP3    H266924   4.247   4.781  11.003  0.0657 -0.7064  0.0727
15145TIP3   OH266925   5.283   2.129   2.017  0.5536 -0.1862 -0.2960
15145TIP3    H166926   5.309   2.037   2.015 -0.8938 -0.5744 -2.2119
15145TIP3    H266927   5.351   2.174   1.966  1.2785 -0.1774  0.6676
15146TIP3   OH266928   6.396   3.720   4.700  0.8030  0.0894 -0.0580
15146TIP3    H166929   6.327   3.761   4.752  0.1782 -2.4952  1.2495
15146TIP3    H266930   6.361   3.721   4.610  0.6997  2.1074 -0.0184
15147TIP3   OH266931   0.787   3.623  12.481 -0.0773  0.3085 -0.1778
15147TIP3    H166932   0.703   3.662  12.506 -0.7501 -1.0932 -0.1709
15147TIP3    H266933   0.847   3.647  12.551 -0.5077  1.2027 -0.1069
15148TIP3   OH266934   4.996   3.606   5.534 -0.2264  0.1894 -0.0221
15148TIP3    H166935   5.026   3.693   5.509  0.6158 -0.8444 -2.8861
15148TIP3    H266936   4.906   3.619   5.564 -1.0864  1.7243 -3.0374
15149TIP3   OH266937   4.115   1.208  12.300 -0.6601 -0.2041 -0.3000
15149TIP3    H166938   4.201   1.165  12.299 -0.6219 -0.1136 -1.6651
15149TIP3    H266939   4.053   1.135  12.296 -0.6478 -0.2604  0.4763
15150TIP3   OH266940   3.142   3.231   3.150 -0.1738  0.5206  0.4446
15150TIP3    H166941   3.196   3.285   3.208 -0.1169  0.6145  0.3027
15150TIP3    H266942   3.113   3.158   3.206 -0.2266  0.6806  0.6265
15151TIP3   OH266943   3.303   0.830  15.051 -0.0469 -0.0077 -0.2256
15151TIP3    H166944   3.358   0.767  15.004 -2.5683 -1.8149 -0.8346
15151TIP3    H266945   3.362   0.903  15.070  2.8984 -2.3693  0.1998
15152TIP3   OH266946   6.812   2.916   6.392  0.4013 -0.8964 -0.0611
15152TIP3    H166947   6.874   2.896   6.461 -0.1125  3.1819  1.7112
15152TIP3    H266948   6.726   2.914   6.435 -0.0935 -0.1549 -0.9855
15153TIP3   OH266949   3.711   4.085   1.291  0.3357 -0.1402  0.0780
15153TIP3    H166950   3.616   4.073   1.303  0.1018  0.6169 -0.9838
15153TIP3    H266951   3.720   4.121   1.203  1.7413 -1.8527 -0.5208
15154TIP3   OH266952   1.305   2.670  11.628 -0.5261  0.2022 -0.4263
15154TIP3    H166953   1.303   2.652  11.534 -1.0874 -1.2846 -0.1409
15154TIP3    H266954   1.339   2.760  11.634 -2.1732  0.9927 -2.1367
15155TIP3   OH266955   0.020   1.458   5.882  0.4028  0.2095  0.0581
15155TIP3    H166956   0.004   1.461   5.976 -0.5006 -2.3364  0.0307
15155TIP3    H266957  -0.064   1.479   5.842 -0.4835 -3.2780 -0.1075
15156TIP3   OH266958   6.496   6.323   4.530  0.3568  0.4009  0.6349
15156TIP3    H166959   6.577   6.299   4.575  0.8663  0.0579 -0.4420
15156TIP3    H266960   6.525   6.361   4.446 -0.6384 -2.5451 -1.1112
15157TIP3   OH266961   4.235   2.020   2.299  0.0234  0.0684 -0.0033
15157TIP3    H166962   4.159   2.076   2.314  0.6299  0.5352  1.4695
15157TIP3    H266963   4.275   2.010   2.386  1.5582 -0.2870 -0.7260
15158TIP3   OH266964   6.465   6.032  11.884 -0.2558  0.5098  0.0386
15158TIP3    H166965   6.414   6.055  11.962 -0.8783  2.9377 -1.0299
15158TIP3    H266966   6.477   6.115  11.838  2.4721 -0.4371 -1.0691
15159TIP3   OH266967   2.204   2.994  12.677 -0.5782 -0.4029  0.3749
15159TIP3    H166968   2.215   3.065  12.740  1.2266 -0.7605  0.4997
15159TIP3    H266969   2.121   2.953  12.701 -1.4729  1.4181  0.5218
15160TIP3   OH266970   3.817   5.209  12.375  0.0438 -0.1165 -0.1807
15160TIP3    H166971   3.766   5.162  12.309  0.0962  0.0078 -0.3093
15160TIP3    H266972   3.881   5.145  12.405 -1.9191 -1.1673  1.9643
15161TIP3   OH266973   1.003   0.800  15.747 -0.3591  0.6580  0.1237
15161TIP3    H166974   0.982   0.729  15.808  0.3246  0.0589 -0.3327
15161TIP3    H266975   1.074   0.848  15.789 -1.2767  1.5042  0.7533
15162TIP3   OH266976   5.789   4.646  10.810 -0.6374  0.3460 -0.6751
15162TIP3    H166977   5.758   4.669  10.898  0.4884 -0.4952 -0.0388
15162TIP3    H266978   5.848   4.718  10.786  0.7099 -0.4500  0.1591
15163TIP3   OH266979   2.628   5.768  15.278  0.1558 -0.7916  0.2602
15163TIP3    H166980   2.565   5.840  15.272  0.6173 -0.4592 -0.6622
15163TIP3    H266981   2.583   5.702  15.331 -1.3116 -0.9048 -1.0626
15164TIP3   OH266982   2.304   4.185  13.248  0.2359  0.3029 -0.0051
15164TIP3    H166983   2.295   4.161  13.156 -1.1521  0.6372  0.0321
15164TIP3    H266984   2.397   4.173  13.267  0.2348 -1.4407 -0.9764
15165TIP3   OH266985   6.412   3.246  13.739  0.3653  0.8684 -0.2887
15165TIP3    H166986   6.429   3.324  13.686  1.2428  2.1085  1.7856
15165TIP3    H266987   6.499   3.217  13.767 -0.1204  0.4876  0.8545
15166TIP3   OH266988   3.369   6.299   4.289 -0.1903 -0.1859  0.3659
15166TIP3    H166989   3.409   6.215   4.268  1.2942  1.1045 -2.2623
15166TIP3    H266990   3.276   6.287   4.271  0.0504 -1.2179 -0.2070
15167TIP3   OH266991   2.908   6.149  13.000  0.5920 -0.2312  0.1580
15167TIP3    H166992   2.961   6.169  13.077  1.3933  0.1596 -0.4817
15167TIP3    H266993   2.842   6.218  12.997  1.1349  0.2828 -0.0242
15168TIP3   OH266994   5.878   1.106   1.779  0.6124  0.2872 -0.5202
15168TIP3    H166995   5.799   1.107   1.725  0.9868 -0.0139 -1.0755
15168TIP3    H266996   5.875   1.189   1.827 -0.7185 -0.3196  0.4649
15169TIP3   OH266997   1.601   6.366  16.266 -0.1071 -0.1862 -0.1529
15169TIP3    H166998   1.524   6.376  16.323 -0.8547 -0.6980 -1.0668
15169TIP3    H266999   1.606   6.449  16.219  1.7417  1.0615  2.1282
15170TIP3   OH267000   0.020   5.975  15.815 -0.2733 -0.1457 -0.5396
15170TIP3    H167001   0.041   6.055  15.863  2.0745  0.0233 -1.7644
15170TIP3    H267002  -0.060   5.943  15.856  0.9913  0.6025  2.6944
15171TIP3   OH267003   3.446   0.042   0.326  0.1246  0.1722 -0.4601
15171TIP3    H167004   3.523   0.090   0.296 -0.5021 -0.4701 -3.2801
15171TIP3    H267005   3.383   0.049   0.254 -2.0359 -0.2832  1.3111
15172TIP3   OH267006   2.034   2.046  13.940 -0.7107 -0.6267  0.4777
15172TIP3    H167007   2.065   2.130  13.974 -0.0420 -0.5897 -0.2034
15172TIP3    H267008   2.049   2.052  13.845  1.9860 -2.6010  0.7288
15173TIP3   OH267009   4.425   4.835  13.668 -0.6820  0.0624  0.0691
15173TIP3    H167010   4.380   4.911  13.631 -1.1681 -0.8102 -1.1621
15173TIP3    H267011   4.449   4.782  13.592  2.9548  0.7790  0.6543
15174TIP3   OH267012   4.326   4.236  13.263  0.2486  0.5572  0.2782
15174TIP3    H167013   4.328   4.201  13.352  1.2965  0.3206  0.1699
15174TIP3    H267014   4.404   4.291  13.258  0.9432 -0.5106 -0.9196
15175TIP3   OH267015   6.217   4.370  11.657  0.4350 -0.3224  0.1586
15175TIP3    H167016   6.208   4.293  11.714  2.9193 -1.2442 -0.6419
15175TIP3    H267017   6.285   4.423  11.699  0.5602  0.1758 -0.6664
15176TIP3   OH267018   3.640   6.254   2.440 -0.4181 -0.5736 -0.1351
15176TIP3    H167019   3.647   6.341   2.479  1.2177 -0.7820  0.0577
15176TIP3    H267020   3.682   6.262   2.354 -0.5063 -1.1030 -0.2338
15177TIP3   OH267021   3.830   5.271  12.877  0.2622  0.3723  0.1588
15177TIP3    H167022   3.772   5.305  12.809 -0.0636  0.8167  0.6528
15177TIP3    H267023   3.907   5.328  12.874  0.9755 -0.6349 -0.9529
15178TIP3   OH267024   4.001   6.533   1.689  0.0415  0.0929 -0.4283
15178TIP3    H167025   4.035   6.492   1.610  1.5093 -1.0739  0.7985
15178TIP3    H267026   3.939   6.469   1.724  0.0456  0.2456 -0.1424
15179TIP3   OH267027   1.973   2.348  14.729  0.6410  0.0761  0.4349
15179TIP3    H167028   1.986   2.365  14.635 -1.4404  0.7557  0.2198
15179TIP3    H267029   1.925   2.266  14.732  0.4107  0.2240  0.8766
15180TIP3   OH267030   0.400   6.386   5.509  0.0120  0.7851  0.0118
15180TIP3    H167031   0.421   6.295   5.487 -0.0263  1.2573 -2.0782
15180TIP3    H267032   0.433   6.397   5.598  0.1664 -1.2212  0.2392
15181TIP3   OH267033   5.148   1.473   4.303  0.2273  0.1989  0.9258
15181TIP3    H167034   5.163   1.555   4.255  0.6542  0.3333  1.2816
15181TIP3    H267035   5.236   1.437   4.316  0.0746 -0.0894  1.1579
15182TIP3   OH267036   2.359   1.820   0.423 -0.1918  0.3815  0.1040
15182TIP3    H167037   2.344   1.894   0.364  0.9809  0.9971  0.5778
15182TIP3    H267038   2.336   1.743   0.370 -1.2331  1.0544 -0.4480
15183TIP3   OH267039   5.873   3.615   3.137  0.2884 -0.6441  0.0839
15183TIP3    H167040   5.838   3.527   3.153 -1.1557  0.1882  1.6322
15183TIP3    H267041   5.902   3.645   3.223 -2.4710  1.7385  0.2606
15184TIP3   OH267042   1.077   0.525  13.043 -0.3275 -0.1385 -0.1569
15184TIP3    H167043   1.005   0.479  13.086 -1.2113  1.3745  0.0421
15184TIP3    H267044   1.037   0.562  12.964  0.3279  0.3674 -0.2511
15185TIP3   OH267045   3.334   5.879  15.611 -0.1587  0.4860 -0.6510
15185TIP3    H167046   3.339   5.795  15.566  0.7927  0.1937 -0.0128
15185TIP3    H267047   3.343   5.858  15.704 -1.6941  1.1249 -0.3426
15186TIP3   OH267048   6.222   5.720   0.612  0.3422 -0.1114  0.5150
15186TIP3    H167049   6.137   5.758   0.594 -0.5875 -2.5614 -0.4475
15186TIP3    H267050   6.268   5.722   0.528  0.3610 -0.8727  0.4991
15187TIP3   OH267051   1.772   0.844   4.458  0.0752  0.6316 -0.4986
15187TIP3    H167052   1.752   0.751   4.469 -0.5980  0.8950  0.6897
15187TIP3    H267053   1.815   0.850   4.373  0.7325 -0.8578 -0.2815
15188TIP3   OH267054   1.198   1.864   2.815 -0.5693 -1.1545  0.5552
15188TIP3    H167055   1.270   1.927   2.818 -0.4095 -1.2248 -1.3921
15188TIP3    H267056   1.179   1.846   2.907  1.7318 -0.9390  1.1091
15189TIP3   OH267057   5.729   4.396  12.606  0.1310  0.0831  0.8055
15189TIP3    H167058   5.757   4.412  12.516  0.9632 -1.2067  0.8210
15189TIP3    H267059   5.741   4.480  12.650  0.4678  0.5162 -0.0904
15190TIP3   OH267060   1.041   0.514   6.538 -0.1273  0.8078 -0.7105
15190TIP3    H167061   0.950   0.512   6.568 -0.3037  2.6641 -1.0268
15190TIP3    H267062   1.076   0.427   6.559 -1.6748  0.4185  0.3232
15191TIP3   OH267063   5.593   4.441  11.167 -0.2718  0.0810  0.7768
15191TIP3    H167064   5.621   4.387  11.093  0.3486 -0.0829  1.1253
15191TIP3    H267065   5.498   4.438  11.164 -0.2433 -1.0390  0.7918
15192TIP3   OH267066   0.772   0.405   2.601 -0.2251 -0.1953 -0.3121
15192TIP3    H167067   0.855   0.357   2.598  0.2298  0.1292  4.1749
15192TIP3    H267068   0.797   0.496   2.617 -1.4018 -0.0581  0.8804
15193TIP3   OH267069   2.510   5.550  13.636  0.3024  0.1706 -0.0603
15193TIP3    H167070   2.474   5.631  13.600 -1.2911 -0.2092  0.6751
15193TIP3    H267071   2.444   5.484  13.616  0.9372 -0.6753  0.6344
15194TIP3   OH267072   1.729   4.641  11.755  0.7459  0.1615 -0.4874
15194TIP3    H167073   1.682   4.690  11.687 -2.2278  0.5983  1.7884
15194TIP3    H267074   1.766   4.709  11.812  1.6566 -0.2324 -0.5918
15195TIP3   OH267075   4.480   4.209   1.301  0.7014  0.7015 -0.0674
15195TIP3    H167076   4.483   4.257   1.383 -0.2593 -0.4732  0.6714
15195TIP3    H267077   4.436   4.127   1.322  1.9848 -0.3652 -1.3806
15196TIP3   OH267078   5.093   0.434   2.004  0.3579  0.7900 -0.2742
15196TIP3    H167079   5.166   0.486   1.969  0.3774  0.5945 -0.5249
15196TIP3    H267080   5.135   0.354   2.035  0.2621  0.7188 -0.3302
15197TIP3   OH267081   5.347   3.129  10.635  0.0626 -0.0154  0.3321
15197TIP3    H167082   5.398   3.165  10.562 -1.4037 -1.4889 -1.4920
15197TIP3    H267083   5.285   3.198  10.657 -0.5050 -0.1447 -0.8534
15198TIP3   OH267084   0.424   5.321   1.004  0.3309  0.2039 -0.0294
15198TIP3    H167085   0.442   5.368   1.086  1.7239 -1.2412  0.5072
15198TIP3    H267086   0.333   5.344   0.984  0.0426  0.7854  1.7905
15199TIP3   OH267087   0.440   3.659   2.595  0.5515  0.8088 -0.1677
15199TIP3    H167088   0.466   3.604   2.669 -0.4444  1.1432  0.4476
15199TIP3    H267089   0.401   3.737   2.636  0.5788  1.2876 -1.0430
15200TIP3   OH267090   4.429   5.021  11.745 -0.3897 -0.5697 -0.0268
15200TIP3    H167091   4.356   4.960  11.757 -1.2560  0.1491 -1.4159
15200TIP3    H267092   4.436   5.066  11.829  0.6701 -2.9862  1.2250
15201TIP3   OH267093   2.404   2.261  13.923  0.4923  0.3499 -0.2944
15201TIP3    H167094   2.335   2.296  13.867 -0.4179 -0.9701 -0.0320
15201TIP3    H267095   2.373   2.275  14.012  1.1381  0.8841 -0.1537
15202TIP3   OH267096   4.535   4.865  11.079  0.1129 -0.4136 -0.6973
15202TIP3    H167097   4.536   4.923  11.155 -0.5212 -0.7487 -0.4326
15202TIP3    H267098   4.530   4.777  11.116 -0.4842 -0.5636 -1.1309
15203TIP3   OH267099   6.276   5.905   6.197  0.3453 -0.1822  0.0987
15203TIP3    H167100   6.289   5.991   6.157  0.5865 -0.4922 -0.4960
15203TIP3    H267101   6.187   5.881   6.174  0.4068 -0.2595 -0.0589
15204TIP3   OH267102   2.881   0.440   6.161 -0.1744 -0.0267 -0.3536
15204TIP3    H167103   2.944   0.493   6.112 -0.1494  0.5062  0.2470
15204TIP3    H267104   2.795   0.478   6.139 -0.1401  0.4009  0.2395
15205TIP3   OH267105   2.069   1.372   0.763  0.2035 -0.2394  0.1772
15205TIP3    H167106   1.994   1.337   0.812  1.5345 -2.7131  0.5183
15205TIP3    H267107   2.034   1.390   0.675 -0.7374 -1.6206  0.2601
15206TIP3   OH267108   4.294   4.887  12.454  0.3545  0.0726  0.0794
15206TIP3    H167109   4.211   4.881  12.407  0.2247  0.6436  0.2409
15206TIP3    H267110   4.304   4.980  12.475  1.0693  0.0195 -0.0082
15207TIP3   OH267111   0.164   0.137   1.885  0.1297  0.7341  0.5230
15207TIP3    H167112   0.139   0.214   1.835 -1.4127 -0.4438 -0.5658
15207TIP3    H267113   0.260   0.137   1.884  0.1253  1.1167 -1.8362
15208TIP3   OH267114   1.111   3.331  12.434 -0.5419  0.1452  0.3304
15208TIP3    H167115   1.180   3.306  12.497 -0.8816 -0.4423  0.4721
15208TIP3    H267116   1.035   3.279  12.460 -0.7099 -0.0305 -0.5189
15209TIP3   OH267117   5.459   6.774   2.038 -0.4383  0.2092  0.2544
15209TIP3    H167118   5.489   6.862   2.059  0.6783 -0.1825  0.3094
15209TIP3    H267119   5.476   6.765   1.945  0.8064 -0.4684  0.5374
15210TIP3   OH267120   4.354   5.178  16.829  0.0003 -0.3377  0.4377
15210TIP3    H167121   4.300   5.245  16.787 -0.2280 -0.5625  0.3695
15210TIP3    H267122   4.434   5.176  16.777 -0.3048 -0.6508 -0.0271
15211TIP3   OH267123   5.504   6.355  11.668  0.7598  0.3154 -0.0151
15211TIP3    H167124   5.530   6.282  11.724  0.8530  0.3839  0.0295
15211TIP3    H267125   5.414   6.374  11.695  0.2744 -0.6217 -0.9036
15212TIP3   OH267126   3.443   1.695  14.588  0.0168 -0.0184 -0.9062
15212TIP3    H167127   3.425   1.789  14.586  1.5825  0.2992 -1.2112
15212TIP3    H267128   3.414   1.667  14.675 -0.5276  0.7312 -0.8413
15213TIP3   OH267129   5.896   4.629  16.397  0.0061  0.1247  0.1010
15213TIP3    H167130   5.916   4.610  16.489 -0.0454 -0.1757  0.0501
15213TIP3    H267131   5.827   4.695  16.401  1.5648  1.8027  0.2784
15214TIP3   OH267132   3.875   2.731  12.821  0.9235  0.1259 -0.4863
15214TIP3    H167133   3.844   2.728  12.731 -0.2604  0.0448 -0.0911
15214TIP3    H267134   3.795   2.722  12.874  1.6854 -0.5982  0.5628
15215TIP3   OH267135   5.670   6.063  10.870 -0.3998 -0.3962 -0.0001
15215TIP3    H167136   5.582   6.026  10.883  0.1541 -1.6969  0.0741
15215TIP3    H267137   5.729   5.988  10.879  0.9599  0.9520  2.6987
15216TIP3   OH267138   1.533   0.345  15.901  0.0412  0.3073 -0.2815
15216TIP3    H167139   1.613   0.344  15.848 -1.2396 -0.3171 -2.2756
15216TIP3    H267140   1.464   0.366  15.838 -1.5173 -0.3478  1.1896
15217TIP3   OH267141   3.732   6.064   3.406  0.1973 -0.0366 -0.0629
15217TIP3    H167142   3.722   6.109   3.322  1.6827 -0.9137 -0.7453
15217TIP3    H267143   3.676   5.987   3.399 -0.4817  0.4354  0.1596
15218TIP3   OH267144   5.365   3.020  13.392 -0.2867 -0.1214 -0.2886
15218TIP3    H167145   5.302   3.074  13.344 -0.0742  1.3150  0.9954
15218TIP3    H267146   5.448   3.036  13.347 -0.8897 -2.4638 -2.3384
15219TIP3   OH267147   6.493   3.644  14.217  0.4775  0.2896  0.0323
15219TIP3    H167148   6.453   3.724  14.250 -0.7774 -0.2224 -0.2089
15219TIP3    H267149   6.437   3.574  14.249  0.6427 -0.3816 -1.0951
15220TIP3   OH267150   2.637   6.074   4.148  0.4072 -0.4551  0.2463
15220TIP3    H167151   2.545   6.049   4.163 -0.0771  0.8393 -0.4206
15220TIP3    H267152   2.664   6.115   4.230 -0.8376  2.6018 -0.7946
15221TIP3   OH267153   5.034   3.235  16.250  0.2364  0.1864  0.0010
15221TIP3    H167154   5.104   3.296  16.273  1.9145 -1.6324 -0.2397
15221TIP3    H267155   4.973   3.287  16.197  1.0584  1.9441  0.7660
15222TIP3   OH267156   3.293   3.697  11.717 -0.6972 -0.0060 -0.2922
15222TIP3    H167157   3.330   3.701  11.805 -0.2393  0.6111 -0.5129
15222TIP3    H267158   3.227   3.627  11.722 -3.1388  2.3397  1.4456
15223TIP3   OH267159   6.032   5.009  11.793  0.1162  0.7967  0.0444
15223TIP3    H167160   6.110   4.985  11.844 -0.3885 -0.2090  0.3390
15223TIP3    H267161   5.971   4.937  11.805 -0.7676  1.4470 -0.4207
15224TIP3   OH267162   2.545   4.100  11.208  0.1770  0.4612  0.0599
15224TIP3    H167163   2.489   4.174  11.230  1.3419  1.2392  0.4798
15224TIP3    H267164   2.572   4.117  11.117 -1.6605 -0.8203 -0.7340
15225TIP3   OH267165   0.900   3.166  14.358  1.2216 -0.2082 -0.2442
15225TIP3    H167166   0.902   3.087  14.304 -0.3307  1.5891 -3.0462
15225TIP3    H267167   0.968   3.223  14.321 -0.5644  1.4663 -1.0177
15226TIP3   OH267168   5.150   4.958   2.364  0.6441 -0.1930 -0.0583
15226TIP3    H167169   5.144   5.049   2.393  3.9478 -0.7512  2.7779
15226TIP3    H267170   5.108   4.907   2.433  1.1633 -0.9817 -0.3115
15227TIP3   OH267171   3.786   4.701  16.741 -0.6116  0.3979  0.2876
15227TIP3    H167172   3.762   4.757  16.814 -0.4578 -1.4742  1.8104
15227TIP3    H267173   3.734   4.733  16.667 -0.9916  2.1113  1.2820
15228TIP3   OH267174   0.377   3.370   3.559  0.2175  0.0528  0.0032
15228TIP3    H167175   0.446   3.304   3.560 -0.2213 -0.4026  2.0018
15228TIP3    H267176   0.358   3.384   3.466  2.2368 -0.5960 -0.5251
15229TIP3   OH267177   4.818   5.579  15.989 -0.8445  0.3922 -0.1010
15229TIP3    H167178   4.836   5.632  16.066  1.5294 -0.5689  0.0585
15229TIP3    H267179   4.796   5.643  15.921  0.8496  1.5192  0.3743
15230TIP3   OH267180   2.365   0.641   0.196  1.1206 -0.4862 -0.6546
15230TIP3    H167181   2.296   0.685   0.245  0.8714  0.0358 -1.4659
15230TIP3    H267182   2.409   0.585   0.261  0.5961 -0.0454  0.0859
15231TIP3   OH267183   1.554   5.822   2.823 -0.3637 -0.2449  0.4718
15231TIP3    H167184   1.519   5.836   2.911 -0.9286  0.7841  0.0853
15231TIP3    H267185   1.568   5.727   2.818 -0.9664 -0.3930  1.4277
15232TIP3   OH267186   0.557   4.850  16.001 -1.0153 -0.0638 -0.7443
15232TIP3    H167187   0.622   4.787  16.033 -0.5122 -1.2063 -3.8049
15232TIP3    H267188   0.510   4.802  15.932 -2.3324  2.1013 -1.3900
15233TIP3   OH267189   3.593   0.756   1.426  0.0288  0.0379  0.7564
15233TIP3    H167190   3.614   0.675   1.379 -0.1107  1.2368 -1.4579
15233TIP3    H267191   3.672   0.809   1.418  0.5072 -0.2721  3.1410
15234TIP3   OH267192   5.355   4.179  13.660 -0.4790 -0.7228 -0.4001
15234TIP3    H167193   5.329   4.132  13.739 -1.0227 -0.2387 -0.2918
15234TIP3    H267194   5.370   4.269  13.689  2.2845 -1.1754 -0.2603
15235TIP3   OH267195   1.645   3.841   3.805  0.2910 -0.2384  0.4234
15235TIP3    H167196   1.668   3.772   3.867  1.1581 -1.0446 -0.7698
15235TIP3    H267197   1.630   3.918   3.859  1.1189 -0.9081  1.6239
15236TIP3   OH267198   6.482   1.582   4.833 -0.0984  0.0957 -0.5372
15236TIP3    H167199   6.412   1.539   4.882  0.4804  0.4553  0.6092
15236TIP3    H267200   6.560   1.572   4.888  0.1863  1.9909 -0.5717
15237TIP3   OH267201   3.672   1.086  12.379  0.4551  0.2081  0.1231
15237TIP3    H167202   3.700   1.147  12.310 -0.0396 -0.2370 -0.4824
15237TIP3    H267203   3.676   1.000  12.337  0.9886 -0.1547  0.9223
15238TIP3   OH267204   4.978   2.686  11.497 -0.1278  0.4589 -0.6194
15238TIP3    H167205   4.982   2.782  11.501  0.3912  0.5161 -2.2029
15238TIP3    H267206   5.068   2.658  11.481 -0.0363 -0.3946  1.2484
15239TIP3   OH267207   5.112   4.934   1.003 -0.5622  0.2006 -0.2661
15239TIP3    H167208   5.120   4.936   0.908  0.1275 -0.0007 -0.2160
15239TIP3    H267209   5.084   4.845   1.023  3.0199 -0.9747 -0.0317
15240TIP3   OH267210   2.330   3.880  16.481 -0.2547  0.2019 -0.3335
15240TIP3    H167211   2.247   3.923  16.502 -0.5531  0.1187 -1.3728
15240TIP3    H267212   2.330   3.870  16.386  1.4050  1.1689 -0.4702
15241TIP3   OH267213   3.818   6.626   4.118 -0.1073  0.3125  0.4869
15241TIP3    H167214   3.897   6.587   4.080 -0.8151  0.8374 -1.5815
15241TIP3    H267215   3.767   6.551   4.148  1.5860  0.0175  2.6990
15242TIP3   OH267216   1.950   2.486  13.921  0.0346  0.1650  1.0171
15242TIP3    H167217   1.950   2.437  14.003 -0.0424 -2.5871 -0.5943
15242TIP3    H267218   1.882   2.445  13.868  1.2345  0.8154 -1.0684
15243TIP3   OH267219   0.318   1.350  17.286 -0.3672 -0.0341  0.8371
15243TIP3    H167220   0.275   1.289  17.346 -0.2634 -1.6747 -0.7019
15243TIP3    H267221   0.404   1.312  17.269  0.2337  1.2558  0.9120
15244TIP3   OH267222   5.029   4.981  13.575  0.2482  0.2988 -0.4706
15244TIP3    H167223   5.052   5.068  13.608 -2.6313  0.1497  2.1629
15244TIP3    H267224   4.935   4.985  13.562 -0.1820 -2.9011  1.2531
15245TIP3   OH267225   4.369   3.927   2.658  0.3087  1.0669 -0.4481
15245TIP3    H167226   4.429   3.903   2.729  2.9044  2.5170 -2.0741
15245TIP3    H267227   4.342   3.843   2.621  1.5549  0.3869  0.1350
15246TIP3   OH267228   5.929   0.190   1.067  0.0505 -0.0916  0.5272
15246TIP3    H167229   5.896   0.273   1.031  0.0756  0.5267  1.8906
15246TIP3    H267230   5.970   0.215   1.149  0.8717 -1.3515  0.5060
15247TIP3   OH267231   5.832   4.801   2.024  0.5507  0.1941  0.5798
15247TIP3    H167232   5.753   4.848   2.050 -0.5795 -0.5822 -1.3734
15247TIP3    H267233   5.860   4.843   1.943  1.0176 -0.8099  0.2095
15248TIP3   OH267234   5.345   4.359   0.194 -0.7579  0.0832 -0.4610
15248TIP3    H167235   5.294   4.338   0.272  3.1635  0.7867  2.4883
15248TIP3    H267236   5.432   4.321   0.212 -0.0842 -0.8908 -5.1039
15249TIP3   OH267237   3.287   5.587  15.305 -0.2812  0.6235 -0.3735
15249TIP3    H167238   3.230   5.547  15.239  0.5869 -0.9321 -0.2099
15249TIP3    H267239   3.364   5.531  15.307 -0.6380  0.1337  2.5595
15250TIP3   OH267240   3.578   3.260  13.479  0.2124 -0.4825 -0.5083
15250TIP3    H167241   3.669   3.243  13.504  0.0207  0.1371  0.6440
15250TIP3    H267242   3.527   3.228  13.553 -0.3750  1.2034 -0.1648
15251TIP3   OH267243   2.135   1.740   3.021 -0.6367 -0.0671 -0.1613
15251TIP3    H167244   2.138   1.665   2.962 -1.4326 -0.9205  0.8717
15251TIP3    H267245   2.141   1.816   2.963  1.9570 -0.9152 -1.1096
15252TIP3   OH267246   3.418   0.913   3.754  0.6579  0.1013 -0.5686
15252TIP3    H167247   3.451   0.847   3.815  0.0083 -0.5043 -0.8695
15252TIP3    H267248   3.366   0.971   3.809 -1.9432 -1.8312 -0.9302
15253TIP3   OH267249   2.853   3.355  10.880  0.1516  0.3161 -0.0876
15253TIP3    H167250   2.877   3.269  10.845 -1.8158  0.0029 -0.6956
15253TIP3    H267251   2.935   3.390  10.916  1.3119 -1.1162 -1.2911
15254TIP3   OH267252   6.631   3.116   3.480  0.0107 -0.6325 -0.5995
15254TIP3    H167253   6.575   3.062   3.537 -0.6310 -0.3007 -0.9044
15254TIP3    H267254   6.596   3.102   3.392  0.7338 -0.8159 -0.8609
15255TIP3   OH267255   4.463   1.541   3.606  0.4310 -0.4089  0.2368
15255TIP3    H167256   4.466   1.545   3.702  1.0425 -0.1282  0.2093
15255TIP3    H267257   4.499   1.455   3.585  2.7948  0.5786  0.1558
15256TIP3   OH267258   5.160   4.091  15.874  0.5206  0.2690 -0.3940
15256TIP3    H167259   5.083   4.065  15.824 -1.0927  0.6941  1.8246
15256TIP3    H267260   5.232   4.042  15.835 -0.4139  1.6491 -4.0698
15257TIP3   OH267261   0.393   6.310   1.762 -0.3100 -0.6241  1.0642
15257TIP3    H167262   0.440   6.345   1.837  1.2909 -0.2874 -0.0833
15257TIP3    H267263   0.461   6.275   1.704 -1.4501 -0.0629 -0.6623
15258TIP3   OH267264   2.553   0.643   5.696 -0.2551  0.1821  0.2478
15258TIP3    H167265   2.590   0.605   5.776 -0.3609 -0.1789  0.1260
15258TIP3    H267266   2.599   0.598   5.625  0.5171  1.1716  0.1079
15259TIP3   OH267267   2.973   4.956  14.095 -0.0918  0.4212  0.1057
15259TIP3    H167268   3.019   4.975  14.177  1.8394 -3.0537 -0.0907
15259TIP3    H267269   2.902   4.897  14.120 -0.0018  0.0138 -0.5831
15260TIP3   OH267270   3.999   3.952  16.336  0.5657 -0.2257  0.0048
15260TIP3    H167271   4.059   4.024  16.318 -2.9275  2.7740 -0.1796
15260TIP3    H267272   3.967   3.969  16.425 -2.1148 -0.1491 -0.9318
15261TIP3   OH267273   1.465   3.530  13.568 -0.3790  1.2282 -0.7044
15261TIP3    H167274   1.504   3.580  13.639  1.8733 -2.3378  0.7275
15261TIP3    H267275   1.540   3.494  13.520 -1.8874 -0.3314 -1.9655
15262TIP3   OH267276   4.121   3.654  10.050 -0.2540  0.4876 -0.3050
15262TIP3    H167277   4.095   3.745  10.064  0.4627  0.9699 -2.0306
15262TIP3    H267278   4.210   3.660  10.014  0.0805 -0.9267  0.2660
15263TIP3   OH267279   6.243   5.914  12.312  0.1417  0.0233  0.0166
15263TIP3    H167280   6.298   5.878  12.382 -0.6797  1.3387  1.3826
15263TIP3    H267281   6.204   5.992  12.351 -1.2404  0.1333 -1.5551
15264TIP3   OH267282   2.507   0.667  13.328  0.4787 -0.0765 -0.2741
15264TIP3    H167283   2.448   0.640  13.398 -0.9868 -0.2742 -1.5604
15264TIP3    H267284   2.464   0.743  13.289  0.8653 -0.4949 -1.5193
15265TIP3   OH267285   3.881   4.220  14.932 -0.1415 -0.3256 -0.4111
15265TIP3    H167286   3.853   4.237  14.842 -4.0461 -0.9732  0.6034
15265TIP3    H267287   3.899   4.126  14.934 -0.1826 -0.3336 -0.4469
15266TIP3   OH267288   0.154   0.315   2.102  0.0663 -0.5259 -0.1414
15266TIP3    H167289   0.185   0.351   2.018  1.7340  0.2983  0.8038
15266TIP3    H267290   0.124   0.227   2.080 -1.7066  0.5006 -2.0333
15267TIP3   OH267291   2.649   5.211   0.319 -0.6983  0.5838 -0.2143
15267TIP3    H167292   2.591   5.149   0.276 -0.4626 -0.1015  0.4418
15267TIP3    H267293   2.727   5.160   0.342 -0.6400  1.0328  0.6244
15268TIP3   OH267294   5.648   0.662  11.765  0.2036  0.2504  0.5650
15268TIP3    H167295   5.594   0.615  11.828  0.1127 -0.3960  0.0034
15268TIP3    H267296   5.586   0.716  11.716 -0.1056 -1.3472 -0.8538
15269TIP3   OH267297   6.670   1.189  12.819  0.4470 -0.2139 -0.0442
15269TIP3    H167298   6.751   1.239  12.806 -0.7017  1.3719 -1.4085
15269TIP3    H267299   6.659   1.139  12.738 -0.3982  0.2974 -0.2591
15270TIP3   OH267300   3.272   0.359  15.102  0.1874 -0.4785 -0.0859
15270TIP3    H167301   3.289   0.452  15.116  2.7184 -0.8912 -0.1800
15270TIP3    H267302   3.215   0.334  15.175 -0.3922  1.1043  0.0176
15271TIP3   OH267303   4.694   3.119   4.599 -0.3138 -0.0714  0.5410
15271TIP3    H167304   4.627   3.166   4.549 -0.3973  1.5027  2.0926
15271TIP3    H267305   4.651   3.096   4.681  0.3704 -1.0549  0.6295
15272TIP3   OH267306   6.438   6.527  14.135 -0.0608 -0.5008  0.8227
15272TIP3    H167307   6.364   6.565  14.183  0.0492 -0.2283  0.7767
15272TIP3    H267308   6.453   6.442  14.178  1.6421  0.8178  2.9211
15273TIP3   OH267309   1.189   6.586  15.051  0.5855  0.8663  0.4718
15273TIP3    H167310   1.225   6.662  15.006  1.5664  0.9100  1.3102
15273TIP3    H267311   1.214   6.597  15.142  0.7732 -0.4792  0.5998
15274TIP3   OH267312   6.171   4.398   4.522 -0.2578 -0.6315 -0.1327
15274TIP3    H167313   6.145   4.325   4.579 -2.2844 -1.2846 -1.8410
15274TIP3    H267314   6.091   4.424   4.477  1.3673 -0.5406 -3.1297
15275TIP3   OH267315   2.170   1.078  11.641  0.3506  0.7901 -0.0878
15275TIP3    H167316   2.194   1.163  11.605  1.6497 -0.3099 -1.8714
15275TIP3    H267317   2.206   1.014  11.580 -0.0013 -1.0775  1.5870
15276TIP3   OH267318   5.711   5.685   4.502  0.2099  0.2602 -0.6390
15276TIP3    H167319   5.622   5.665   4.475 -0.4153  0.4301  1.1790
15276TIP3    H267320   5.745   5.603   4.538  0.6143  0.3129 -0.8962
15277TIP3   OH267321   6.553   2.057  13.762  0.0908  0.3004 -0.3934
15277TIP3    H167322   6.589   2.132  13.808 -0.2893 -0.6964  1.5816
15277TIP3    H267323   6.475   2.090  13.718 -0.3477  0.9609  0.8581
15278TIP3   OH267324   2.472   1.044  12.783 -0.2513 -0.0211 -0.2142
15278TIP3    H167325   2.536   1.081  12.843  1.2648 -1.7432 -0.7339
15278TIP3    H267326   2.388   1.054  12.827  0.6345  0.3176  1.4132
15279TIP3   OH267327   3.168   2.702   1.665  0.2588  0.1610  0.1287
15279TIP3    H167328   3.123   2.623   1.635  0.8285 -0.2935  0.4853
15279TIP3    H267329   3.247   2.671   1.708  0.6590  0.9406 -0.0269
15280TIP3   OH267330   3.173   0.120  13.291 -0.1377  0.3434  0.9209
15280TIP3    H167331   3.200   0.156  13.375  0.1802 -0.7996  1.3269
15280TIP3    H267332   3.238   0.053  13.272 -0.6867  0.0145  0.1730
15281TIP3   OH267333   3.911   0.343  11.648 -0.3123 -0.1981  0.4050
15281TIP3    H167334   3.851   0.399  11.599  1.8086  1.8126  0.0621
15281TIP3    H267335   3.969   0.306  11.582  0.6042  0.0870  1.0468
15282TIP3   OH267336   6.681   5.462   5.429 -0.0091 -0.0631  0.4262
15282TIP3    H167337   6.719   5.487   5.513  0.4974  0.5700  0.0127
15282TIP3    H267338   6.610   5.402   5.451  0.4128 -0.2481  1.2806
15283TIP3   OH267339   3.688   4.279   2.577 -0.0035  0.0200  0.2451
15283TIP3    H167340   3.776   4.241   2.575 -0.5151 -1.1450 -0.5632
15283TIP3    H267341   3.671   4.307   2.487 -1.2137 -1.5589 -0.0465
15284TIP3   OH267342   2.345   5.604  13.031  0.0685  0.2075 -0.1403
15284TIP3    H167343   2.255   5.608  13.061  0.0445  2.2945 -0.4124
15284TIP3    H267344   2.398   5.625  13.108  0.2492  0.4812 -0.3365
15285TIP3   OH267345   1.713   5.586  10.685 -0.3004 -0.2515 -0.2725
15285TIP3    H167346   1.691   5.670  10.645 -0.4035 -0.4880 -0.7155
15285TIP3    H267347   1.809   5.584  10.685 -0.2989 -0.2026 -0.4076
15286TIP3   OH267348   5.261   3.882   6.226 -0.2085 -0.2443 -0.6668
15286TIP3    H167349   5.347   3.896   6.267 -0.0959  1.2320 -1.3871
15286TIP3    H267350   5.199   3.920   6.288 -0.1055  1.2018 -1.4200
15287TIP3   OH267351   3.417   3.434   6.395 -0.3152 -0.6611  0.5028
15287TIP3    H167352   3.442   3.476   6.477  1.1410 -0.9009  0.1939
15287TIP3    H267353   3.445   3.496   6.327  0.2501 -1.3282  0.1169
15288TIP3   OH267354   0.910   0.277  13.579  0.1294 -0.6554  0.1379
15288TIP3    H167355   0.985   0.323  13.616 -0.3909 -0.0501  0.4398
15288TIP3    H267356   0.939   0.248  13.492  0.4029  0.3533 -0.1053
15289TIP3   OH267357   5.241   0.742  11.484 -0.1325  0.1718  0.0251
15289TIP3    H167358   5.217   0.776  11.398  1.3924  0.6479 -0.2178
15289TIP3    H267359   5.336   0.742  11.485 -0.1236 -1.7943  0.9640
15290TIP3   OH267360   3.920   1.981  10.287  0.0724 -0.0320 -0.1353
15290TIP3    H167361   3.896   2.073  10.279  0.9187  0.1313 -0.9007
15290TIP3    H267362   3.976   1.977  10.364  0.6498  0.2207 -0.5424
15291TIP3   OH267363   3.164   1.769  11.790  0.0330 -0.4284  0.5382
15291TIP3    H167364   3.189   1.794  11.879 -1.5598 -0.5860  1.0381
15291TIP3    H267365   3.146   1.676  11.795  0.8681 -0.6426 -0.1797
15292TIP3   OH267366   5.339   6.710   3.788 -0.0922 -0.4682 -0.4997
15292TIP3    H167367   5.391   6.787   3.811 -1.1503  0.3881 -0.9093
15292TIP3    H267368   5.334   6.712   3.692 -1.5597 -0.0649 -0.4277
15293TIP3   OH267369   2.719   6.004  11.860  0.6694 -0.0669 -0.2655
15293TIP3    H167370   2.708   6.017  11.954  0.4275  0.0710 -0.3124
15293TIP3    H267371   2.813   5.985  11.849  0.8211  0.5508 -0.0679
15294TIP3   OH267372   5.371   4.356   4.390  0.2146  0.1846 -0.5768
15294TIP3    H167373   5.344   4.294   4.322 -0.5925  0.0716 -0.1607
15294TIP3    H267374   5.455   4.391   4.359  1.3440 -2.0887 -0.1647
15295TIP3   OH267375   6.361   3.397   3.688 -0.8206 -0.1910 -0.2092
15295TIP3    H167376   6.405   3.343   3.754  0.3095  0.4127 -0.4700
15295TIP3    H267377   6.430   3.423   3.627 -1.5666  0.5929 -0.7342
15296TIP3   OH267378   4.566   0.080   5.488 -1.2067  0.2152 -0.4244
15296TIP3    H167379   4.584   0.167   5.452 -1.6436  0.4609 -0.0608
15296TIP3    H267380   4.482   0.090   5.533  0.2843  0.4306  2.4029
15297TIP3   OH267381   5.740   0.362   3.375  0.2357 -0.5016  0.1001
15297TIP3    H167382   5.650   0.394   3.385 -0.0610 -1.1905 -0.2651
15297TIP3    H267383   5.735   0.270   3.401  0.7330 -0.6712 -0.3944
15298TIP3   OH267384   1.686   4.736  17.219  0.0698  0.0729  0.0343
15298TIP3    H167385   1.710   4.649  17.252  0.7391  0.1661 -0.2115
15298TIP3    H267386   1.672   4.788  17.299 -0.7303 -0.3595  0.1861
15299TIP3   OH267387   2.391   6.375  12.304  0.2479 -0.1569  0.4516
15299TIP3    H167388   2.472   6.426  12.306  0.4718 -0.4535 -0.6259
15299TIP3    H267389   2.322   6.439  12.319  0.6058  0.2817  0.2392
15300TIP3   OH267390   2.277   0.402   2.236 -0.0784  0.0055  0.0547
15300TIP3    H167391   2.182   0.409   2.244 -0.1283 -0.2636 -0.2867
15300TIP3    H267392   2.306   0.373   2.323 -0.4536 -1.2469 -0.2291
15301TIP3   OH267393   3.422   2.843   4.602  0.1316  0.9113 -0.7335
15301TIP3    H167394   3.450   2.758   4.636  0.7023  1.1865 -0.5151
15301TIP3    H267395   3.416   2.830   4.507 -3.1215 -0.3507 -0.4265
15302TIP3   OH267396   6.354   5.411  13.083  0.3152  0.7636  0.0706
15302TIP3    H167397   6.383   5.372  13.001 -0.3695 -3.7455  1.8651
15302TIP3    H267398   6.435   5.424  13.133  0.4340  0.4446 -0.0381
15303TIP3   OH267399   0.584   2.942   1.281 -0.4739 -0.0333  0.2520
15303TIP3    H167400   0.557   2.923   1.371 -1.1118  3.2395  0.8034
15303TIP3    H267401   0.523   3.009   1.251  0.9411  0.3101 -1.9538
15304TIP3   OH267402   1.713   2.547  13.671  0.0662 -0.7906  0.6027
15304TIP3    H167403   1.702   2.492  13.749 -1.8647  0.8397  1.5348
15304TIP3    H267404   1.663   2.502  13.603 -0.6540 -0.7291  1.0897
15305TIP3   OH267405   2.193   0.225   0.861 -0.7033 -0.6995 -0.0087
15305TIP3    H167406   2.119   0.232   0.801  0.5878 -1.0923 -1.6964
15305TIP3    H267407   2.270   0.236   0.805  0.4977  0.9552  1.8967
15306TIP3   OH267408   0.815   1.209   2.085  0.0635  0.5987  0.2948
15306TIP3    H167409   0.745   1.187   2.023 -0.8576  1.4030  1.0346
15306TIP3    H267410   0.875   1.135   2.080 -1.0473 -0.2977 -0.0509
15307TIP3   OH267411   6.495   4.534   4.783 -0.0668 -0.0261 -0.3269
15307TIP3    H167412   6.443   4.453   4.788 -0.2147  0.0205 -1.0751
15307TIP3    H267413   6.570   4.518   4.840 -0.1679 -0.6355 -0.3639
15308TIP3   OH267414   5.610   1.662   2.256  0.1480  0.0457 -0.0229
15308TIP3    H167415   5.610   1.580   2.305  2.1281  0.8212  1.3181
15308TIP3    H267416   5.539   1.651   2.192  0.3790 -2.7084  0.1035
15309TIP3   OH267417   3.507   3.849  13.147 -0.1685  0.1232  0.1741
15309TIP3    H167418   3.594   3.822  13.119  1.0010  1.3794  2.5108
15309TIP3    H267419   3.480   3.913  13.081  1.9195  1.9432  1.0474
15310TIP3   OH267420   2.525   6.270  11.033 -0.3281 -0.5793  0.1387
15310TIP3    H167421   2.492   6.354  11.003 -3.0894 -1.2988  0.9927
15310TIP3    H267422   2.513   6.212  10.957 -2.0618 -1.0786  0.7667
15311TIP3   OH267423   1.750   2.897  16.636 -0.2007 -0.1359 -0.8126
15311TIP3    H167424   1.729   2.972  16.580  0.2774  1.3594  0.9647
15311TIP3    H267425   1.837   2.870  16.608 -0.3498  0.0151 -1.4293
15312TIP3   OH267426   0.801   1.900  12.506  0.2876  0.7151  0.9840
15312TIP3    H167427   0.863   1.866  12.571 -1.9151  0.1541  2.8142
15312TIP3    H267428   0.807   1.995  12.514  0.7229  0.6642  1.3031
15313TIP3   OH267429   1.939   1.852  10.326  0.2406 -0.4622 -0.7408
15313TIP3    H167430   1.909   1.941  10.340  2.0839  0.2822 -1.3376
15313TIP3    H267431   1.930   1.810  10.412  1.1371  0.8607  0.0184
15314TIP3   OH267432   6.427   3.279  17.103 -0.3930  0.2886  0.2313
15314TIP3    H167433   6.434   3.280  17.198 -0.3455  0.3207  0.2287
15314TIP3    H267434   6.518   3.282  17.072 -0.4261  0.8388  0.1786
15315TIP3   OH267435   2.618   1.403  13.209 -0.5271  0.0116 -0.1906
15315TIP3    H167436   2.594   1.437  13.295 -2.4823 -0.3368 -0.5850
15315TIP3    H267437   2.591   1.311  13.211  2.1395 -0.8252 -0.1369
15316TIP3   OH267438   3.565   0.730  13.230 -0.2701  0.4124  0.3912
15316TIP3    H167439   3.578   0.699  13.140  0.5572 -0.5412  0.8226
15316TIP3    H267440   3.554   0.825  13.221  0.9911  0.4833 -0.6063
15317TIP3   OH267441   5.577   2.802  13.571 -0.4238  0.5769  0.0390
15317TIP3    H167442   5.606   2.798  13.480 -1.1599  0.4371 -0.1964
15317TIP3    H267443   5.650   2.767  13.622 -0.5584 -0.6657 -0.6260
15318TIP3   OH267444   1.120   0.296   5.899 -0.0442  0.1344 -0.2973
15318TIP3    H167445   1.149   0.274   5.988 -1.6912  0.8816  0.4580
15318TIP3    H267446   1.037   0.343   5.912  0.4946  1.6776 -2.1465
15319TIP3   OH267447   0.892   1.885   2.915 -0.0482 -0.0656 -0.3210
15319TIP3    H167448   0.939   1.904   2.834  0.3006  1.4888  0.2308
15319TIP3    H267449   0.919   1.795   2.938  1.3763  0.2055 -0.8726
15320TIP3   OH267450   0.408   0.474   5.164  0.1660 -0.0587  0.2502
15320TIP3    H167451   0.316   0.467   5.139  0.4855 -0.7977 -0.7771
15320TIP3    H267452   0.425   0.396   5.217 -0.2411  0.9762  1.9316
15321TIP3   OH267453   2.796   0.800  16.524 -0.5574 -0.3846  0.3329
15321TIP3    H167454   2.722   0.760  16.479  0.7048 -0.9679 -1.2620
15321TIP3    H267455   2.840   0.853  16.456  1.9409 -2.0560  0.5583
15322TIP3   OH267456   2.972   1.324  13.407  0.1641 -0.1411 -0.2745
15322TIP3    H167457   3.024   1.281  13.475 -1.5276  0.1824  1.2345
15322TIP3    H267458   2.922   1.254  13.367  1.1445 -0.3281 -1.2053
15323TIP3   OH267459   2.764   0.004  13.398  0.1225 -0.4397 -0.0560
15323TIP3    H167460   2.738   0.074  13.337  1.5401  0.5148  0.3911
15323TIP3    H267461   2.815  -0.056  13.344  0.2055 -0.3216 -0.1096
15324TIP3   OH267462   5.739   5.600  16.846  0.1992 -0.0543  0.3103
15324TIP3    H167463   5.800   5.543  16.800  1.5527  1.2127  0.5122
15324TIP3    H267464   5.733   5.563  16.934 -0.5505 -1.0940 -0.1691
15325TIP3   OH267465   5.964   0.102   2.512  0.4853  0.1381 -0.1687
15325TIP3    H167466   6.029   0.062   2.454  0.6745 -1.4162  1.0643
15325TIP3    H267467   5.908   0.154   2.454  2.4478  1.0246 -1.3368
15326TIP3   OH267468   0.479   6.720   2.340  0.4477 -0.4752 -0.6289
15326TIP3    H167469   0.573   6.707   2.345  0.8817  2.1627 -0.8169
15326TIP3    H267470   0.469   6.814   2.324 -2.2379 -0.4534  0.8298
15327TIP3   OH267471   5.131   6.413  11.552  0.2546  0.5501  0.0874
15327TIP3    H167472   5.175   6.498  11.554 -1.0121  1.2506 -0.8405
15327TIP3    H267473   5.113   6.397  11.459  1.0477 -1.0463  0.1822
15328TIP3   OH267474   1.559   2.840  15.959 -0.2619  0.5098 -0.0172
15328TIP3    H167475   1.498   2.765  15.953 -1.2154  1.2564  0.1968
15328TIP3    H267476   1.641   2.806  15.924  0.3741 -1.7668  3.4250
15329TIP3   OH267477   6.180   3.721   3.044  0.1310 -0.0536 -0.2060
15329TIP3    H167478   6.249   3.657   3.060 -0.9546 -0.9913  0.8877
15329TIP3    H267479   6.100   3.669   3.042 -1.0909  1.5127  3.4039
15330TIP3   OH267480   0.140   6.481  17.188  0.1126  0.1027 -0.0379
15330TIP3    H167481   0.141   6.392  17.154  0.5970  0.5103 -1.0960
15330TIP3    H267482   0.232   6.506  17.192 -0.0379  0.6571  0.0013
15331TIP3   OH267483   1.839   2.256  10.509 -0.6927 -0.2610  0.3146
15331TIP3    H167484   1.760   2.229  10.463 -0.3875  0.7772 -0.8304
15331TIP3    H267485   1.807   2.297  10.589 -1.2227 -2.0788  1.0717
15332TIP3   OH267486   2.322   4.064  13.720 -0.3259 -0.0203  0.5948
15332TIP3    H167487   2.298   4.007  13.647 -0.6486 -0.1254  0.7774
15332TIP3    H267488   2.269   4.031  13.793 -0.3859  0.4075  0.7434
15333TIP3   OH267489   3.733   4.734   6.567 -0.5210 -0.1871 -0.1410
15333TIP3    H167490   3.695   4.681   6.497 -1.8824 -0.1626  0.5661
15333TIP3    H267491   3.720   4.682   6.646  1.0589 -0.2374  0.1100
15334TIP3   OH267492   1.163   2.553   0.166  0.2472  0.2168  0.9071
15334TIP3    H167493   1.201   2.492   0.103  2.6400  2.1279  0.3818
15334TIP3    H267494   1.087   2.508   0.202  0.8082 -2.2413 -0.8948
15335TIP3   OH267495   1.081   4.924   6.480  0.0194 -0.1011  0.0491
15335TIP3    H167496   1.100   4.959   6.566  1.9491 -0.7848 -0.0720
15335TIP3    H267497   1.048   4.999   6.430  0.6727  0.7183  0.8325
15336TIP3   OH267498   5.115   0.990  13.661 -0.3703 -0.8064 -0.7448
15336TIP3    H167499   5.028   1.016  13.631 -0.1758 -0.7800 -1.2729
15336TIP3    H267500   5.100   0.958  13.751 -0.6179  1.0496 -0.1059
15337TIP3   OH267501   5.472   5.812  13.598 -1.0617 -0.9228 -0.8120
15337TIP3    H167502   5.519   5.885  13.637 -1.6039 -1.2386  0.4713
15337TIP3    H267503   5.497   5.813  13.506  1.5259 -1.1256 -0.1459
15338TIP3   OH267504   4.008   1.309  16.946 -0.2779 -0.6007  0.7046
15338TIP3    H167505   4.004   1.310  16.851 -1.9733  0.1567  0.7659
15338TIP3    H267506   4.093   1.349  16.967  0.4704 -1.5383 -0.4760
15339TIP3   OH267507   6.322   0.953  11.761 -0.0661  0.1750  0.1706
15339TIP3    H167508   6.366   0.932  11.844 -0.2269  0.5533  0.3529
15339TIP3    H267509   6.236   0.913  11.768 -0.1284  0.3204  0.2429
15340TIP3   OH267510   2.672   3.567   5.295  0.2839 -0.8176  0.1579
15340TIP3    H167511   2.691   3.658   5.318  0.2836 -1.0200  1.0063
15340TIP3    H267512   2.678   3.520   5.379  0.7911 -1.6786 -0.3572
15341TIP3   OH267513   1.466   4.923  13.708  0.2205 -0.1747  0.2539
15341TIP3    H167514   1.541   4.900  13.653  0.2246  0.2111  0.0963
15341TIP3    H267515   1.486   5.011  13.740 -0.9653  0.6472 -1.1878
15342TIP3   OH267516   1.254   5.559  10.645 -0.2066 -0.2341 -0.1414
15342TIP3    H167517   1.175   5.584  10.693  0.7253  0.9020  0.8401
15342TIP3    H267518   1.320   5.548  10.713  1.1482  1.4437 -1.1413
15343TIP3   OH267519   0.665   6.529  11.255 -0.0268  0.5853 -0.3374
15343TIP3    H167520   0.693   6.510  11.166 -1.2987  1.0991 -0.8616
15343TIP3    H267521   0.576   6.494  11.261 -0.1776  1.0775  0.5416
15344TIP3   OH267522   4.144   4.724   3.590 -0.2508 -0.2772  0.1817
15344TIP3    H167523   4.160   4.713   3.496  1.1733 -0.7013  0.4595
15344TIP3    H267524   4.220   4.683   3.632 -0.3876  0.7989  1.5011
15345TIP3   OH267525   2.521   6.046  13.130  0.0722  0.0992  0.0640
15345TIP3    H167526   2.586   6.107  13.164 -1.2067  0.5811  1.7531
15345TIP3    H267527   2.481   6.091  13.056  0.2467  0.6287  0.2913
15346TIP3   OH267528   6.729   5.708   5.343  0.2456  0.9669  0.0199
15346TIP3    H167529   6.817   5.733   5.369  0.2212  1.5108 -0.3911
15346TIP3    H267530   6.723   5.615   5.363  1.4609  0.5519 -1.3993
15347TIP3   OH267531   2.185   1.874   1.048  0.1685  0.3232  0.3714
15347TIP3    H167532   2.172   1.854   1.141  1.4401  1.1230  0.7341
15347TIP3    H267533   2.200   1.789   1.007  2.7963  0.2218  1.4436
15348TIP3   OH267534   6.789   4.573   2.050 -0.3219  0.5949  0.8835
15348TIP3    H167535   6.704   4.529   2.050  0.1732 -0.3680  1.5544
15348TIP3    H267536   6.838   4.530   2.120  1.5142 -0.3713 -0.9637
15349TIP3   OH267537   1.228   1.338   3.217  0.5232 -0.4779  0.1847
15349TIP3    H167538   1.145   1.290   3.215  0.9751 -1.2563  0.1178
15349TIP3    H267539   1.292   1.276   3.183  1.1509  0.0971  0.3240
15350TIP3   OH267540   1.813   1.767   6.021 -0.1094  0.1795 -0.0832
15350TIP3    H167541   1.858   1.700   6.072  1.0676  1.0910  0.0894
15350TIP3    H267542   1.770   1.719   5.950  1.4381 -0.6824 -0.4661
15351TIP3   OH267543   0.586   4.086  16.392  0.4108  0.3915  0.3347
15351TIP3    H167544   0.571   4.012  16.451  1.8380 -0.1642  0.0404
15351TIP3    H267545   0.641   4.049  16.322  0.4369  1.5311 -0.2539
15352TIP3   OH267546   1.731   1.823   2.950 -0.2161 -0.1615  0.1551
15352TIP3    H167547   1.671   1.749   2.944 -2.9737  2.0928 -1.7670
15352TIP3    H267548   1.745   1.851   2.859  2.8988  0.0680  0.6526
15353TIP3   OH267549   4.454   2.197   6.015 -0.3554 -0.2160 -0.4311
15353TIP3    H167550   4.389   2.265   6.033  1.0035  0.5921  1.7057
15353TIP3    H267551   4.481   2.166   6.101  0.1354 -2.4450 -1.3496
15354TIP3   OH267552   3.095   1.703   6.033 -0.2455  0.2578  0.1575
15354TIP3    H167553   3.064   1.769   6.095  0.7814  1.0110 -0.1011
15354TIP3    H267554   3.189   1.696   6.052 -0.5775 -2.1800  1.1452
15355TIP3   OH267555   2.256   1.718  13.138 -0.1748  0.1681 -0.2450
15355TIP3    H167556   2.173   1.730  13.092  0.9913 -0.6945 -2.7159
15355TIP3    H267557   2.251   1.629  13.173  0.6617 -0.8560 -2.5993
15356TIP3   OH267558   3.659   4.499  12.170  0.4641  0.2234  0.6585
15356TIP3    H167559   3.664   4.484  12.265 -0.2133 -1.7722  0.3864
15356TIP3    H267560   3.750   4.511  12.143  0.8500 -1.3459  1.2265
15357TIP3   OH267561   2.754   1.281  12.611 -0.7832  0.0778  0.6373
15357TIP3    H167562   2.717   1.268  12.524 -1.1468 -0.0752  0.8140
15357TIP3    H267563   2.838   1.236  12.609 -1.5240 -1.3410  0.8829
15358TIP3   OH267564   4.107   6.812   2.518  0.2988 -0.1900  0.0577
15358TIP3    H167565   4.135   6.723   2.541 -0.8866 -0.4936  0.3396
15358TIP3    H267566   4.186   6.853   2.484  0.3695 -2.0096 -2.0848
15359TIP3   OH267567   6.091   3.147  12.318 -0.3527  0.1489  0.0763
15359TIP3    H167568   6.166   3.204  12.333  0.6283 -0.8572 -0.9633
15359TIP3    H267569   6.018   3.192  12.362  0.6970  1.4717  0.5025
15360TIP3   OH267570   3.109   1.831  13.542  0.3596  0.6104 -0.2634
15360TIP3    H167571   3.188   1.853  13.492 -0.7820  0.0131 -2.3835
15360TIP3    H267572   3.083   1.745  13.510 -0.9356  0.6293  0.6940
15361TIP3   OH267573   1.258   2.960  13.676  0.3082 -0.2776  0.4354
15361TIP3    H167574   1.350   2.979  13.690  0.4078  0.6359 -1.2980
15361TIP3    H267575   1.213   2.995  13.753  1.2235  0.8972  0.4396
15362TIP3   OH267576   6.767   0.099  14.693 -0.1085  0.0421 -0.2219
15362TIP3    H167577   6.725   0.058  14.618 -1.0261  1.9310 -0.7923
15362TIP3    H267578   6.861   0.090  14.678 -0.2871  0.5232 -1.6756
15363TIP3   OH267579   2.316   1.659  15.778  0.2221 -0.0115  0.3016
15363TIP3    H167580   2.240   1.718  15.773 -0.1712 -0.5491 -0.1172
15363TIP3    H267581   2.351   1.672  15.866 -0.0558  0.6128  0.3224
15364TIP3   OH267582   0.020   4.097  16.037  0.2629  0.8111  0.2572
15364TIP3    H167583   0.115   4.100  16.027  0.2692  3.3113  0.7617
15364TIP3    H267584  -0.014   4.125  15.952 -0.0192  0.5536  0.2840
15365TIP3   OH267585   1.092   6.254  16.163 -0.1335  0.3568  0.4323
15365TIP3    H167586   1.173   6.205  16.180 -1.8934 -2.1235  2.1247
15365TIP3    H267587   1.107   6.296  16.079  2.1537 -1.7254 -0.2833
15366TIP3   OH267588   6.421   4.141   2.257 -0.0246  0.4115  0.1469
15366TIP3    H167589   6.340   4.091   2.243  1.2153 -1.3390 -0.9499
15366TIP3    H267590   6.488   4.074   2.272  1.0983  1.8685  1.7536
15367TIP3   OH267591   2.929   6.812   0.848 -0.5457  0.1340  0.1134
15367TIP3    H167592   2.855   6.843   0.796  0.3859  3.2813  0.5825
15367TIP3    H267593   2.888   6.767   0.923 -1.9136 -1.5711 -1.6137
15368TIP3   OH267594   5.066   0.381   4.199 -0.1561 -0.2593 -0.2854
15368TIP3    H167595   5.143   0.335   4.165 -0.2840 -1.0467  0.4767
15368TIP3    H267596   5.092   0.411   4.286 -0.7151 -0.5398 -0.0172
15369TIP3   OH267597   0.353   2.755  16.651  0.1426 -0.0692  0.1297
15369TIP3    H167598   0.338   2.748  16.745  0.4196  1.7846  0.3378
15369TIP3    H267599   0.266   2.760  16.613 -0.0143 -2.3771  0.1248
15370TIP3   OH267600   5.873   1.286  13.545  0.1296  0.0249 -0.3908
15370TIP3    H167601   5.910   1.329  13.621 -0.7985  0.9220 -0.4372
15370TIP3    H267602   5.833   1.356  13.494  3.0805 -0.1715 -3.1172
15371TIP3   OH267603   0.237   2.751  14.291 -0.6851  0.0196  0.0328
15371TIP3    H167604   0.155   2.711  14.322 -0.4448 -1.3227 -1.0446
15371TIP3    H267605   0.301   2.731  14.359 -1.5674  2.2784  1.5573
15372TIP3   OH267606   6.311   5.334  14.667 -0.2232 -0.3943 -0.1384
15372TIP3    H167607   6.326   5.287  14.749  0.8555 -0.0431 -0.1233
15372TIP3    H267608   6.398   5.342  14.629 -0.4607  1.2043 -0.3568
15373TIP3   OH267609   1.642   2.922   2.464 -0.6365  0.1418  0.0428
15373TIP3    H167610   1.683   2.917   2.551 -0.4409  1.0804  0.0066
15373TIP3    H267611   1.587   3.000   2.468 -3.6453 -1.9105  0.6145
15374TIP3   OH267612   0.876   3.544   4.105  0.3450 -0.4996 -0.2389
15374TIP3    H167613   0.834   3.625   4.076  2.0999  0.5608  0.0718
15374TIP3    H267614   0.867   3.546   4.201 -0.7217 -1.3147 -0.3148
15375TIP3   OH267615   2.093   4.142  15.970 -0.3434  0.2775  0.0756
15375TIP3    H167616   2.062   4.154  15.880  0.4889  1.1256 -0.1035
15375TIP3    H267617   2.036   4.198  16.023 -0.0193  0.7662 -0.0853
15376TIP3   OH267618   1.438   2.705   0.925 -0.2401 -0.3897 -0.5784
15376TIP3    H167619   1.394   2.622   0.909  1.1320 -1.2090 -0.1607
15376TIP3    H267620   1.524   2.696   0.884  1.0541 -0.2975  2.0110
15377TIP3   OH267621   5.782   2.865  13.963 -0.2224 -0.0810  0.6122
15377TIP3    H167622   5.873   2.885  13.982 -0.2042  0.7267 -0.2497
15377TIP3    H267623   5.732   2.922  14.021 -0.1726  0.2025  0.3786
15378TIP3   OH267624   5.904   6.015  12.625  0.3216  0.1515  0.1406
15378TIP3    H167625   5.855   5.988  12.703  1.0653 -1.4458  0.0609
15378TIP3    H267626   5.919   6.109  12.637 -1.8297  0.4518  0.6765
15379TIP3   OH267627   4.383   5.938  15.201  0.1781 -0.5204 -0.3589
15379TIP3    H167628   4.393   6.019  15.251 -0.4161 -0.1657 -0.8094
15379TIP3    H267629   4.371   5.870  15.267  0.3214 -0.1889  0.0114
15380TIP3   OH267630   2.689   2.087  15.394  0.2597 -0.1915 -0.2011
15380TIP3    H167631   2.633   2.030  15.446  0.6539 -0.6105 -0.2315
15380TIP3    H267632   2.666   2.068  15.304  1.1634 -1.1138 -0.2492
15381TIP3   OH267633   5.226   1.666   4.917 -0.2152  0.0786 -0.4821
15381TIP3    H167634   5.319   1.645   4.921 -0.1035  0.2135 -1.9336
15381TIP3    H267635   5.186   1.612   4.986  0.9405  0.1129  0.2293
15382TIP3   OH267636   4.902   4.017  10.859  0.1476 -0.1251  0.3737
15382TIP3    H167637   4.833   3.973  10.808 -1.2351 -0.1875  2.2660
15382TIP3    H267638   4.933   4.087  10.801 -1.4624 -0.1467 -0.5490
15383TIP3   OH267639   0.278   2.978   3.420  0.4697 -0.1624 -0.0477
15383TIP3    H167640   0.216   3.030   3.471  1.3733 -1.1506  2.1388
15383TIP3    H267641   0.245   2.888   3.428  1.3848 -0.4986 -0.0967
15384TIP3   OH267642   2.868   6.757  15.893  0.3661 -0.5073 -0.3788
15384TIP3    H167643   2.807   6.785  15.962  1.1955  0.3493  0.0199
15384TIP3    H267644   2.912   6.680  15.929 -1.6840 -2.1845 -1.3455
15385TIP3   OH267645   2.336   6.788  13.285 -0.2946  0.0063  0.3373
15385TIP3    H167646   2.247   6.824  13.281  0.1009  0.9629 -0.2055
15385TIP3    H267647   2.331   6.705  13.239 -1.0318 -0.1935  0.7840
15386TIP3   OH267648   6.542   2.045   2.902 -0.1007  0.4596  0.1283
15386TIP3    H167649   6.512   1.954   2.909 -1.9357  0.9501 -1.0690
15386TIP3    H267650   6.636   2.040   2.917 -0.2912 -1.5347  0.8865
15387TIP3   OH267651   3.970   4.364   4.299  0.2088 -0.1642 -0.5194
15387TIP3    H167652   3.882   4.340   4.328  1.4359 -1.6812  2.2245
15387TIP3    H267653   4.011   4.281   4.275  1.3387  0.3338 -0.3478
15388TIP3   OH267654   0.459   4.857   0.772 -0.4170 -0.1913  0.3225
15388TIP3    H167655   0.499   4.936   0.735  0.6972 -1.9113 -2.2794
15388TIP3    H267656   0.513   4.836   0.849  0.7087  0.2580 -0.3370
15389TIP3   OH267657   2.632   5.073   6.696  0.0999  0.4305 -0.1937
15389TIP3    H167658   2.561   5.136   6.713 -1.0447 -0.7288 -0.5995
15389TIP3    H267659   2.588   4.988   6.693  1.6371 -0.3964  0.3492
15390TIP3   OH267660   1.772   4.460  16.608 -0.0270 -0.1287  0.2500
15390TIP3    H167661   1.787   4.366  16.608  0.9540  0.0198 -0.6317
15390TIP3    H267662   1.678   4.470  16.594 -0.2648 -0.9783  1.1470
15391TIP3   OH267663   1.036   4.404  16.402  0.3392 -0.5694  0.3941
15391TIP3    H167664   0.980   4.380  16.475  2.2430 -0.9743  1.7741
15391TIP3    H267665   1.034   4.328  16.344  1.4571 -1.6364  1.7112
15392TIP3   OH267666   6.189   0.141   1.507 -0.1684 -0.6741  0.3498
15392TIP3    H167667   6.150   0.079   1.569 -1.7146 -1.3940 -1.3084
15392TIP3    H267668   6.124   0.150   1.438  1.5539  0.0493 -1.2190
15393TIP3   OH267669   0.754   4.780  15.581 -0.0395 -0.2359 -0.6601
15393TIP3    H167670   0.686   4.745  15.639  0.3022  0.9043  0.4475
15393TIP3    H267671   0.736   4.874  15.578  1.9771  0.1941  0.2932
15394TIP3   OH267672   6.634   0.092  13.609  0.1734  0.0673  0.1436
15394TIP3    H167673   6.698   0.100  13.680 -0.4777 -0.8851  0.8513
15394TIP3    H267674   6.565   0.154  13.632  0.5482  0.6657 -0.3151
15395TIP3   OH267675   4.894   5.150  12.612  0.1300 -0.5778 -0.1161
15395TIP3    H167676   4.943   5.179  12.535 -0.5398 -0.6230 -0.5652
15395TIP3    H267677   4.947   5.080  12.650  1.4342  0.7598  0.5925
15396TIP3   OH267678   4.477   3.673   4.254  0.1301 -0.2141  0.1862
15396TIP3    H167679   4.489   3.666   4.159  2.0652  0.5222  0.3560
15396TIP3    H267680   4.384   3.689   4.265  0.2376  2.0485 -1.7359
15397TIP3   OH267681   1.335   0.405   0.504  0.2852  0.4287 -0.5409
15397TIP3    H167682   1.241   0.385   0.500  0.1785  0.5474  0.9903
15397TIP3    H267683   1.367   0.388   0.415 -0.5850 -2.6755 -0.3352
15398TIP3   OH267684   5.049   4.119   0.510  0.0256 -0.4217 -0.1623
15398TIP3    H167685   5.107   4.066   0.456  0.2170 -0.3222 -0.0557
15398TIP3    H267686   4.994   4.166   0.447  0.6730  0.1707 -0.2909
15399TIP3   OH267687   5.030   6.282   1.984 -0.0252  0.4245  0.1068
15399TIP3    H167688   4.934   6.286   1.985 -0.0244  0.4709 -0.0775
15399TIP3    H267689   5.052   6.233   2.063 -0.3565 -2.9119 -1.7967
15400TIP3   OH267690   5.287   3.068   0.036  0.3130 -0.0162  0.3121
15400TIP3    H167691   5.320   3.131  -0.028 -0.4102  1.6272  1.5026
15400TIP3    H267692   5.347   2.993   0.030  1.1967  0.7916 -1.1274
15401TIP3   OH267693   6.142   0.120  15.041  0.3019 -0.2469  0.3626
15401TIP3    H167694   6.088   0.088  15.114  0.6361 -0.3417  0.5659
15401TIP3    H267695   6.115   0.066  14.966 -0.4791  0.2595  0.2679
15402TIP3   OH267696   2.583   2.256   3.444 -0.0062  0.1303 -0.2707
15402TIP3    H167697   2.544   2.251   3.357 -0.8381 -1.8679  0.2020
15402TIP3    H267698   2.569   2.347   3.470 -0.5236  0.5304 -1.8616
15403TIP3   OH267699   2.813   4.093   3.683  0.1649  0.5023  0.5300
15403TIP3    H167700   2.731   4.056   3.652 -0.7440  2.3505  0.6565
15403TIP3    H267701   2.797   4.112   3.776  1.6102 -1.5106  1.2347
15404TIP3   OH267702   0.913   0.465   5.171 -0.1794 -0.4050  0.1760
15404TIP3    H167703   1.004   0.479   5.198  0.9310 -2.5893 -2.1846
15404TIP3    H267704   0.892   0.378   5.204 -0.2397 -1.2995 -2.1189
15405TIP3   OH267705   5.509   2.382   2.208 -0.0816  0.0799 -0.1380
15405TIP3    H167706   5.599   2.385   2.176  0.0122  0.2274  0.1363
15405TIP3    H267707   5.490   2.288   2.216 -0.2393  0.0409 -0.9947
15406TIP3   OH267708   2.679   3.214   5.938  0.5753 -0.1646  0.3237
15406TIP3    H167709   2.676   3.299   5.982 -0.2959  0.2411 -0.5276
15406TIP3    H267710   2.592   3.202   5.902  0.2403 -2.0969  1.6865
15407TIP3   OH267711   4.985   5.480  15.768  0.3824  0.3007 -0.1104
15407TIP3    H167712   5.067   5.445  15.803  0.1967 -1.3954 -1.2920
15407TIP3    H267713   4.927   5.487  15.844  0.9062 -0.6166  0.3809
15408TIP3   OH267714   0.287   2.671  15.316 -0.1382 -0.0547  0.7376
15408TIP3    H167715   0.341   2.715  15.382 -0.7691  0.4088  0.9461
15408TIP3    H267716   0.346   2.606  15.276  0.4046  0.0472  1.3662
15409TIP3   OH267717   5.945   5.032   3.472 -0.3021  0.4686  0.0360
15409TIP3    H167718   5.882   5.081   3.419 -0.5158  0.3574  0.1888
15409TIP3    H267719   5.991   5.099   3.522  0.0989  0.5994 -0.5068
15410TIP3   OH267720   6.118   6.003  11.311  0.4130  0.4775 -0.6862
15410TIP3    H167721   6.088   6.088  11.344 -0.5326  0.0223 -0.3661
15410TIP3    H267722   6.182   6.026  11.243  0.5528  1.4390 -0.2432
15411TIP3   OH267723   5.121   3.695   0.114 -0.5678 -0.2396  0.4424
15411TIP3    H167724   5.207   3.680   0.076 -0.5065 -0.5533  0.7004
15411TIP3    H267725   5.121   3.787   0.139 -1.0359  0.2720 -1.3887
15412TIP3   OH267726   1.822   3.799  12.324  0.7565  0.0400  0.0851
15412TIP3    H167727   1.917   3.795  12.330  0.7638 -0.2272 -0.2109
15412TIP3    H267728   1.792   3.710  12.344  0.6870 -0.4273 -2.0467
15413TIP3   OH267729   6.414   4.307   2.459 -0.1664  0.4004 -0.0314
15413TIP3    H167730   6.337   4.300   2.516 -0.4505 -1.5751 -0.6197
15413TIP3    H267731   6.404   4.235   2.397  0.7976  1.7537 -1.7954
15414TIP3   OH267732   1.484   4.841   4.687 -0.2938 -0.0381  0.0158
15414TIP3    H167733   1.518   4.929   4.705 -1.2348  0.3131  0.0720
15414TIP3    H267734   1.403   4.835   4.737 -0.0668 -1.0696  0.2838
15415TIP3   OH267735   0.593   3.243   3.913  0.2138  0.5374 -0.1708
15415TIP3    H167736   0.543   3.312   3.957  0.6391  0.7727 -0.0589
15415TIP3    H267737   0.678   3.242   3.957  0.4014  0.3092 -0.5345
15416TIP3   OH267738   2.932   4.562   3.996  0.3344  0.1492  0.1549
15416TIP3    H167739   2.980   4.479   3.999 -0.2188 -0.1553  1.2133
15416TIP3    H267740   2.840   4.536   4.004  0.3329  1.0232  3.9427
15417TIP3   OH267741   1.577   3.480  11.750 -0.5779  0.2436 -0.0369
15417TIP3    H167742   1.595   3.447  11.662  1.5641  0.8917  0.1233
15417TIP3    H267743   1.614   3.568  11.750 -1.6982  0.7199  1.1187
15418TIP3   OH267744   5.843   3.999   1.136 -0.5486  0.0429  0.2423
15418TIP3    H167745   5.874   3.993   1.227  0.7552  2.3098 -0.0125
15418TIP3    H267746   5.842   4.093   1.118 -0.2952 -0.4160 -2.2660
15419TIP3   OH267747   2.599   2.782  15.151  0.2191  0.1064  0.2374
15419TIP3    H167748   2.551   2.707  15.188 -0.6461 -0.1196 -1.2884
15419TIP3    H267749   2.650   2.744  15.079  0.5604  0.8107  0.1061
15420TIP3   OH267750   5.284   5.277   4.000  0.0147 -0.2983 -0.3393
15420TIP3    H167751   5.278   5.284   4.095 -1.2939 -2.1312 -0.2561
15420TIP3    H267752   5.373   5.248   3.983  0.3071  0.2019  0.3014
15421TIP3   OH267753   0.306   4.690  15.102  0.2830  0.2341  0.0136
15421TIP3    H167754   0.211   4.688  15.088  0.4794  2.0427 -1.8137
15421TIP3    H267755   0.316   4.693  15.198 -1.5058  0.0958  0.2257
15422TIP3   OH267756   4.490   4.393  11.352 -0.2299  0.1649  0.2885
15422TIP3    H167757   4.425   4.413  11.419 -1.8246 -0.1218 -1.1210
15422TIP3    H267758   4.569   4.438  11.380 -2.1857  3.9890 -0.0598
15423TIP3   OH267759   2.227   0.895  10.930  0.4595  0.7558  0.4001
15423TIP3    H167760   2.200   0.933  10.846  0.1981  1.5825  0.8404
15423TIP3    H267761   2.156   0.919  10.990  0.9676  0.7680  1.0051
15424TIP3   OH267762   1.917   2.523   5.296  0.3896 -0.0608 -0.3206
15424TIP3    H167763   2.007   2.537   5.323 -0.1344  2.0484  0.4694
15424TIP3    H267764   1.870   2.505   5.377  0.2535 -2.1313 -0.8392
15425TIP3   OH267765   4.356   3.226  15.408 -0.1960  0.2553  1.1321
15425TIP3    H167766   4.353   3.136  15.440  0.5812  0.2938  1.3379
15425TIP3    H267767   4.381   3.217  15.316 -0.3735  0.2456  1.0847
15426TIP3   OH267768   3.436   2.714  13.482 -0.2212  0.0669 -0.1229
15426TIP3    H167769   3.467   2.798  13.515 -2.1048  0.7606 -0.0272
15426TIP3    H267770   3.376   2.683  13.550  0.8304 -1.5946  0.0607
15427TIP3   OH267771   1.880   4.169   3.134  0.3049  0.1568 -0.2221
15427TIP3    H167772   1.805   4.122   3.096  0.3200  0.7488 -0.9825
15427TIP3    H267773   1.884   4.137   3.225 -0.2080 -0.6753 -0.4841
15428TIP3   OH267774   2.456   1.515   2.044  0.3375 -0.6635  0.3850
15428TIP3    H167775   2.448   1.508   1.948 -1.1823 -0.8170  0.5073
15428TIP3    H267776   2.513   1.591   2.057  1.3249 -1.2045 -0.6462
15429TIP3   OH267777   4.373   4.806  16.797 -0.2637  0.2353 -0.1531
15429TIP3    H167778   4.365   4.840  16.886  1.4580  0.7783 -0.1912
15429TIP3    H267779   4.286   4.819  16.758 -1.2877 -0.8780  1.7445
15430TIP3   OH267780   4.613   2.426   0.939 -0.2161  0.2722 -0.1127
15430TIP3    H167781   4.606   2.336   0.971 -0.1126 -0.4065 -1.9231
15430TIP3    H267782   4.524   2.448   0.913  0.2055 -0.2492 -2.0720
15431TIP3   OH267783   4.201   4.552  14.282  0.3308  0.3655 -0.3672
15431TIP3    H167784   4.173   4.463  14.265  0.3622  0.5108 -1.1765
15431TIP3    H267785   4.125   4.594  14.322  0.1096  0.1518 -0.5603
15432TIP3   OH267786   0.268   2.358  15.755  0.4830 -0.1373 -0.1334
15432TIP3    H167787   0.309   2.435  15.794 -0.0597 -0.1128  0.4066
15432TIP3    H267788   0.290   2.286  15.815  1.1072 -0.4263 -0.7086
15433TIP3   OH267789   3.939   4.070  11.619  0.1669  0.2282  0.1287
15433TIP3    H167790   4.028   4.065  11.585  0.4109 -0.7223  0.8830
15433TIP3    H267791   3.917   4.163  11.616  0.1442  0.1551 -2.6896
15434TIP3   OH267792   3.857   4.604   3.576  0.1024  0.1672  0.6070
15434TIP3    H167793   3.927   4.592   3.513  0.8599  2.7649  0.9132
15434TIP3    H267794   3.886   4.556   3.654  1.9195  1.8398  0.9918
15435TIP3   OH267795   1.146   1.842   4.231 -0.0931 -0.5445 -0.1869
15435TIP3    H167796   1.073   1.798   4.188  1.9516 -2.0034 -2.2360
15435TIP3    H267797   1.151   1.928   4.188 -0.5167 -0.4708 -0.0945
15436TIP3   OH267798   0.861   5.531   2.917  0.2501 -0.0171 -0.0261
15436TIP3    H167799   0.815   5.585   2.982 -1.2437 -0.9836 -0.2835
15436TIP3    H267800   0.943   5.506   2.961  0.8275  2.1821  0.2184
15437TIP3   OH267801   0.565   4.652  13.163  0.4627  0.0969 -0.7810
15437TIP3    H167802   0.606   4.632  13.079  0.1241 -3.0379 -0.2391
15437TIP3    H267803   0.634   4.636  13.228  0.0398  0.3056 -0.2797
15438TIP3   OH267804   4.100   5.453  13.492 -0.0807  0.5353  0.5957
15438TIP3    H167805   4.054   5.508  13.555  0.5479  2.6232 -0.7064
15438TIP3    H267806   4.190   5.486  13.492 -0.1522  0.8203 -1.6114
15439TIP3   OH267807   0.267   3.405  10.492 -0.4099  0.3089 -0.0565
15439TIP3    H167808   0.356   3.396  10.525 -0.2938  1.2365 -0.0986
15439TIP3    H267809   0.211   3.390  10.568 -0.2018  0.3255  0.0976
15440TIP3   OH267810   6.197   5.428  12.195  0.4825 -0.0730  0.6061
15440TIP3    H167811   6.142   5.489  12.243 -0.7004 -1.6609  1.3167
15440TIP3    H267812   6.205   5.466  12.107 -0.4926  0.9180  0.9415
15441TIP3   OH267813   0.187   1.515  16.976  0.3143 -0.4283  0.1152
15441TIP3    H167814   0.158   1.529  17.066  0.2449 -0.3109  0.0744
15441TIP3    H267815   0.148   1.431  16.951 -1.4113  0.5229 -0.5031
15442TIP3   OH267816   0.672   0.129   2.724 -0.3509 -0.0118  0.6514
15442TIP3    H167817   0.590   0.085   2.704  0.5232 -0.8463 -1.1924
15442TIP3    H267818   0.657   0.220   2.700 -0.7390 -0.1538  0.3617
15443TIP3   OH267819   5.391   0.047  16.563 -0.0976  0.2659 -0.3438
15443TIP3    H167820   5.331   0.018  16.495  0.5655 -0.1786 -0.7364
15443TIP3    H267821   5.368  -0.006  16.640 -0.6979  0.6165 -0.2758
15444TIP3   OH267822   1.465   5.360   2.586 -0.3269 -0.1035 -0.5216
15444TIP3    H167823   1.516   5.296   2.537 -0.8177  0.2858 -1.5761
15444TIP3    H267824   1.375   5.328   2.582 -0.6665  0.8895 -1.5278
15445TIP3   OH267825   3.098   1.913  15.630  0.4185 -0.1939  0.5322
15445TIP3    H167826   3.108   1.917  15.535 -0.3824  1.3047  0.4938
15445TIP3    H267827   3.176   1.956  15.664  0.4985 -0.3466  0.5411
15446TIP3   OH267828   6.809   1.099   2.174  0.1855  0.0703 -0.4809
15446TIP3    H167829   6.898   1.101   2.137 -0.1534  0.2295 -1.2949
15446TIP3    H267830   6.758   1.050   2.110 -0.9204  2.3094 -1.3508
15447TIP3   OH267831   3.531   0.424  14.872 -0.2634 -0.0923  0.4553
15447TIP3    H167832   3.470   0.357  14.839 -0.5331 -0.5858  1.9172
15447TIP3    H267833   3.617   0.383  14.866 -0.3155 -0.1908  0.3698
15448TIP3   OH267834   1.625   4.468  12.609  0.0113 -0.1213  0.4331
15448TIP3    H167835   1.633   4.379  12.644 -1.0800  0.1699  1.4775
15448TIP3    H267836   1.707   4.483  12.562  0.1802 -1.6948  0.1975
15449TIP3   OH267837   1.656   2.086  15.444  0.3874 -0.0077 -0.4191
15449TIP3    H167838   1.712   2.100  15.520 -2.9439  0.1293  2.0849
15449TIP3    H267839   1.620   1.998  15.457 -0.4299  0.1189 -1.7428
15450TIP3   OH267840   6.615   5.111  12.459 -0.0380  0.0841  0.0504
15450TIP3    H167841   6.523   5.085  12.466  0.0180 -0.3667 -0.7090
15450TIP3    H267842   6.629   5.121  12.365  0.0082  2.7202  0.3205
15451TIP3   OH267843   6.483   5.123   4.884  0.3950  0.2302  0.1985
15451TIP3    H167844   6.546   5.192   4.862  0.8441 -0.3670 -0.3902
15451TIP3    H267845   6.424   5.120   4.809 -0.0783  0.4725  0.5495
15452TIP3   OH267846   5.887   1.968  17.273  0.0358 -0.0496 -0.0041
15452TIP3    H167847   5.919   2.054  17.246  0.0093  0.3177  1.0905
15452TIP3    H267848   5.807   1.954  17.223 -0.0450  0.6421 -0.0663
15453TIP3   OH267849   1.624   3.342   6.488  0.0896 -0.5457  0.3986
15453TIP3    H167850   1.598   3.360   6.578 -1.2650 -0.8038  0.0679
15453TIP3    H267851   1.688   3.410   6.468  1.1472 -1.0656  1.8632
15454TIP3   OH267852   2.642   3.462  15.605  0.0297  0.2369 -0.0157
15454TIP3    H167853   2.592   3.543  15.603  0.3412  0.4515  0.7079
15454TIP3    H267854   2.663   3.443  15.513 -0.2778  0.8257 -0.2031
15455TIP3   OH267855   1.096   1.324   5.548 -0.2954 -0.8397 -0.0949
15455TIP3    H167856   1.017   1.271   5.534 -1.1989 -0.0490  1.8008
15455TIP3    H267857   1.074   1.409   5.512 -0.9018 -0.1725  1.7881
15456TIP3   OH267858   4.253   1.437  10.560 -0.2029 -0.0730  0.6451
15456TIP3    H167859   4.172   1.469  10.598 -0.0225 -0.0294  0.9942
15456TIP3    H267860   4.318   1.447  10.630  0.4457  1.3969 -0.1526
15457TIP3   OH267861   1.321   5.001   4.882 -0.1812  0.2741 -0.9095
15457TIP3    H167862   1.311   5.052   4.962 -1.8062 -1.0805 -0.2142
15457TIP3    H267863   1.292   4.913   4.906  0.4439 -0.4414 -2.6746
15458TIP3   OH267864   0.025   2.703  14.471  0.0107 -0.2277  0.4462
15458TIP3    H167865   0.018   2.736  14.561  0.4447 -3.6830  1.7932
15458TIP3    H267866  -0.042   2.636  14.464 -1.6281  1.6134 -2.6349
15459TIP3   OH267867   5.727   2.165  11.418 -0.5138  0.2540 -0.3051
15459TIP3    H167868   5.640   2.200  11.396 -0.7648  0.6756  1.2778
15459TIP3    H267869   5.785   2.241  11.416 -0.5551  0.3125  0.5308
15460TIP3   OH267870   4.670   1.503   4.873 -0.1644  0.6328  0.3516
15460TIP3    H167871   4.741   1.538   4.820 -0.0663  0.0160  0.0664
15460TIP3    H267872   4.685   1.408   4.873  1.2080  0.7950  3.4404
15461TIP3   OH267873   2.187   4.105  12.998 -0.1321 -0.5078  0.1387
15461TIP3    H167874   2.136   4.025  13.000 -1.1020  0.0755 -0.5408
15461TIP3    H267875   2.161   4.148  12.917  1.4152 -0.1728 -0.2022
15462TIP3   OH267876   4.959   4.309   6.174  0.4039  0.2091  0.5511
15462TIP3    H167877   4.888   4.332   6.233  0.8611  1.0297  0.7926
15462TIP3    H267878   5.037   4.350   6.212  0.8828 -0.0879 -0.0810
15463TIP3   OH267879   6.050   1.727   1.199  0.1156  0.4392 -0.0869
15463TIP3    H167880   6.014   1.657   1.144  0.8816  0.4063 -0.5653
15463TIP3    H267881   6.048   1.804   1.143 -2.4929  1.2582  1.0725
15464TIP3   OH267882   0.264   4.102   3.882  0.3451 -0.2774 -0.1030
15464TIP3    H167883   0.251   4.038   3.951 -0.8360 -2.6386 -2.4337
15464TIP3    H267884   0.323   4.059   3.820  1.5426  1.8683 -0.5241
15465TIP3   OH267885   5.300   4.645   0.191  0.0010  0.4028  0.4055
15465TIP3    H167886   5.392   4.642   0.163  0.0451  0.9467  0.4794
15465TIP3    H267887   5.297   4.592   0.271 -0.0891 -1.0274 -0.5298
15466TIP3   OH267888   5.410   4.588  16.781 -0.2673  0.2010 -0.0250
15466TIP3    H167889   5.462   4.563  16.704  2.0279  0.9131  1.2508
15466TIP3    H267890   5.463   4.561  16.856 -0.6784  3.0356  1.3356
15467TIP3   OH267891   6.593   3.709  11.551  0.2690 -0.0177 -0.0340
15467TIP3    H167892   6.624   3.624  11.583  2.5117 -0.0229 -2.0997
15467TIP3    H267893   6.504   3.692  11.520  1.0700 -1.8534 -1.3796
15468TIP3   OH267894   5.962   2.301  14.015  0.3760 -0.2400 -0.1137
15468TIP3    H167895   5.960   2.393  13.988  0.5921 -0.7258 -1.8527
15468TIP3    H267896   5.974   2.304  14.110 -1.6045  1.5568  0.1199
15469TIP3   OH267897   5.148   5.696  11.791 -0.6554 -0.5432 -0.7621
15469TIP3    H167898   5.168   5.735  11.876 -2.3739 -0.9963 -0.1398
15469TIP3    H267899   5.063   5.732  11.767 -0.2259 -0.4997 -2.2509
15470TIP3   OH267900   0.581   2.923   1.989 -0.0475 -0.0561 -0.4858
15470TIP3    H167901   0.534   2.949   2.067  3.3743 -0.6338  1.8793
15470TIP3    H267902   0.578   2.827   1.990  2.8855 -0.1840  0.8776
15471TIP3   OH267903   2.130   5.490  12.681 -0.2635 -0.2400 -0.1501
15471TIP3    H167904   2.120   5.510  12.588 -0.3782 -1.8843 -0.5002
15471TIP3    H267905   2.195   5.420  12.683 -1.0391 -0.9342  0.9332
15472TIP3   OH267906   6.065   6.658   5.176  0.2208  0.2076  0.1785
15472TIP3    H167907   6.065   6.738   5.227 -0.2249  0.4448 -0.1874
15472TIP3    H267908   6.033   6.685   5.090  2.3239  0.1054 -0.6752
15473TIP3   OH267909   2.463   1.354   3.494  0.5172  0.2804 -0.6988
15473TIP3    H167910   2.430   1.264   3.492  1.0978  0.0761 -1.5343
15473TIP3    H267911   2.551   1.347   3.530  0.3997  0.5671 -0.3578
15474TIP3   OH267912   0.513   3.070  16.083 -0.2398 -0.0913  0.2286
15474TIP3    H167913   0.451   3.138  16.056 -0.4405 -0.3275  0.0915
15474TIP3    H267914   0.513   3.076  16.179  0.9050  1.1219  0.1648
15475TIP3   OH267915   4.284   3.036   0.854  0.0892 -0.9240  0.8270
15475TIP3    H167916   4.288   2.950   0.812 -1.0633 -1.5728  2.0041
15475TIP3    H267917   4.336   3.025   0.934 -0.4413 -0.6616  1.2072
15476TIP3   OH267918   0.313   4.416   5.088  0.3533  0.2600 -0.0097
15476TIP3    H167919   0.282   4.386   5.174  0.3699  0.0799 -0.0654
15476TIP3    H267920   0.375   4.486   5.108  1.9584 -1.1990  0.2193
15477TIP3   OH267921   4.823   1.479   5.679 -0.2843 -0.1832 -0.2211
15477TIP3    H167922   4.762   1.493   5.607 -1.0555  1.2536  0.6833
15477TIP3    H267923   4.770   1.440   5.748 -0.2971  1.5159  0.7427
15478TIP3   OH267924   3.662   5.743   3.462 -0.2894  0.4503 -0.0280
15478TIP3    H167925   3.606   5.726   3.538 -0.0474  1.5840  0.4150
15478TIP3    H267926   3.734   5.681   3.471 -1.3249 -0.8416 -0.4604
15479TIP3   OH267927   0.067   1.824   6.032  0.0147 -0.6523  0.2125
15479TIP3    H167928   0.083   1.771   5.954  2.2389  0.1312  0.0881
15479TIP3    H267929  -0.018   1.866   6.016 -0.3060 -1.7540 -1.0638
15480TIP3   OH267930   1.726   5.719   1.469  0.4502  0.2253 -0.4791
15480TIP3    H167931   1.787   5.646   1.476 -0.5268 -0.5398  0.2719
15480TIP3    H267932   1.657   5.699   1.533 -2.5612 -0.8562 -3.9042
15481TIP3   OH267933   4.617   6.362  14.679  0.4193  0.1299 -0.4660
15481TIP3    H167934   4.637   6.365  14.772 -0.4971 -1.2707 -0.2025
15481TIP3    H267935   4.562   6.284  14.668 -1.2409  1.4188 -1.8356
15482TIP3   OH267936   2.463   5.937   4.525  0.1688 -0.0748  0.3127
15482TIP3    H167937   2.383   5.889   4.504 -0.1406 -0.0518  1.3838
15482TIP3    H267938   2.432   6.013   4.575  0.7788  0.4522 -0.1071
15483TIP3   OH267939   1.582   2.080   2.800  0.4557 -0.2760 -0.5410
15483TIP3    H167940   1.546   2.115   2.881 -0.0626  0.0596 -0.9106
15483TIP3    H267941   1.672   2.115   2.796  0.7307 -0.8818  0.2390
15484TIP3   OH267942   3.190   4.225  12.817 -0.4208  0.2115 -0.0065
15484TIP3    H167943   3.268   4.170  12.830 -0.4567  0.6479  2.1277
15484TIP3    H267944   3.160   4.203  12.729  0.4297 -2.0967  0.2575
15485TIP3   OH267945   6.201   1.576  13.204  0.4509 -0.2659 -0.3332
15485TIP3    H167946   6.285   1.573  13.251  0.3973 -2.6781 -0.3113
15485TIP3    H267947   6.225   1.574  13.112  0.4750  1.2498 -0.3576
15486TIP3   OH267948   1.483   6.103   0.832  0.0266  0.4178  0.7182
15486TIP3    H167949   1.458   6.110   0.740 -0.5914  1.5841  0.9642
15486TIP3    H267950   1.485   6.009   0.849  0.6083  0.1821 -0.6115
15487TIP3   OH267951   0.233   2.419  12.269 -0.0014  0.7667 -0.3708
15487TIP3    H167952   0.139   2.424  12.286 -0.0083  1.3303 -0.5651
15487TIP3    H267953   0.240   2.363  12.191 -0.0768 -0.4174  0.4561
15488TIP3   OH267954   5.541   6.701  17.014  0.3423 -0.4609  0.1000
15488TIP3    H167955   5.588   6.654  17.082  1.8085 -0.6479 -1.0164
15488TIP3    H267956   5.453   6.712  17.049  1.2461  0.0650  2.3086
15489TIP3   OH267957   0.660   6.693  15.708 -0.1589 -0.3241  0.1662
15489TIP3    H167958   0.735   6.659  15.756 -0.0530 -0.1902  0.0972
15489TIP3    H267959   0.643   6.629  15.640  1.8201  1.1268 -1.7731
15490TIP3   OH267960   5.819   0.833   0.230  0.1042 -0.0095  0.0753
15490TIP3    H167961   5.892   0.820   0.170 -1.3572 -3.3259 -1.1258
15490TIP3    H267962   5.788   0.744   0.250 -3.6932  1.2826  0.4212
15491TIP3   OH267963   5.672   6.303   2.854  0.0668 -0.4620 -0.0512
15491TIP3    H167964   5.675   6.219   2.809  1.4626  0.8823 -2.5750
15491TIP3    H267965   5.759   6.341   2.840 -0.3333  1.1390  1.5955
15492TIP3   OH267966   6.036   6.404   0.057 -0.3786  0.0052  0.2049
15492TIP3    H167967   6.079   6.469   0.001 -1.1437  1.6013  1.4328
15492TIP3    H267968   6.017   6.331  -0.001  2.0791  0.1492 -0.8199
15493TIP3   OH267969   3.031   6.253  11.351  0.6543  0.1127  0.6843
15493TIP3    H167970   2.943   6.285  11.370  0.0222 -1.3967  0.4302
15493TIP3    H267971   3.062   6.217  11.434  0.1911 -1.2263  0.2976
15494TIP3   OH267972   6.407   3.539  16.744 -0.6425  0.2334  0.5969
15494TIP3    H167973   6.397   3.449  16.774  0.6145 -0.7579 -1.8125
15494TIP3    H267974   6.502   3.551  16.736 -0.8756  0.8126 -1.7733
15495TIP3   OH267975   1.161   3.236   0.898  0.2667 -0.2338  0.2893
15495TIP3    H167976   1.162   3.176   0.972  2.8067  2.3204  2.4095
15495TIP3    H267977   1.112   3.312   0.929  1.9173  1.1439 -0.3710
15496TIP3   OH267978   6.571   4.250  16.538 -0.2731  0.1364  0.2797
15496TIP3    H167979   6.547   4.158  16.546 -2.8907  0.7043 -0.4589
15496TIP3    H267980   6.592   4.277  16.627 -1.3352 -0.7142  0.8026
15497TIP3   OH267981   6.582   0.872   2.821  0.6561 -0.5159  0.2054
15497TIP3    H167982   6.584   0.831   2.734  0.4481  0.1344 -0.1092
15497TIP3    H267983   6.566   0.799   2.881  3.1675 -1.3448 -0.0585
15498TIP3   OH267984   2.249   5.035   1.033 -0.1290 -0.3754  0.2115
15498TIP3    H167985   2.299   5.108   1.071  2.1423 -2.0781  0.5643
15498TIP3    H267986   2.273   5.035   0.941 -2.4180  1.1414 -0.4091
15499TIP3   OH267987   0.264   3.860  14.955 -0.2116 -0.0547  0.1255
15499TIP3    H167988   0.325   3.805  15.004 -0.1981 -0.4785 -0.3666
15499TIP3    H267989   0.218   3.800  14.896  1.8239  0.8294 -2.4684
15500TIP3   OH267990   3.972   5.855   5.551 -0.3562  0.0009 -0.1834
15500TIP3    H167991   3.981   5.761   5.536  1.1805 -0.1604  1.6159
15500TIP3    H267992   3.894   5.863   5.606 -0.9787 -0.1219 -1.0250
15501TIP3   OH267993   4.722   5.588   1.906  0.0149 -0.0525 -0.3649
15501TIP3    H167994   4.761   5.539   1.833 -0.1240  0.6465 -0.9078
15501TIP3    H267995   4.793   5.644   1.937 -0.2446  0.4438 -0.6673
15502TIP3   OH267996   1.296   5.708   3.802 -0.4433  0.9507 -0.1855
15502TIP3    H167997   1.302   5.800   3.825 -0.9451  0.7946  0.5921
15502TIP3    H267998   1.209   5.699   3.761  0.8814  1.4616 -3.2854
15503TIP3   OH267999   2.602   6.802  13.604 -0.2137  0.2356 -0.4365
15503TIP3    H168000   2.639   6.854  13.676 -1.3231  1.2987 -0.6089
15503TIP3    H268001   2.662   6.816  13.531  0.7530 -0.6030  0.1811
15504TIP3   OH268002   1.449   2.023  14.698  0.0740  0.1386 -0.1872
15504TIP3    H168003   1.459   1.951  14.635 -0.5086  0.0221 -0.1492
15504TIP3    H268004   1.461   1.981  14.784  1.4247  0.3992 -0.2432
15505TIP3   OH268005   4.857   4.128  14.570  0.0502  0.3074  0.6890
15505TIP3    H168006   4.812   4.138  14.654 -0.6928 -0.7872  0.4263
15505TIP3    H268007   4.862   4.034  14.556  0.9291  0.4641 -0.0933
15506TIP3   OH268008   5.843   2.250   0.463  0.0767  0.4523  0.6540
15506TIP3    H168009   5.936   2.252   0.483  0.0850  1.5084  0.5189
15506TIP3    H268010   5.837   2.193   0.386  0.4958 -0.3641  1.2208
15507TIP3   OH268011   1.471   0.058   1.483  0.2803 -0.2149 -0.3438
15507TIP3    H168012   1.391   0.006   1.493 -0.1893  0.8834  2.2003
15507TIP3    H268013   1.541  -0.006   1.475 -0.4305 -1.2518  1.4858
15508TIP3   OH268014   2.802   3.514   5.894  0.0659 -0.8908 -0.3027
15508TIP3    H168015   2.813   3.589   5.952  1.6453 -2.2073  1.1376
15508TIP3    H268016   2.732   3.540   5.835 -0.4865  1.1047  1.1760
15509TIP3   OH268017   0.481   4.689  12.117  0.4077  0.2430 -0.1606
15509TIP3    H168018   0.546   4.732  12.173  0.1967 -0.2096  0.4473
15509TIP3    H268019   0.519   4.603  12.098  1.0111  0.8361 -1.7011
15510TIP3   OH268020   2.731   2.067  11.247  0.4321  0.2756  0.7619
15510TIP3    H168021   2.755   1.999  11.310 -0.4148  0.7222  1.5703
15510TIP3    H268022   2.642   2.092  11.271  0.9042  2.0025  0.7550
15511TIP3   OH268023   6.766   6.651   4.007 -0.2118 -0.0348 -0.1266
15511TIP3    H168024   6.715   6.730   4.027 -1.0438 -1.3044  3.0500
15511TIP3    H268025   6.855   6.673   4.032 -0.4594 -0.1149  0.8423
15512TIP3   OH268026   3.751   4.438   1.224  0.2729 -0.6450  0.3742
15512TIP3    H168027   3.668   4.398   1.248 -0.5619  0.2588 -0.9471
15512TIP3    H268028   3.745   4.452   1.129  1.4406  0.5241  0.4442
15513TIP3   OH268029   0.067   0.971  13.966 -0.0616  0.3185  0.5148
15513TIP3    H168030  -0.026   0.963  13.986 -0.1878  0.1106 -0.1269
15513TIP3    H268031   0.073   1.047  13.908  0.6778  2.7610  3.6720
15514TIP3   OH268032   3.261   4.015  17.164 -0.6483 -0.0374  1.3695
15514TIP3    H168033   3.292   3.936  17.209  0.6037 -0.0002  0.5845
15514TIP3    H268034   3.324   4.082  17.188 -0.3157  0.1288  0.0288
15515TIP3   OH268035   5.685   2.312  15.701 -0.7444  0.2272  0.1595
15515TIP3    H168036   5.713   2.289  15.612 -0.2495 -0.0698  0.3830
15515TIP3    H268037   5.648   2.231  15.736 -0.5017  0.2110  0.3854
15516TIP3   OH268038   2.524   1.895  14.324  0.5122  0.6883 -0.0997
15516TIP3    H168039   2.475   1.959  14.273  1.9677  0.5414 -1.7331
15516TIP3    H268040   2.615   1.907  14.296  0.9072 -1.5653  0.1385
15517TIP3   OH268041   0.423   5.814  10.993  0.0456 -0.5045 -0.0743
15517TIP3    H168042   0.456   5.753  10.926 -1.8482 -0.1400 -1.3790
15517TIP3    H268043   0.376   5.881  10.944 -2.0029 -0.6152  1.6502
15518TIP3   OH268044   1.851   6.549   5.407 -0.5725 -0.0662 -0.2590
15518TIP3    H168045   1.820   6.613   5.471 -0.0154  0.5054 -0.5604
15518TIP3    H268046   1.850   6.595   5.324 -0.6621 -0.6082 -0.5616
15519TIP3   OH268047   2.836   2.456   2.001  0.1189  0.1312  1.2731
15519TIP3    H168048   2.785   2.529   2.035 -1.6973 -0.8112  0.6294
15519TIP3    H268049   2.846   2.475   1.908  1.6418  0.7012  1.5393
15520TIP3   OH268050   5.172   6.317   1.734  0.4118 -0.5259 -0.1019
15520TIP3    H168051   5.139   6.285   1.817 -2.2381  2.0756 -0.0884
15520TIP3    H268052   5.110   6.285   1.669  0.1418  0.9523 -0.5840
15521TIP3   OH268053   2.581   3.002   2.617  0.4357 -0.2209  0.7465
15521TIP3    H168054   2.579   2.958   2.703  1.3942 -1.6014  0.0859
15521TIP3    H268055   2.675   3.014   2.600  0.2080  0.9144  0.3212
15522TIP3   OH268056   2.152   1.956  12.408 -0.0636  0.4313  0.4556
15522TIP3    H168057   2.202   2.018  12.463 -0.2972  1.5159 -0.5266
15522TIP3    H268058   2.148   1.999  12.323  0.0665 -1.1260 -0.3423
15523TIP3   OH268059   6.388   3.153   0.075  0.1872 -0.3948 -0.2326
15523TIP3    H168060   6.369   3.095   0.149  0.2371 -1.8535 -1.3489
15523TIP3    H268061   6.314   3.213   0.072  0.0920 -0.4520  0.8891
15524TIP3   OH268062   5.447   0.563  14.342  0.7598 -0.3288  0.6169
15524TIP3    H168063   5.369   0.611  14.370  1.2554  0.9347 -0.1432
15524TIP3    H268064   5.480   0.612  14.267  2.1041 -1.0448  0.7196
15525TIP3   OH268065   5.096   1.062   5.175 -0.0610  0.0284 -0.4163
15525TIP3    H168066   5.169   1.103   5.129  1.3037 -2.0855 -0.2059
15525TIP3    H268067   5.051   1.012   5.107 -1.4791  1.4882 -0.5892
15526TIP3   OH268068   0.728   0.733   1.330 -0.1380 -0.3553  0.1646
15526TIP3    H168069   0.791   0.719   1.259  1.3398  0.7561  1.2318
15526TIP3    H268070   0.751   0.819   1.366 -1.1756 -0.6923  1.6721
15527TIP3   OH268071   2.511   5.806  13.947 -0.2483  0.1240 -0.5563
15527TIP3    H168072   2.605   5.824  13.947 -0.2913  0.3958 -1.3077
15527TIP3    H268073   2.497   5.747  14.020  0.2482  1.4630  0.6424
15528TIP3   OH268074   5.123   2.077  16.196 -0.5025  0.2570  0.2818
15528TIP3    H168075   5.030   2.057  16.189 -0.6293  1.2616 -1.2082
15528TIP3    H268076   5.166   2.005  16.149 -0.6415  0.7095 -0.5476
15529TIP3   OH268077   2.657   6.050  12.128  0.1664  0.0207  0.0813
15529TIP3    H168078   2.564   6.064  12.146  0.5782  1.3336  1.3132
15529TIP3    H268079   2.688   5.997  12.201  1.0243  2.1830  1.3569
15530TIP3   OH268080   2.326   1.294  12.192 -0.8493  0.0637 -0.7606
15530TIP3    H168081   2.275   1.357  12.244 -1.0198  0.0548 -0.9196
15530TIP3    H268082   2.383   1.349  12.138 -0.2269  0.0636 -0.1130
15531TIP3   OH268083   2.629   0.703   4.416  0.2440 -0.4244  0.0895
15531TIP3    H168084   2.713   0.727   4.456  0.2186 -0.0357 -0.0926
15531TIP3    H268085   2.652   0.644   4.345  0.2726 -1.3523  0.8518
15532TIP3   OH268086   4.579   2.498  10.562  0.3074 -0.6167  0.1759
15532TIP3    H168087   4.584   2.589  10.592  0.1091  0.1460 -1.9738
15532TIP3    H268088   4.486   2.478  10.560  0.1158  0.2659 -2.4147
15533TIP3   OH268089   2.575   4.680   5.371  0.3594  0.4275  0.6025
15533TIP3    H168090   2.630   4.679   5.449  1.2183 -0.6611  0.0088
15533TIP3    H268091   2.597   4.762   5.327  1.4929  0.0081  0.3820
15534TIP3   OH268092   5.900   3.569  13.801  0.2506  0.3309  0.0254
15534TIP3    H168093   5.827   3.589  13.860  0.0813 -0.8903  0.2613
15534TIP3    H268094   5.979   3.593  13.851  0.0428  0.8293  0.1127
15535TIP3   OH268095   4.812   1.281   2.352  0.1164  0.0917  0.3507
15535TIP3    H168096   4.828   1.320   2.266  1.6412  1.7374  1.3397
15535TIP3    H268097   4.801   1.188   2.334 -4.0662  0.9497 -2.1311
15536TIP3   OH268098   4.089   0.462   0.413 -0.0399  0.1603  0.2415
15536TIP3    H168099   4.084   0.441   0.506 -0.6879 -0.3449  0.1013
15536TIP3    H268100   4.006   0.506   0.394 -0.0660 -0.0627 -0.1693
15537TIP3   OH268101   2.254   2.492   3.688 -0.3235  0.2806  0.3368
15537TIP3    H168102   2.277   2.410   3.732 -0.1439  0.6995  1.0346
15537TIP3    H268103   2.264   2.559   3.756  1.8485  1.1957 -0.8287
15538TIP3   OH268104   2.875   6.658  12.119 -0.5593 -0.6267  0.1431
15538TIP3    H168105   2.837   6.740  12.148 -2.1751 -1.2134 -0.2614
15538TIP3    H268106   2.889   6.608  12.200  0.5077  0.0678  0.3957
15539TIP3   OH268107   5.902   1.712  16.424  0.4046 -0.0685 -0.0700
15539TIP3    H168108   5.977   1.653  16.426 -1.9840 -3.1985  2.0191
15539TIP3    H268109   5.891   1.740  16.515 -0.7388  0.6377 -0.4142
15540TIP3   OH268110   5.799   0.584  12.613  0.6211  0.8403 -0.4756
15540TIP3    H168111   5.792   0.495  12.647  1.1249  0.7450 -0.6196
15540TIP3    H268112   5.837   0.573  12.526  0.3837  1.1724 -0.6220
15541TIP3   OH268113   1.168   0.118   5.024  0.6159  0.1073 -0.7617
15541TIP3    H168114   1.231   0.055   4.990  0.2747  0.5752 -2.2808
15541TIP3    H268115   1.088   0.067   5.039  1.3225 -0.4883  1.1812
15542TIP3   OH268116   3.325   5.087  11.546  0.0619  0.5473 -0.2799
15542TIP3    H168117   3.297   5.160  11.491 -0.1026  0.6494 -0.0627
15542TIP3    H268118   3.257   5.080  11.613  0.8019  1.1040  0.5398
15543TIP3   OH268119   4.166   6.638   3.954 -0.1242 -0.2105 -0.6689
15543TIP3    H168120   4.256   6.606   3.954 -0.5220 -1.3606 -1.8301
15543TIP3    H268121   4.142   6.645   3.862 -1.1750  0.2358 -0.3771
15544TIP3   OH268122   5.446   5.895   2.147 -0.2383 -0.4198 -0.2413
15544TIP3    H168123   5.436   5.990   2.150 -0.5964 -0.4387 -0.7173
15544TIP3    H268124   5.540   5.881   2.136  0.2366 -0.1962  2.9627
15545TIP3   OH268125   4.412   2.947  13.860  0.4921 -0.5355  0.2843
15545TIP3    H168126   4.346   2.927  13.794  0.7956  0.8106 -0.4607
15545TIP3    H268127   4.494   2.919  13.820  0.5233 -0.9623  0.6484
15546TIP3   OH268128   0.144   4.450   0.969  0.0892 -0.1696 -0.3622
15546TIP3    H168129   0.073   4.514   0.967  0.8391  0.6844 -0.1603
15546TIP3    H268130   0.210   4.485   0.908  1.8279  0.8553  2.0108
15547TIP3   OH268131   4.551   0.192   4.826  0.0680  0.1636 -0.2952
15547TIP3    H168132   4.467   0.237   4.826  0.0461  0.1577  1.1002
15547TIP3    H268133   4.612   0.255   4.789 -0.0824  1.1233  1.0560
15548TIP3   OH268134   3.322   3.618   3.677  0.1767 -0.5594  0.0669
15548TIP3    H168135   3.320   3.697   3.731 -1.8110  0.5725 -1.5561
15548TIP3    H268136   3.413   3.589   3.680  0.8339  1.5074  1.1283
15549TIP3   OH268137   3.518   1.927  13.107  0.5795 -1.0264  0.0503
15549TIP3    H168138   3.484   1.864  13.044  0.1922 -1.5777  0.8026
15549TIP3    H268139   3.611   1.907  13.114  1.0307  0.2706 -1.7644
15550TIP3   OH268140   2.135   3.135   3.135  0.8543 -0.1607 -0.6113
15550TIP3    H168141   2.055   3.170   3.095  1.0787 -0.7080 -1.5490
15550TIP3    H268142   2.162   3.202   3.197 -1.7198 -1.0240  1.5651
15551TIP3   OH268143   4.755   0.710  16.048  0.1962  0.2200 -0.4338
15551TIP3    H168144   4.814   0.764  16.101  0.7746 -1.5956  0.7988
15551TIP3    H268145   4.712   0.773  15.989  2.9105  1.6390 -0.9660
15552TIP3   OH268146   0.852   6.585   1.572 -0.0119 -0.4059  0.5106
15552TIP3    H168147   0.769   6.558   1.610  0.3762 -1.9836  0.3096
15552TIP3    H268148   0.913   6.589   1.646 -0.1791  0.4130  0.6087
15553TIP3   OH268149   1.194   3.292  14.788 -0.2294  0.1808  0.3711
15553TIP3    H168150   1.204   3.315  14.695  0.2814  0.3303  0.4604
15553TIP3    H268151   1.185   3.376  14.832 -3.3885  0.0335  0.1472
15554TIP3   OH268152   6.722   4.708   5.810 -0.0560 -0.2524  0.3898
15554TIP3    H168153   6.787   4.771   5.779  0.3036 -1.2741 -0.9979
15554TIP3    H268154   6.653   4.761   5.848  0.1406  0.9879 -0.9306
15555TIP3   OH268155   0.983   2.182   1.667  0.4382 -0.2939 -0.5125
15555TIP3    H168156   0.979   2.218   1.579 -1.0547  0.2947 -0.2243
15555TIP3    H268157   1.067   2.212   1.702  0.0690  1.3115 -0.9601
15556TIP3   OH268158   1.420   0.509  12.163  0.0757  0.5197  0.6090
15556TIP3    H168159   1.357   0.445  12.198 -1.6017  0.7121 -1.8771
15556TIP3    H268160   1.402   0.589  12.212 -0.2125  0.0033  1.3551
15557TIP3   OH268161   6.501   1.351   0.248  0.2135 -0.0970  0.0622
15557TIP3    H168162   6.589   1.312   0.246 -0.7045 -2.2178 -3.1470
15557TIP3    H268163   6.478   1.353   0.341  3.1666 -0.6485  0.8652
15558TIP3   OH268164   0.510   6.769  12.478 -0.7362  0.1262 -0.6047
15558TIP3    H168165   0.497   6.807  12.565 -1.7139  2.6547 -1.8081
15558TIP3    H268166   0.536   6.843  12.423 -2.3272 -0.9747 -2.9470
15559TIP3   OH268167   4.510   2.095  12.291 -0.0864 -0.2626  0.0292
15559TIP3    H168168   4.578   2.034  12.265  1.0912  1.4306 -0.9441
15559TIP3    H268169   4.495   2.076  12.384  0.1131 -2.1410 -0.3083
15560TIP3   OH268170   0.230   1.143   4.543 -0.0601  0.2347  0.4179
15560TIP3    H168171   0.183   1.133   4.461 -0.9154 -0.0082  0.9254
15560TIP3    H268172   0.169   1.189   4.601  0.6195  0.6243  0.8395
15561TIP3   OH268173   6.558   4.716  13.016  0.0192 -0.3689 -0.2896
15561TIP3    H168174   6.497   4.687  12.948  0.5812 -0.3047 -0.8263
15561TIP3    H268175   6.577   4.807  12.994  2.2148 -1.0923 -1.5798
15562TIP3   OH268176   6.618   4.860   2.319  0.0504  0.5196  0.2506
15562TIP3    H168177   6.579   4.773   2.332 -1.2058  0.9498 -0.5237
15562TIP3    H268178   6.552   4.921   2.352  1.4563  1.1512  1.9749
15563TIP3   OH268179   6.281   6.355  11.574 -0.3623  0.0350  0.3705
15563TIP3    H168180   6.196   6.341  11.616 -0.6712  1.2512  0.1965
15563TIP3    H268181   6.287   6.286  11.508 -2.6268  1.7480 -1.7459
15564TIP3   OH268182   5.234   0.055  16.033  0.5690 -0.0834 -0.6602
15564TIP3    H168183   5.152   0.098  16.009  1.3944  1.5895 -0.5173
15564TIP3    H268184   5.279   0.119  16.088 -0.1925 -2.8550  3.4443
15565TIP3   OH268185   6.092   6.420  16.517 -0.1488 -0.2853 -0.0257
15565TIP3    H168186   6.182   6.387  16.521  0.9822  2.7410  1.3633
15565TIP3    H268187   6.055   6.398  16.603  0.1046  0.6770  0.3335
15566TIP3   OH268188   5.480   5.716  16.778 -0.3895 -0.2944  0.3047
15566TIP3    H168189   5.459   5.720  16.684  0.8735  0.3435  0.0455
15566TIP3    H268190   5.574   5.698  16.781  0.2817  3.0317  1.4225
15567TIP3   OH268191   1.181   3.371   4.405 -0.3030 -0.2640 -0.3089
15567TIP3    H168192   1.215   3.297   4.455  0.4087  0.3226  0.0767
15567TIP3    H268193   1.106   3.402   4.456  0.5086  0.4224  0.4780
15568TIP3   OH268194   3.568   1.881   1.166  0.5208 -0.3132 -0.2196
15568TIP3    H168195   3.660   1.860   1.179  0.4893 -0.7204 -0.6566
15568TIP3    H268196   3.549   1.855   1.076 -0.4034 -1.6473  0.3428
15569TIP3   OH268197   2.371   0.213   1.082  0.0220 -0.1079 -0.0507
15569TIP3    H168198   2.312   0.215   1.006 -1.4955 -1.1436  1.0804
15569TIP3    H268199   2.459   0.211   1.043 -0.7012  0.3539 -1.7683
15570TIP3   OH268200   5.670   2.616  17.240  0.0544 -0.3683  0.5217
15570TIP3    H168201   5.612   2.555  17.196 -0.3522 -0.0770  0.6483
15570TIP3    H268202   5.757   2.579  17.229 -0.0908 -0.4957 -0.1828
15571TIP3   OH268203   6.115   6.200  11.707 -0.2792 -0.0698 -0.1304
15571TIP3    H168204   6.021   6.202  11.686 -0.0479 -0.7022 -1.2742
15571TIP3    H268205   6.139   6.108  11.702  0.1673 -0.0412  1.3149
15572TIP3   OH268206   0.182   2.057   5.736  0.2847  0.3237  0.1898
15572TIP3    H168207   0.094   2.052   5.699  0.3552  0.4437  0.0074
15572TIP3    H268208   0.174   2.118   5.809  0.3887  0.9431 -0.3144
15573TIP3   OH268209   6.321   0.628  14.612 -0.0439 -0.1362  0.3449
15573TIP3    H168210   6.257   0.682  14.564  1.3918  0.9900 -0.3329
15573TIP3    H268211   6.325   0.547  14.562  0.4096  0.5002 -0.6744
15574TIP3   OH268212   1.637   0.728  15.534  0.7405  0.9621  0.6177
15574TIP3    H168213   1.587   0.762  15.460  0.6716  0.1486  0.2968
15574TIP3    H268214   1.686   0.804  15.566 -1.4878  2.0520  1.5952
15575TIP3   OH268215   3.242   6.664  11.700  0.0119 -0.5165  0.3422
15575TIP3    H168216   3.294   6.680  11.622 -0.5413 -0.8649 -0.1022
15575TIP3    H268217   3.196   6.746  11.716 -0.0465 -0.5156  0.1692
15576TIP3   OH268218   3.692   1.785  14.755 -0.0927  0.1187 -0.2877
15576TIP3    H168219   3.656   1.723  14.819  0.3592 -0.0270 -0.1737
15576TIP3    H268220   3.633   1.778  14.680 -0.7473  0.4424  0.1886
15577TIP3   OH268221   2.541   5.153  15.414  0.0389 -0.3788 -0.2656
15577TIP3    H168222   2.471   5.157  15.478 -1.0856 -0.0330 -1.5026
15577TIP3    H268223   2.565   5.060  15.410  0.3109 -0.3660  0.8328
15578TIP3   OH268224   4.092   4.555  15.222 -0.4905 -0.4883 -0.6197
15578TIP3    H168225   4.142   4.636  15.217 -1.0019 -0.2392 -2.4406
15578TIP3    H268226   4.138   4.501  15.286 -1.4616  2.1095  2.3835
15579TIP3   OH268227   2.606   6.421  14.367 -0.2349  0.5153 -0.4520
15579TIP3    H168228   2.649   6.417  14.452 -0.2654  1.2387 -0.3965
15579TIP3    H268229   2.588   6.330  14.344 -0.2806  0.3252  0.3448
15580TIP3   OH268230   6.521   5.061   0.324  0.8380  0.3706 -0.8355
15580TIP3    H168231   6.467   4.987   0.297  0.5597 -0.0101  0.7473
15580TIP3    H268232   6.458   5.133   0.336  1.1431  1.0061 -2.7156
15581TIP3   OH268233   4.345   4.543   1.748 -0.0355 -0.0867 -0.0834
15581TIP3    H168234   4.280   4.490   1.702  1.1110 -1.5414 -0.0852
15581TIP3    H268235   4.306   4.630   1.753 -1.1339 -0.4484 -1.8168
15582TIP3   OH268236   0.909   4.984  16.532 -0.6539  0.1044 -0.5499
15582TIP3    H168237   0.817   4.965  16.551 -1.3124  0.6457 -3.1059
15582TIP3    H268238   0.920   4.961  16.440  1.0356  2.7293 -1.0527
15583TIP3   OH268239   5.057   1.786   0.665  0.4329 -0.2857 -0.0961
15583TIP3    H168240   5.088   1.700   0.693  0.3529 -0.7020 -1.2664
15583TIP3    H268241   5.136   1.839   0.658  0.8020 -1.0420 -2.0231
15584TIP3   OH268242   0.165   6.499  15.391  0.0534 -0.4527 -0.2321
15584TIP3    H168243   0.092   6.451  15.429  0.3288 -0.5316  0.2010
15584TIP3    H268244   0.203   6.548  15.465  0.4968 -0.4869 -0.4325
15585TIP3   OH268245   5.786   3.450  16.935 -0.8147  0.0804 -0.3811
15585TIP3    H168246   5.766   3.422  16.846  1.7904 -0.3226 -0.8995
15585TIP3    H268247   5.833   3.376  16.974  1.0056  1.4633  0.1803
15586TIP3   OH268248   2.075   1.008   3.473  0.2060 -0.4204 -0.0872
15586TIP3    H168249   2.033   1.073   3.530 -0.2052 -0.6833 -0.0859
15586TIP3    H268250   2.114   0.945   3.533  1.4564  0.3483 -0.0733
15587TIP3   OH268251   0.461   3.927  11.055  0.2774  0.2159 -0.2450
15587TIP3    H168252   0.468   3.883  10.970  1.9344  0.9993 -0.5392
15587TIP3    H268253   0.520   3.878  11.112  2.5687  2.3292 -0.7213
15588TIP3   OH268254   1.046   6.813   4.255 -0.4277  0.5067 -0.1987
15588TIP3    H168255   0.970   6.871   4.256 -0.8434 -0.0379  0.8742
15588TIP3    H268256   1.122   6.872   4.259 -0.8349  1.0030  0.2718
15589TIP3   OH268257   3.460   5.513  15.006  0.2659 -0.0343 -0.2561
15589TIP3    H168258   3.545   5.508  14.962  0.0776  0.3221 -0.6674
15589TIP3    H268259   3.467   5.452  15.079 -0.1490 -2.2650 -2.0215
15590TIP3   OH268260   5.555   6.014  14.951  0.1353  0.4453  0.2199
15590TIP3    H168261   5.459   6.012  14.961  0.2076 -1.3725  0.6521
15590TIP3    H268262   5.587   6.051  15.033 -0.2683  2.4619 -0.5130
15591TIP3   OH268263   2.605   3.033   4.950 -0.7682  0.2195  0.0470
15591TIP3    H168264   2.683   3.088   4.959  0.1667 -0.6871 -2.0667
15591TIP3    H268265   2.533   3.089   4.977  0.4209  1.7055  0.2239
15592TIP3   OH268266   1.236   0.081  12.040  0.5301  0.3630 -0.3220
15592TIP3    H168267   1.229   0.160  12.093  1.1269  0.2890 -0.1359
15592TIP3    H268268   1.146   0.063  12.013 -0.1987 -0.9864  2.7337
15593TIP3   OH268269   0.136   3.851  10.979  0.9740  0.0591 -0.3176
15593TIP3    H168270   0.065   3.902  11.017  0.7679 -0.7777  0.4424
15593TIP3    H268271   0.181   3.912  10.921  0.3065  0.9036  0.0411
15594TIP3   OH268272   4.074   5.208  12.558 -0.3940  0.3338 -0.5933
15594TIP3    H168273   4.062   5.266  12.633  1.0058  0.1821 -0.2317
15594TIP3    H268274   4.101   5.125  12.597 -1.7910 -0.3999 -1.1439
15595TIP3   OH268275   3.293   2.885   0.035 -0.2171  0.4470 -0.0888
15595TIP3    H168276   3.223   2.880  -0.030  0.9336 -1.2378 -1.2336
15595TIP3    H268277   3.343   2.962   0.010 -0.9059  0.9232 -0.0273
15596TIP3   OH268278   3.493   0.104  15.588  0.2001 -0.2637 -0.1887
15596TIP3    H168279   3.512   0.197  15.592 -0.8891  0.0569 -1.7814
15596TIP3    H268280   3.408   0.094  15.632 -0.7280 -0.1502 -1.8976
15597TIP3   OH268281   0.805   3.299  11.721 -0.2502 -0.4833  0.3106
15597TIP3    H168282   0.855   3.301  11.639 -0.6801  0.7131  0.0680
15597TIP3    H268283   0.722   3.259  11.697  0.6870 -2.7570  0.7796
15598TIP3   OH268284   5.274   1.958   0.645 -0.0334 -1.6369  0.2879
15598TIP3    H168285   5.286   2.022   0.575 -0.2320 -1.6221  0.2681
15598TIP3    H268286   5.270   2.010   0.725 -2.0738 -1.4615  0.1035
15599TIP3   OH268287   0.901   6.178   2.514  0.7211  0.6243  0.0149
15599TIP3    H168288   0.995   6.168   2.524  0.3868 -0.8596  1.8408
15599TIP3    H268289   0.875   6.113   2.449  1.2314  2.5259 -2.1738
15600TIP3   OH268290   1.909   4.015   5.232  0.3340  0.0212 -0.4797
15600TIP3    H168291   1.824   3.989   5.268  0.4388  1.9390  1.2405
15600TIP3    H268292   1.957   3.933   5.223 -0.6707 -0.7927  1.2922
15601TIP3   OH268293   0.665   5.473  10.284 -0.4353 -0.3337 -0.1363
15601TIP3    H168294   0.745   5.448  10.331 -0.8975  0.5456  1.1477
15601TIP3    H268295   0.635   5.552  10.329 -0.4848  0.9626 -2.3824
15602TIP3   OH268296   4.918   3.111  16.934  0.6871  0.0070  0.4450
15602TIP3    H168297   4.878   3.168  17.000  2.5285  0.9697  0.7817
15602TIP3    H268298   4.926   3.167  16.856 -1.0431 -0.9805 -0.4530
15603TIP3   OH268299   6.250   0.190   5.767 -0.0275 -0.2712  0.1127
15603TIP3    H168300   6.313   0.260   5.756  3.2262 -2.9229  0.9558
15603TIP3    H268301   6.240   0.180   5.862 -0.0168 -1.2983  0.0158
15604TIP3   OH268302   0.985   6.720  11.932  0.6364  0.1651  0.5694
15604TIP3    H168303   1.028   6.670  12.002  1.2371 -1.3725 -0.8712
15604TIP3    H268304   1.046   6.715  11.858 -0.3611  1.0859 -0.3387
15605TIP3   OH268305   5.053   4.228  15.183 -0.2897 -0.7231  0.5958
15605TIP3    H168306   5.014   4.305  15.141  2.2097  0.7992  0.9960
15605TIP3    H268307   5.028   4.155  15.126 -0.4605  0.7500 -1.2805
15606TIP3   OH268308   4.219   1.257  13.509  0.0775  0.0140  0.0397
15606TIP3    H168309   4.264   1.286  13.429 -0.0964 -0.0699 -0.0890
15606TIP3    H268310   4.127   1.273  13.491 -0.0369 -0.7765 -0.0970
15607TIP3   OH268311   1.791   1.730  14.830 -0.6657 -0.2101 -0.2517
15607TIP3    H168312   1.840   1.750  14.751  0.8363 -0.5894  0.5584
15607TIP3    H268313   1.750   1.645  14.812 -1.2519  0.2326 -1.0301
15608TIP3   OH268314   2.643   5.708  15.656  0.8488  0.0775  0.4840
15608TIP3    H168315   2.618   5.639  15.595 -0.0018  1.1063 -0.3435
15608TIP3    H268316   2.570   5.711  15.719  0.6186  0.5943  0.1946
15609TIP3   OH268317   6.378   0.736  15.123  0.1526 -0.0215 -0.1282
15609TIP3    H168318   6.297   0.694  15.151 -0.2926  1.2462  0.5211
15609TIP3    H268319   6.359   0.768  15.035 -0.7842  2.1945  0.8658
15610TIP3   OH268320   5.211   0.980  17.026 -0.7872 -0.3319  0.1859
15610TIP3    H168321   5.167   1.007  16.945 -0.2115 -1.1446 -0.3976
15610TIP3    H268322   5.267   0.907  17.001 -1.2816 -1.1800  1.5003
15611TIP3   OH268323   1.602   0.577   5.294  0.1357 -0.8628 -0.5801
15611TIP3    H168324   1.645   0.545   5.215 -0.4603 -0.1886 -1.1716
15611TIP3    H268325   1.674   0.588   5.357  0.8180  0.1078 -1.5165
15612TIP3   OH268326   0.282   2.338  13.741 -0.1499 -0.4416 -0.6938
15612TIP3    H168327   0.368   2.378  13.752 -0.4753 -0.1637  1.0067
15612TIP3    H268328   0.293   2.248  13.771 -0.3048 -0.5847 -1.0592
15613TIP3   OH268329   2.981   5.193   0.056  0.2628  0.1021  0.3340
15613TIP3    H168330   2.936   5.108   0.053  3.1282 -1.4831  0.8174
15613TIP3    H268331   3.033   5.194  -0.024 -0.5500  1.9044 -0.1932
15614TIP3   OH268332   5.080   0.216   3.865 -0.1269  0.0083  0.1917
15614TIP3    H168333   4.992   0.179   3.878  0.5127 -1.1710  1.2538
15614TIP3    H268334   5.126   0.198   3.947  1.1598  0.4812 -0.4216
15615TIP3   OH268335   0.793   1.570  14.652 -0.1951  0.6845 -0.1684
15615TIP3    H168336   0.789   1.539  14.742 -1.1271  0.3704 -0.3167
15615TIP3    H268337   0.842   1.652  14.657  0.8841  0.0134  0.4423
15616TIP3   OH268338   5.745   3.281  14.935  0.3313 -0.0643  0.2222
15616TIP3    H168339   5.742   3.368  14.974  0.2393 -0.2454  0.6214
15616TIP3    H268340   5.755   3.221  15.009 -0.7516 -0.4740  0.0414
15617TIP3   OH268341   2.850   1.112   4.358 -0.1389 -0.1389 -0.2854
15617TIP3    H168342   2.762   1.073   4.356  0.5446 -1.7326  0.2237
15617TIP3    H268343   2.834   1.207   4.358 -1.9095 -0.3976  1.6817
15618TIP3   OH268344   1.301   4.067  14.082 -0.0938  0.3198 -0.5205
15618TIP3    H168345   1.359   4.139  14.061 -0.4092  0.6415 -0.2872
15618TIP3    H268346   1.239   4.103  14.146 -0.1985 -0.1749 -0.3394
15619TIP3   OH268347   1.687   0.884   4.776 -0.2376 -0.0267 -0.8093
15619TIP3    H168348   1.760   0.946   4.782  0.2697 -0.7411  0.4786
15619TIP3    H268349   1.718   0.815   4.718  0.2838 -0.5757  0.1263
15620TIP3   OH268350   4.293   6.496   0.564  0.4233  0.4771 -0.4313
15620TIP3    H168351   4.244   6.523   0.642  1.2614 -0.2779  0.3824
15620TIP3    H268352   4.228   6.456   0.507  0.0265 -0.1903  0.4815
15621TIP3   OH268353   4.373   0.503   2.248  0.2416  0.3397 -0.9392
15621TIP3    H168354   4.451   0.509   2.192  0.9200 -0.4790 -0.0995
15621TIP3    H268355   4.379   0.578   2.306  0.7279 -0.0418 -0.4858
15622TIP3   OH268356   1.516   3.204   4.971  0.2062  0.4101  0.2162
15622TIP3    H168357   1.506   3.127   4.916  0.8704  0.4045  0.0976
15622TIP3    H268358   1.505   3.172   5.061 -3.3956  0.8315  0.0102
15623TIP3   OH268359   1.825   6.679   3.088  0.7670 -0.3520 -0.1813
15623TIP3    H168360   1.786   6.718   3.166 -1.7569 -1.5534 -0.7964
15623TIP3    H268361   1.896   6.624   3.120  1.5961  1.3588  1.0102
15624TIP3   OH268362   6.401   3.409   2.223  0.2447  0.1486 -0.1447
15624TIP3    H168363   6.428   3.454   2.143  0.5703  0.4970  0.1548
15624TIP3    H268364   6.483   3.389   2.268  0.0924 -0.6672 -0.2286
15625TIP3   OH268365   3.813   2.825  11.095  0.5748 -0.8775  0.5949
15625TIP3    H168366   3.896   2.833  11.142 -0.1953  0.9629  1.6949
15625TIP3    H268367   3.823   2.881  11.018  0.3278 -0.6140  0.7557
15626TIP3   OH268368   3.876   3.438  11.139  0.5001  0.1069  0.4413
15626TIP3    H168369   3.900   3.360  11.090  2.3036  0.3870  0.8442
15626TIP3    H268370   3.825   3.490  11.078 -0.5080 -1.2756  0.0990
15627TIP3   OH268371   1.251   6.197   4.435 -0.2421  0.3177 -0.1728
15627TIP3    H168372   1.167   6.206   4.481  0.5675 -1.0033  1.6000
15627TIP3    H268373   1.313   6.245   4.489  0.2004  1.1905 -1.4288
15628TIP3   OH268374   1.167   6.400   3.725 -0.7652 -0.6447 -0.2979
15628TIP3    H168375   1.090   6.357   3.762 -0.8082 -0.3722 -0.0699
15628TIP3    H268376   1.221   6.329   3.692 -0.4640 -0.9265  0.7994
15629TIP3   OH268377   2.110   3.782  13.343 -0.1416  0.4852  0.4502
15629TIP3    H168378   2.167   3.825  13.405  0.5654 -0.0168  0.1546
15629TIP3    H268379   2.168   3.753  13.272 -0.7196 -0.2040  0.2444
15630TIP3   OH268380   5.800   4.426   0.847  0.3650  0.1474  0.1595
15630TIP3    H168381   5.794   4.355   0.910  1.6494 -0.1478 -0.0343
15630TIP3    H268382   5.887   4.464   0.862 -0.6344  2.2307  0.8615
15631TIP3   OH268383   1.297   0.447   3.716 -0.6635  0.1756 -0.7657
15631TIP3    H168384   1.319   0.356   3.697 -0.6726 -0.3022  1.3632
15631TIP3    H268385   1.284   0.449   3.811 -2.3559  2.0411 -0.9990
15632TIP3   OH268386   5.120   3.160  11.884  0.1757  0.3406 -0.1567
15632TIP3    H168387   5.117   3.066  11.864  1.5259  0.1719  0.3395
15632TIP3    H268388   5.081   3.202  11.808  1.3618 -0.5229 -1.2677
15633TIP3   OH268389   3.283   4.055   2.598  0.2218 -0.5368  0.7537
15633TIP3    H168390   3.340   4.108   2.653 -0.0866 -0.0630  0.6215
15633TIP3    H268391   3.305   3.964   2.620  0.0250 -0.3538  1.7408
15634TIP3   OH268392   2.299   1.676   5.335  0.4139  0.4031 -0.0248
15634TIP3    H168393   2.262   1.677   5.247  1.4581 -1.8968 -0.5231
15634TIP3    H268394   2.388   1.711   5.324  0.7564 -0.4466 -0.0045
15635TIP3   OH268395   6.468   1.124  16.838  0.6529  0.0482 -1.0002
15635TIP3    H168396   6.538   1.085  16.785  0.2591 -1.9842 -0.0799
15635TIP3    H268397   6.478   1.083  16.924 -2.0729 -0.7870 -1.0367
15636TIP3   OH268398   3.311   0.889  13.862  0.1439 -0.2982  0.9070
15636TIP3    H168399   3.326   0.981  13.840  0.5251 -1.0105 -2.0297
15636TIP3    H268400   3.304   0.845  13.777 -1.3639 -2.7708  2.2688
15637TIP3   OH268401   2.761   1.553   2.824  0.4172 -0.1275 -0.1282
15637TIP3    H168402   2.821   1.625   2.803 -0.7512  0.6522 -0.8574
15637TIP3    H268403   2.731   1.520   2.740 -0.4808 -0.2437  0.2245
15638TIP3   OH268404   2.269   0.030  14.335 -0.6780  0.5615 -0.2857
15638TIP3    H168405   2.188  -0.021  14.341 -0.5551  0.1636 -1.8595
15638TIP3    H268406   2.337  -0.030  14.364 -0.7884  0.4869 -0.1777
15639TIP3   OH268407   1.750   0.253   2.080 -0.0872 -0.1006 -0.1795
15639TIP3    H168408   1.700   0.239   2.000 -0.0166  1.1885 -0.4579
15639TIP3    H268409   1.705   0.201   2.147 -1.3012  0.3950 -0.6074
15640TIP3   OH268410   6.644   1.825   1.966 -0.1848  0.2067  0.2069
15640TIP3    H168411   6.559   1.861   1.940  1.1770  2.4267 -1.3370
15640TIP3    H268412   6.623   1.752   2.023 -3.1501  0.3287 -0.6767
15641TIP3   OH268413   6.029   6.251  12.644 -0.0447  0.1126  0.5257
15641TIP3    H168414   6.114   6.294  12.648 -0.4773  1.1412 -0.9393
15641TIP3    H268415   5.970   6.317  12.607 -1.7475 -0.1821  2.5984
15642TIP3   OH268416   5.498   4.015  11.511  0.0584 -0.2589 -0.2316
15642TIP3    H168417   5.574   4.022  11.453  0.1970 -1.5723 -0.2307
15642TIP3    H268418   5.506   3.928  11.550 -0.3893  0.3599  1.2627
15643TIP3   OH268419   1.530   2.168   5.199 -0.0145 -0.2872 -0.3344
15643TIP3    H168420   1.622   2.165   5.175  0.7071  1.1958  2.0678
15643TIP3    H268421   1.512   2.260   5.215 -1.0662 -0.8896  2.1903
15644TIP3   OH268422   3.880   2.047  11.998  0.4284 -0.0646 -0.1858
15644TIP3    H168423   3.897   2.101  11.922  0.9968  0.4089  0.2742
15644TIP3    H268424   3.804   1.993  11.973 -0.0132  0.7957 -0.7124
15645TIP3   OH268425   4.222   3.681  11.411  0.0326  0.1558 -0.0693
15645TIP3    H168426   4.153   3.615  11.412 -1.2292  1.4583  1.3764
15645TIP3    H268427   4.205   3.733  11.332 -0.8378  0.6546  0.4358
15646TIP3   OH268428   4.111   6.368   5.777 -0.1339  0.5762  0.7575
15646TIP3    H168429   4.089   6.461   5.770 -0.9216  0.2702 -1.4667
15646TIP3    H268430   4.206   6.366   5.788  0.5020  1.6013 -3.5882
15647TIP3   OH268431   6.683   6.764  15.417  0.1107  0.5081  0.5176
15647TIP3    H168432   6.623   6.699  15.452  0.3674  0.1500  0.2920
15647TIP3    H268433   6.664   6.765  15.323  2.1250 -1.3601  0.0534
15648TIP3   OH268434   1.135   4.146  11.987  0.3165  0.4053  0.5397
15648TIP3    H168435   1.224   4.183  11.979  0.8555 -0.3788  2.5805
15648TIP3    H268436   1.142   4.059  11.948  1.0439 -0.5326  2.7010
15649TIP3   OH268437   2.627   3.187  13.020  0.1701 -0.2656  0.5677
15649TIP3    H168438   2.716   3.167  13.048 -0.1591  1.0664  2.6676
15649TIP3    H268439   2.571   3.146  13.087 -0.7034  1.5030  0.9352
15650TIP3   OH268440   4.617   0.744  16.315  0.0555  0.1066  0.5146
15650TIP3    H168441   4.676   0.668  16.316  0.5334  0.4607 -0.5553
15650TIP3    H268442   4.659   0.807  16.373  1.0356  0.5899 -0.7258
15651TIP3   OH268443   6.637   1.301   1.284  0.4229 -0.3001 -0.3161
15651TIP3    H168444   6.707   1.328   1.224  0.8111  0.9011  0.6638
15651TIP3    H268445   6.682   1.279   1.365 -0.3818  1.0641  0.5140
15652TIP3   OH268446   0.940   3.045  12.424  0.1347  0.2081 -0.2267
15652TIP3    H168447   0.854   3.033  12.384  1.0437 -0.0225 -2.1931
15652TIP3    H268448   0.950   2.971  12.484 -1.9704  1.4989  1.8144
15653TIP3   OH268449   2.979   3.396   3.374  0.1407 -1.0343  0.0955
15653TIP3    H168450   2.931   3.457   3.317  0.2900  0.4577  1.5439
15653TIP3    H268451   3.067   3.433   3.378  0.3832 -1.6698  0.5333
15654TIP3   OH268452   4.284   5.155  15.574  0.1354 -0.1102 -0.7079
15654TIP3    H168453   4.376   5.133  15.559  1.1390  1.9267  2.2439
15654TIP3    H268454   4.262   5.215  15.502  1.0307 -0.7267 -1.5160
15655TIP3   OH268455   5.655   6.333  14.375 -0.5413 -0.0748 -0.1410
15655TIP3    H168456   5.741   6.342  14.415 -0.5894  0.6293 -0.1800
15655TIP3    H268457   5.639   6.418  14.334 -2.2541  0.6072  1.8576
15656TIP3   OH268458   0.998   4.674  15.642  0.7266 -0.3836 -0.0007
15656TIP3    H168459   0.989   4.580  15.655  0.8714 -0.5707 -1.1516
15656TIP3    H268460   0.909   4.705  15.625  0.4435 -0.0332  1.9977
15657TIP3   OH268461   5.022   0.948  16.550 -0.2254  0.0734 -0.3651
15657TIP3    H168462   5.007   0.964  16.643 -2.4561 -2.4603 -0.2008
15657TIP3    H268463   4.997   1.030  16.507 -2.0823  0.2980  1.0630
15658TIP3   OH268464   3.232   6.165  14.055  0.1312 -0.3479  0.2525
15658TIP3    H168465   3.257   6.080  14.019  0.7961 -0.0880  0.0875
15658TIP3    H268466   3.165   6.198  13.995 -1.6140 -1.6408  1.4373
15659TIP3   OH268467   1.087   0.153  12.500 -0.3581  0.2211 -0.3223
15659TIP3    H168468   1.114   0.228  12.553 -0.2781 -1.2235  1.7138
15659TIP3    H268469   1.070   0.084  12.563  1.8384 -2.2237 -2.3202
15660TIP3   OH268470   4.665   6.382  16.850 -0.0663  0.5322 -0.1291
15660TIP3    H168471   4.571   6.397  16.837 -0.1287  0.9879  0.8013
15660TIP3    H268472   4.705   6.407  16.766 -0.9566 -1.5119 -1.2005
15661TIP3   OH268473   4.261   1.630  10.764 -0.2536  0.2193 -0.1531
15661TIP3    H168474   4.265   1.546  10.810 -0.6648 -0.0716 -0.6547
15661TIP3    H268475   4.175   1.632  10.723 -1.0020  1.7294  1.4502
15662TIP3   OH268476   1.924   1.818   5.237 -0.2522  0.2045 -0.3848
15662TIP3    H168477   1.972   1.899   5.215  0.1639 -0.3133 -1.4219
15662TIP3    H268478   1.981   1.748   5.207 -0.6719 -0.4806  0.4094
15663TIP3   OH268479   6.172   0.442  13.197 -0.3038  0.2539  0.0035
15663TIP3    H168480   6.236   0.392  13.247 -0.7380 -0.0170  0.2918
15663TIP3    H268481   6.130   0.377  13.140 -0.8411  0.2888  0.3524
15664TIP3   OH268482   0.290   2.791   5.800 -0.6888  0.0944 -0.0115
15664TIP3    H168483   0.265   2.769   5.890 -2.0602  0.5662 -0.2640
15664TIP3    H268484   0.210   2.777   5.749 -0.1471  0.6285 -1.0235
15665TIP3   OH268485   6.368   5.881   4.507  0.0718  0.4060  0.7425
15665TIP3    H168486   6.364   5.934   4.428  0.6940  0.9755  1.0869
15665TIP3    H268487   6.462   5.865   4.520 -0.0478  0.0739  1.2022
15666TIP3   OH268488   3.841   1.877   1.464  0.1836  0.0790 -0.9144
15666TIP3    H168489   3.877   1.791   1.485  0.8772  0.1499 -1.8104
15666TIP3    H268490   3.764   1.885   1.522  0.3068 -0.9928 -0.5881
15667TIP3   OH268491   5.719   4.409  16.412  0.0401 -0.3139  0.3990
15667TIP3    H168492   5.807   4.448  16.415  0.7109 -1.5454 -1.7545
15667TIP3    H268493   5.730   4.323  16.453  0.3584 -1.3273 -1.7420
15668TIP3   OH268494   4.809   5.839   0.436 -0.0073  0.4669  0.2328
15668TIP3    H168495   4.875   5.795   0.489 -0.1338 -0.6866 -0.5576
15668TIP3    H268496   4.734   5.851   0.496  0.7149  1.3409  0.9826
15669TIP3   OH268497   2.422   3.247  15.373  0.3188 -0.3843 -0.0531
15669TIP3    H168498   2.493   3.309  15.391  1.3121 -1.7260  0.7113
15669TIP3    H268499   2.349   3.278  15.426  1.4684 -1.0672  1.9584
15670TIP3   OH268500   5.866   0.051   2.943  0.1659  0.2631 -0.4878
15670TIP3    H168501   5.771   0.050   2.947  0.1103  0.4199 -1.5523
15670TIP3    H268502   5.890   0.136   2.980  0.1048 -1.2038  3.1158
15671TIP3   OH268503   4.522   6.463   2.143 -0.3028  0.3096 -0.1103
15671TIP3    H168504   4.596   6.481   2.084 -0.6570 -1.1145 -1.0146
15671TIP3    H268505   4.562   6.449   2.228  0.4358  0.0832 -0.4901
15672TIP3   OH268506   2.568   6.307   1.479  1.0247 -0.0735 -0.5877
15672TIP3    H168507   2.476   6.331   1.467  0.6866 -0.4085  1.2145
15672TIP3    H268508   2.604   6.375   1.534  0.7274 -2.2112  2.3539
15673TIP3   OH268509   4.629   4.270  16.597 -0.0545  0.1644 -0.4614
15673TIP3    H168510   4.588   4.350  16.630 -0.3346  0.0288 -0.4799
15673TIP3    H268511   4.591   4.200  16.649 -0.9622 -0.1155 -1.4898
15674TIP3   OH268512   2.301   4.098   4.578  0.0533  0.6958  0.5487
15674TIP3    H168513   2.368   4.040   4.542  1.5447  1.6806  1.6922
15674TIP3    H268514   2.236   4.038   4.615  0.0848 -0.2724 -0.8997
15675TIP3   OH268515   0.720   0.654   2.778  0.3922  0.0404 -0.0039
15675TIP3    H168516   0.676   0.581   2.821 -1.7400  2.3565  1.9141
15675TIP3    H268517   0.663   0.676   2.704 -0.6499  1.6791  1.2364
15676TIP3   OH268518   3.443   1.414  10.832  0.0947  0.2100  0.4651
15676TIP3    H168519   3.468   1.387  10.744  0.3729  0.5904  0.4283
15676TIP3    H268520   3.360   1.460  10.820  0.5259  0.9496  0.3016
15677TIP3   OH268521   1.769   1.372   5.597  0.2627 -0.0864 -0.5637
15677TIP3    H168522   1.683   1.370   5.639  0.5629 -0.3228  0.0468
15677TIP3    H268523   1.826   1.411   5.662  0.6666 -0.1407 -0.8833
15678TIP3   OH268524   5.342   4.595  11.040 -0.0181  0.1719 -0.2822
15678TIP3    H168525   5.331   4.600  10.945  0.0386  2.1693 -0.2198
15678TIP3    H268526   5.333   4.686  11.069  1.2388 -0.2503  1.4769
15679TIP3   OH268527   0.685   5.584   0.610 -0.1702 -0.5203 -0.9320
15679TIP3    H168528   0.728   5.614   0.690 -0.8868 -0.1450 -0.6839
15679TIP3    H268529   0.665   5.492   0.626  0.3530 -0.6368 -0.9646
15680TIP3   OH268530   2.505   5.015  16.770  0.3308  0.2943 -0.2131
15680TIP3    H168531   2.462   4.934  16.798 -0.8797  0.8646 -0.3960
15680TIP3    H268532   2.454   5.085  16.812 -0.0286  1.0560 -1.8995
15681TIP3   OH268533   4.331   3.501   0.146  0.5465 -0.3928 -0.1013
15681TIP3    H168534   4.241   3.504   0.114  1.2042 -1.1515 -2.0889
15681TIP3    H268535   4.327   3.446   0.224 -0.7052 -0.4439 -0.2008
15682TIP3   OH268536   3.317   0.525  14.678 -0.0767 -0.2112 -0.5692
15682TIP3    H168537   3.406   0.544  14.708  0.2057 -0.4014 -1.2743
15682TIP3    H268538   3.298   0.437  14.711  0.3667 -0.5646 -1.2472
15683TIP3   OH268539   0.031   0.180   3.684  0.0315  0.5940 -0.0026
15683TIP3    H168540  -0.027   0.106   3.666  1.5176 -0.7098  0.5292
15683TIP3    H268541   0.039   0.182   3.779 -0.3722  1.7488  0.0225
15684TIP3   OH268542   2.124   0.759   4.504 -0.1174 -0.3718 -0.3464
15684TIP3    H168543   2.088   0.847   4.519  0.3243 -0.0600 -1.0755
15684TIP3    H268544   2.059   0.700   4.540  0.4059  0.3180  1.7637
15685TIP3   OH268545   3.448   2.729  13.836  0.0842  0.6297  0.2766
15685TIP3    H168546   3.448   2.786  13.760  0.1169 -0.8895 -0.8780
15685TIP3    H268547   3.470   2.642  13.802 -2.7105 -0.6636  1.5485
15686TIP3   OH268548   5.444   5.890  10.903 -0.0507 -0.3569 -0.1495
15686TIP3    H168549   5.487   5.806  10.895 -0.1098 -0.4745  0.6674
15686TIP3    H268550   5.384   5.879  10.977 -0.0848  0.3811 -0.0577
15687TIP3   OH268551   6.029   0.510  14.820 -0.6310 -0.2611 -0.0018
15687TIP3    H168552   5.970   0.445  14.781 -0.4856  0.9485 -2.2944
15687TIP3    H268553   6.034   0.580  14.755  1.3898  0.7885  1.2453
15688TIP3   OH268554   4.359   1.700  15.128 -0.5131  0.1134  0.1901
15688TIP3    H168555   4.384   1.768  15.191 -1.5830  0.4030  0.3194
15688TIP3    H268556   4.419   1.628  15.146  0.2217  0.7824  0.4778
15689TIP3   OH268557   4.044   3.143   2.086  0.3270  0.1790  0.6296
15689TIP3    H168558   4.105   3.123   2.016  0.7082 -0.8405  1.2371
15689TIP3    H268559   3.959   3.111   2.054  0.0993  1.6145 -0.2204
15690TIP3   OH268560   4.418   6.222  17.255 -0.6038 -0.2393 -0.4308
15690TIP3    H168561   4.392   6.201  17.165  0.6776 -1.9232 -0.4248
15690TIP3    H268562   4.454   6.310  17.250 -1.4659  0.0754 -1.3716
15691TIP3   OH268563   4.758   4.566   6.077  0.4823  0.0607  0.0460
15691TIP3    H168564   4.772   4.567   6.171  0.6566  1.1646  0.0182
15691TIP3    H268565   4.735   4.476   6.057 -0.9533  0.1225  1.3465
15692TIP3   OH268566   3.357   2.542   1.137 -0.1004  0.1938 -0.5957
15692TIP3    H168567   3.448   2.567   1.121  0.0995 -1.0498 -1.5360
15692TIP3    H268568   3.353   2.450   1.109 -1.4344 -0.0123  0.2472
15693TIP3   OH268569   3.364   5.114  15.456 -0.1937  0.1170  0.2586
15693TIP3    H168570   3.454   5.129  15.428  0.0212 -2.2328 -0.4106
15693TIP3    H268571   3.357   5.159  15.540  1.0117  1.9312 -0.5753
15694TIP3   OH268572   6.469   6.541   4.985 -0.1638  0.1182 -0.1450
15694TIP3    H168573   6.439   6.539   5.076  0.2542  0.1364 -0.0012
15694TIP3    H268574   6.504   6.630   4.974  1.1109 -0.3364  0.1215
15695TIP3   OH268575   0.399   2.996   0.120 -0.5673 -0.1269  0.1143
15695TIP3    H168576   0.348   2.942   0.181 -0.2586  1.0237  1.3909
15695TIP3    H268577   0.437   3.065   0.174 -0.1486  0.8096 -1.3543
15696TIP3   OH268578   4.310   3.244   6.180 -0.2903  0.3608 -0.1178
15696TIP3    H168579   4.328   3.154   6.209 -0.2220  0.4202  0.0267
15696TIP3    H268580   4.328   3.298   6.257 -0.4592  0.4860 -0.1650
15697TIP3   OH268581   2.992   2.171  12.897 -0.2403  0.1537 -0.1710
15697TIP3    H168582   2.897   2.162  12.900 -0.1149 -1.1913  0.4035
15697TIP3    H268583   3.024   2.102  12.955  1.0153  2.0867  1.5155
15698TIP3   OH268584   4.946   1.634  14.568  0.5205  0.7986  0.7184
15698TIP3    H168585   4.864   1.675  14.543  0.7219  1.4606  1.1356
15698TIP3    H268586   4.920   1.560  14.624  0.1393  0.0771 -0.4073
15699TIP3   OH268587   6.482   2.241   3.262  0.7179 -0.6696 -0.8985
15699TIP3    H168588   6.543   2.310   3.286 -0.2058  0.4830 -1.8201
15699TIP3    H268589   6.449   2.266   3.176  0.0203 -2.0119 -1.0416
15700TIP3   OH268590   1.351   3.623  16.494 -0.4325 -0.2359  0.4714
15700TIP3    H168591   1.356   3.537  16.538  1.0030 -0.3769  0.0623
15700TIP3    H268592   1.437   3.633  16.452 -1.2603  0.5841 -1.0411
15701TIP3   OH268593   3.109   5.205  15.806 -0.0169  0.2656  0.2223
15701TIP3    H168594   3.088   5.130  15.751  2.1596  0.3278 -0.7601
15701TIP3    H268595   3.078   5.281  15.756 -1.8330  0.0767  1.0250
15702TIP3   OH268596   6.498   0.368   5.051  0.5228  0.2696  0.0576
15702TIP3    H168597   6.509   0.362   4.956 -0.8734  2.2091 -0.2484
15702TIP3    H268598   6.511   0.460   5.071  1.9602 -0.3203  1.9286
15703TIP3   OH268599   3.816   3.174  14.189 -0.0078  0.7217 -0.2083
15703TIP3    H168600   3.895   3.200  14.237  1.5442 -1.7656 -1.3463
15703TIP3    H268601   3.760   3.135  14.255  1.1775 -0.6158  0.0407
15704TIP3   OH268602   3.167   0.279  15.345 -0.5258 -1.2300  0.5399
15704TIP3    H168603   3.211   0.228  15.414 -0.4558 -1.1674  0.5412
15704TIP3    H268604   3.074   0.260  15.358 -0.4014 -2.6209 -0.4498
15705TIP3   OH268605   2.251   2.678   3.886  0.4338 -0.0032 -0.3299
15705TIP3    H168606   2.179   2.651   3.944  1.7589 -0.8213  0.9502
15705TIP3    H268607   2.294   2.749   3.933 -0.2614  1.3375 -1.6612
15706TIP3   OH268608   4.344   5.978  15.942  0.2960  0.7992  0.2669
15706TIP3    H168609   4.416   5.917  15.956 -1.3392 -1.2295  0.0437
15706TIP3    H268610   4.280   5.956  16.009 -1.0221  1.1914 -0.8434
15707TIP3   OH268611   5.416   4.071  12.907  0.3980  0.4659  0.4230
15707TIP3    H168612   5.338   4.059  12.853  0.5649  1.0811  0.0383
15707TIP3    H268613   5.483   4.102  12.846  1.0876 -0.5425  0.6571
15708TIP3   OH268614   1.419   2.609  15.965  0.5718  0.6543 -0.0985
15708TIP3    H168615   1.423   2.599  16.060 -0.6432 -1.5683 -0.2374
15708TIP3    H268616   1.493   2.558  15.933 -0.5746 -0.8557 -0.4311
15709TIP3   OH268617   6.246   4.981  15.441 -0.2617 -0.2695 -0.1174
15709TIP3    H168618   6.189   4.918  15.397 -0.5671 -0.7691  0.9833
15709TIP3    H268619   6.224   5.065  15.402 -0.8149 -0.6549 -0.6350
15710TIP3   OH268620   4.587   3.617   0.885 -0.1343  0.2271  0.7052
15710TIP3    H168621   4.512   3.632   0.942  1.6623  0.8738  2.9687
15710TIP3    H268622   4.659   3.598   0.945  1.7236  0.5178 -1.3785
15711TIP3   OH268623   5.182   4.931   0.736 -0.1896  0.0934 -0.0100
15711TIP3    H168624   5.254   4.980   0.777 -0.2225  0.5570 -0.4936
15711TIP3    H268625   5.164   4.979   0.654 -3.1622  1.8601  1.5737
15712TIP3   OH268626   1.257   4.374  13.521  0.6291  0.0799  0.2742
15712TIP3    H168627   1.281   4.369  13.428 -0.2220  0.8836  0.0053
15712TIP3    H268628   1.228   4.464  13.534 -0.3628 -0.3387  1.0471
15713TIP3   OH268629   3.041   0.818  17.205 -0.2080 -0.7156 -0.0099
15713TIP3    H168630   2.951   0.824  17.237 -0.5647 -2.8347 -0.4754
15713TIP3    H268631   3.042   0.737  17.152  1.5468  0.1453 -1.3631
15714TIP3   OH268632   2.120   4.390  14.007 -0.6384  1.0092  0.2976
15714TIP3    H168633   2.159   4.390  13.920  0.2671 -1.0565  0.6717
15714TIP3    H268634   2.153   4.470  14.048 -1.8128  2.4760 -1.5552
15715TIP3   OH268635   2.205   0.703  15.198 -0.1985 -0.1078 -0.1785
15715TIP3    H168636   2.165   0.617  15.184  0.2395 -0.2038 -0.8365
15715TIP3    H268637   2.281   0.685  15.254 -0.8356  0.0202  0.7304
15716TIP3   OH268638   5.359   4.383   5.703  0.0431  0.4705 -0.0816
15716TIP3    H168639   5.324   4.417   5.621 -0.4541  0.5874  0.1727
15716TIP3    H268640   5.450   4.413   5.705  0.2240 -0.0092 -0.8523
15717TIP3   OH268641   2.623   5.212   6.429 -0.2528 -0.3994  0.1443
15717TIP3    H168642   2.575   5.146   6.379  0.4358 -0.3126 -0.6351
15717TIP3    H268643   2.629   5.176   6.518  0.0279 -1.3419 -0.2528
15718TIP3   OH268644   6.333   3.970   6.849  0.2273  0.6849  0.4407
15718TIP3    H168645   6.393   3.934   6.914  1.7748  0.3700 -1.1134
15718TIP3    H268646   6.299   3.893   6.803 -0.9243  0.8996  0.9022
15719TIP3   OH268647   2.266   4.760   1.001  0.2845 -0.4870  0.5348
15719TIP3    H168648   2.192   4.790   1.054  0.0813 -0.9782  0.5338
15719TIP3    H268649   2.330   4.831   1.007 -1.1969  1.0595 -1.5603
15720TIP3   OH268650   2.798   6.745  11.446 -0.2313  0.6684  0.1654
15720TIP3    H168651   2.796   6.834  11.411 -2.8313  0.6367  0.1760
15720TIP3    H268652   2.800   6.757  11.541  0.2122  0.6950  0.1573
15721TIP3   OH268653   3.279   2.758   5.884 -0.2713  0.6900 -0.6348
15721TIP3    H168654   3.282   2.727   5.975 -1.2618 -1.8156 -1.4273
15721TIP3    H268655   3.264   2.852   5.892  1.1971  0.7654  1.8286
15722TIP3   OH268656   5.353   2.305   2.554  0.3892  0.3592 -0.5917
15722TIP3    H168657   5.259   2.313   2.535  0.7144 -0.2504 -2.5564
15722TIP3    H268658   5.379   2.222   2.514  1.3311 -0.5633  1.8348
15723TIP3   OH268659   2.625   0.532   5.477  0.0835 -0.1067 -0.5754
15723TIP3    H168660   2.681   0.523   5.400  2.2569 -1.5405  1.1141
15723TIP3    H268661   2.619   0.444   5.513 -2.7853  0.1339 -0.3519
15724TIP3   OH268662   1.873   4.715  15.632  0.2015  0.1303  0.2493
15724TIP3    H168663   1.950   4.711  15.576  0.5156 -0.4192  0.7171
15724TIP3    H268664   1.897   4.664  15.709 -0.5054  0.2451  0.5459
15725TIP3   OH268665   1.869   3.269  13.941  0.2578 -0.1680 -0.4009
15725TIP3    H168666   1.786   3.250  13.984  0.9568 -0.0157  1.0435
15725TIP3    H268667   1.885   3.362  13.958  1.3289 -0.4892  0.4236
15726TIP3   OH268668   0.133   3.398  14.731 -0.6714 -0.3769 -0.3975
15726TIP3    H168669   0.186   3.319  14.742 -1.3940 -0.9952 -1.3029
15726TIP3    H268670   0.049   3.376  14.773 -0.2351  0.5985  1.0361
15727TIP3   OH268671   0.190   5.711  13.267 -0.3044 -0.3077  0.4333
15727TIP3    H168672   0.147   5.670  13.342  0.1934  0.2764  1.0526
15727TIP3    H268673   0.121   5.724  13.203 -0.1629 -3.7100 -0.4945
15728TIP3   OH268674   2.477   3.740  16.182  0.2237  0.0506 -0.1005
15728TIP3    H168675   2.516   3.812  16.230  0.4895 -1.3810  1.8723
15728TIP3    H268676   2.545   3.711  16.121  0.6696  0.4153  0.2278
15729TIP3   OH268677   4.783   0.674  13.693  0.3349  0.0510 -0.1917
15729TIP3    H168678   4.771   0.669  13.598  2.4760  0.8393 -0.5355
15729TIP3    H268679   4.864   0.725  13.704 -0.5728  1.0376  2.0956
15730TIP3   OH268680   6.405   5.154   1.341  0.6331  0.7613 -0.2235
15730TIP3    H168681   6.492   5.132   1.306  0.0658 -2.6560  0.4003
15730TIP3    H268682   6.419   5.170   1.434  0.5221 -0.2695 -0.0285
15731TIP3   OH268683   0.935   4.556  12.874 -0.2380  0.0534  0.3882
15731TIP3    H168684   0.994   4.615  12.920 -0.0271 -0.8247  1.2794
15731TIP3    H268685   0.991   4.507  12.814  0.0491 -1.2213  1.6858
15732TIP3   OH268686   3.548   1.253   5.807  0.1582 -0.0217 -0.5582
15732TIP3    H168687   3.596   1.335   5.800 -1.7859  1.0716 -1.2881
15732TIP3    H268688   3.457   1.275   5.787 -0.3304 -2.4224 -1.2293
15733TIP3   OH268689   6.630   3.321  16.870 -0.1419  0.2778 -0.4425
15733TIP3    H168690   6.695   3.294  16.935  0.8835 -1.5422 -2.1812
15733TIP3    H268691   6.669   3.397  16.827 -0.0838  0.4531 -0.0821
15734TIP3   OH268692   6.712   1.855  10.613 -0.1446 -0.0427  0.4599
15734TIP3    H168693   6.764   1.784  10.575  0.1068  0.8863 -0.9424
15734TIP3    H268694   6.777   1.911  10.656  0.0699  1.1564 -1.3525
15735TIP3   OH268695   2.571   5.267   1.401  0.2816  0.7160  0.4867
15735TIP3    H168696   2.648   5.218   1.371  0.4567  0.8533  0.7026
15735TIP3    H268697   2.514   5.200   1.438  0.8320  0.7470  1.4259
15736TIP3   OH268698   6.329   4.985  17.085  0.0838 -0.1403 -0.2760
15736TIP3    H168699   6.236   4.979  17.065  0.1241 -0.2855 -0.4212
15736TIP3    H268700   6.353   5.075  17.060  0.1461 -0.3356 -0.9354
15737TIP3   OH268701   4.483   4.992  14.563 -0.1640 -0.3041 -0.0200
15737TIP3    H168702   4.413   4.965  14.623 -0.3649  0.4073  0.0678
15737TIP3    H268703   4.544   5.041  14.618  0.3525 -0.8318 -0.1195
15738TIP3   OH268704   5.912   2.200  16.391  0.2129  0.0135 -0.4053
15738TIP3    H168705   5.876   2.146  16.461  0.4617 -0.2991 -0.5181
15738TIP3    H268706   5.970   2.262  16.434  1.9049 -1.4703 -0.5384
15739TIP3   OH268707   5.285   5.470  11.710  0.0575 -0.7348  0.3196
15739TIP3    H168708   5.272   5.560  11.741  4.0758 -0.2371  0.8572
15739TIP3    H268709   5.275   5.417  11.789  0.5708 -0.4352  0.5937
15740TIP3   OH268710   3.490   1.011  13.213 -0.2613  0.1829 -0.0349
15740TIP3    H168711   3.552   1.081  13.192 -0.5741  0.6309  0.5034
15740TIP3    H268712   3.446   0.992  13.130  0.6653 -0.2134 -0.4420
15741TIP3   OH268713   4.764   4.864   3.238  0.0175  0.4521 -0.0518
15741TIP3    H168714   4.829   4.930   3.216  0.3856  0.1157  0.0311
15741TIP3    H268715   4.708   4.858   3.160 -0.0992  0.9599 -0.0064
15742TIP3   OH268716   5.842   4.232  15.775 -0.2634  0.0233  0.8198
15742TIP3    H168717   5.867   4.148  15.812  0.3671  0.9453  2.5494
15742TIP3    H268718   5.816   4.285  15.851 -1.1859  1.2014 -0.2949
15743TIP3   OH268719   0.456   4.383  13.196 -0.1741 -0.2062 -0.0261
15743TIP3    H168720   0.421   4.391  13.107  0.5904  2.3611 -0.1294
15743TIP3    H268721   0.424   4.460  13.242 -1.7235 -2.1889  2.3866
15744TIP3   OH268722   5.052   0.122  16.575  0.1011  0.1268 -0.1874
15744TIP3    H168723   4.968   0.157  16.606 -0.2199 -1.5069  0.8561
15744TIP3    H268724   5.066   0.163  16.490 -0.9003  1.7643  0.4227
15745TIP3   OH268725   6.700   3.783  15.710 -0.0241  0.2246  0.1978
15745TIP3    H168726   6.672   3.860  15.760  1.0495 -0.4048  1.8003
15745TIP3    H268727   6.718   3.717  15.776  0.1656 -1.0494 -1.1138
15746TIP3   OH268728   5.811   2.424  13.369  1.2087 -0.2252 -0.2667
15746TIP3    H168729   5.855   2.408  13.285  1.1122  4.0916 -1.2121
15746TIP3    H268730   5.719   2.403  13.353  1.2172  0.4407 -1.2123
15747TIP3   OH268731   1.024   2.072  15.351 -0.1949  0.1126 -0.2276
15747TIP3    H168732   0.983   2.066  15.265  0.3221 -2.7932 -0.3211
15747TIP3    H268733   1.118   2.076  15.333 -0.1017 -0.1493  0.1782
15748TIP3   OH268734   6.204   2.307  16.997  0.4715 -0.0679  0.4034
15748TIP3    H168735   6.252   2.369  17.052  0.4698  0.3939 -0.0963
15748TIP3    H268736   6.150   2.363  16.940  0.4722 -0.5305 -0.0582
15749TIP3   OH268737   1.973   3.618   6.634  0.3928  0.5460  0.3471
15749TIP3    H168738   1.877   3.618   6.638  0.3925  0.1287  0.3053
15749TIP3    H268739   1.997   3.705   6.668 -0.0342  1.0613 -0.6547
15750TIP3   OH268740   6.183   3.223  14.966  0.0469 -0.3376 -0.0781
15750TIP3    H168741   6.111   3.178  14.922  0.1250 -0.0350 -0.5198
15750TIP3    H268742   6.160   3.316  14.959  0.1400 -0.2805  0.3823
15751TIP3   OH268743   3.375   0.596   1.522 -0.0234 -0.0449 -0.0689
15751TIP3    H168744   3.375   0.503   1.498 -1.4073  0.5599 -2.5411
15751TIP3    H268745   3.467   0.622   1.520  0.1709 -0.8271 -1.5728
15752TIP3   OH268746   3.829   6.015  11.662  0.4252  0.0218 -0.4268
15752TIP3    H168747   3.828   5.952  11.734 -0.7014  0.2406 -0.2419
15752TIP3    H268748   3.920   6.045  11.658  0.6462 -0.5039  0.4577
15753TIP3   OH268749   2.798   2.903   5.493 -0.3746  0.1821  0.4246
15753TIP3    H168750   2.801   2.808   5.484  2.5466  0.3431 -0.8192
15753TIP3    H268751   2.873   2.924   5.549 -0.1650  1.8315 -0.4396
15754TIP3   OH268752   4.600   0.910   3.182 -0.4006  0.7205 -0.2264
15754TIP3    H168753   4.506   0.902   3.168 -0.3515  1.0419 -0.7826
15754TIP3    H268754   4.615   0.880   3.271 -1.0617  0.8768 -0.0682
15755TIP3   OH268755   3.168   1.626  13.028  0.0298  0.2656  0.8811
15755TIP3    H168756   3.132   1.600  12.944  0.1177  3.4033 -0.1814
15755TIP3    H268757   3.095   1.614  13.090 -0.7807  0.2894 -0.0647
15756TIP3   OH268758   4.471   4.474  13.631  0.4567 -0.2645 -0.0999
15756TIP3    H168759   4.434   4.499  13.716  0.2135  0.5277 -0.4332
15756TIP3    H268760   4.409   4.509  13.567 -1.5837 -4.4344 -0.5530
15757TIP3   OH268761   3.881   2.959  13.186 -0.1614  0.2694 -0.1527
15757TIP3    H168762   3.882   2.865  13.168  0.9724 -0.1772  2.1190
15757TIP3    H268763   3.812   2.993  13.128 -0.3780 -1.8906 -1.2293
15758TIP3   OH268764   2.662   5.857   3.998  0.3611 -0.4371 -0.1814
15758TIP3    H168765   2.746   5.815   4.015  1.4719  1.1401 -1.5635
15758TIP3    H268766   2.658   5.930   4.060  0.5689  0.2079 -0.9129
15759TIP3   OH268767   0.688   2.043   2.468 -0.1637  0.2929  0.0812
15759TIP3    H168768   0.651   2.075   2.385 -2.0029 -2.7508 -0.3502
15759TIP3    H268769   0.614   2.003   2.513  1.2622  0.0900  2.2969
15760TIP3   OH268770   2.605   2.343   4.921 -0.1184 -0.0694 -0.5847
15760TIP3    H168771   2.563   2.298   4.995 -1.3962  1.4533 -0.3556
15760TIP3    H268772   2.578   2.293   4.844  0.5042 -1.1457 -0.1162
15761TIP3   OH268773   2.853   1.203   5.043 -0.0840 -0.6617  1.0467
15761TIP3    H168774   2.912   1.253   4.987 -0.7575 -0.6305  0.3624
15761TIP3    H268775   2.908   1.175   5.116  0.5237  0.2631  0.9524
15762TIP3   OH268776   6.050   2.986  16.998  0.4913 -0.5958 -0.0828
15762TIP3    H168777   6.123   2.956  17.052  0.4171 -0.0017  0.3486
15762TIP3    H268778   5.982   2.920  17.010  0.1645 -0.0316  1.2145
15763TIP3   OH268779   2.946   1.506   4.020 -0.7335  0.0775 -0.6801
15763TIP3    H168780   2.976   1.528   3.932  0.4926 -2.5871 -0.9640
15763TIP3    H268781   2.868   1.452   4.006 -1.0748  0.4125 -0.1094
15764TIP3   OH268782   0.443   1.794   0.102  0.0755 -0.5237 -0.1325
15764TIP3    H168783   0.436   1.873   0.155  1.1491  0.0313 -0.8120
15764TIP3    H268784   0.410   1.820   0.016 -0.6130 -1.1187 -0.0496
15765TIP3   OH268785   4.494   6.277   5.214  0.5344 -0.3069  0.1567
15765TIP3    H168786   4.528   6.191   5.190  3.6857  0.2779  2.1531
15765TIP3    H268787   4.453   6.264   5.300  1.9496  0.3395  0.9539
15766TIP3   OH268788   0.268   0.700  16.715  0.1819  0.5786  0.1119
15766TIP3    H168789   0.357   0.725  16.688  0.1658 -0.2294 -0.7491
15766TIP3    H268790   0.229   0.781  16.748  0.3281  1.5650 -2.0436
15767TIP3   OH268791   4.336   4.870   1.878 -0.0704 -0.3081  0.4225
15767TIP3    H168792   4.320   4.863   1.784  1.3255  0.1189  0.1395
15767TIP3    H268793   4.252   4.897   1.915  0.3005  3.2550 -1.1547
15768TIP3   OH268794   3.467   2.651   0.818 -0.1996 -0.1014 -0.1931
15768TIP3    H168795   3.527   2.579   0.841  0.8785  0.7396 -0.3424
15768TIP3    H268796   3.382   2.608   0.807  0.1859 -1.1903  0.8777
15769TIP3   OH268797   2.361   5.643   5.657  0.3143  0.1518  1.0374
15769TIP3    H168798   2.324   5.555   5.655 -0.9142  0.6669 -0.3102
15769TIP3    H268799   2.297   5.695   5.706  1.3852  0.1573  2.4520
15770TIP3   OH268800   4.933   6.464   4.068 -0.7979  0.6639  0.1839
15770TIP3    H168801   4.928   6.405   4.143 -2.1929  1.4782  0.7462
15770TIP3    H268802   4.868   6.431   4.007 -0.6489  0.8411 -0.0724
15771TIP3   OH268803   1.159   2.377  15.133  0.5018  0.1480  0.5361
15771TIP3    H168804   1.172   2.472  15.138 -0.7667  0.4719 -1.8025
15771TIP3    H268805   1.066   2.367  15.114  0.7528 -1.5550  0.1608
15772TIP3   OH268806   4.264   4.273   4.757  0.0280  0.9977 -0.0030
15772TIP3    H168807   4.215   4.320   4.689 -2.2252  0.0913  0.9418
15772TIP3    H268808   4.246   4.181   4.740  0.7368  0.7000  0.8646
15773TIP3   OH268809   1.027   6.354  10.869  0.0699  0.5517  0.1207
15773TIP3    H168810   0.969   6.298  10.818  0.5585  0.4006 -0.2756
15773TIP3    H268811   1.108   6.304  10.876 -0.0337  0.5163  1.1498
15774TIP3   OH268812   3.632   5.511  15.825 -0.3506  0.2857  0.8686
15774TIP3    H168813   3.653   5.594  15.783 -0.6491 -0.0096  0.1330
15774TIP3    H268814   3.622   5.533  15.918 -0.2048  1.0243  0.7115
15775TIP3   OH268815   2.250   1.254  15.696 -0.1803 -0.0005  1.1317
15775TIP3    H168816   2.183   1.321  15.712 -1.3906 -0.9691  0.2113
15775TIP3    H268817   2.332   1.295  15.724 -0.9086  1.8405  0.6579
15776TIP3   OH268818   0.091   1.671   1.782 -0.1526  0.0172  0.7578
15776TIP3    H168819   0.148   1.745   1.760 -1.0037  0.7254  0.9455
15776TIP3    H268820   0.114   1.604   1.718 -0.2625  0.8885 -0.2114
15777TIP3   OH268821   5.297   2.831   3.914  0.1406 -0.2068  0.3995
15777TIP3    H168822   5.289   2.796   4.003 -0.6807 -0.0205  0.3990
15777TIP3    H268823   5.210   2.822   3.876  1.2451 -3.4634 -1.6096
15778TIP3   OH268824   0.895   3.724   1.694  0.1555 -0.0768 -0.4239
15778TIP3    H168825   0.850   3.674   1.625  2.2810 -0.2397 -1.7368
15778TIP3    H268826   0.887   3.815   1.666  0.3706 -0.0836 -0.5107
15779TIP3   OH268827   5.174   1.118  14.375 -0.1124 -0.2067 -0.0910
15779TIP3    H168828   5.240   1.187  14.381 -1.5057  1.1850 -0.4186
15779TIP3    H268829   5.191   1.063  14.452  1.5268  0.0154 -0.2681
15780TIP3   OH268830   0.663   5.516  12.794  0.3284  0.2345  0.2509
15780TIP3    H168831   0.621   5.449  12.848 -1.5099  1.3202  0.1842
15780TIP3    H268832   0.677   5.472  12.710 -1.9731  0.2714 -0.1839
15781TIP3   OH268833   1.426   1.861  12.984  0.0112 -0.2435  0.3218
15781TIP3    H168834   1.373   1.883  13.060  1.0878  0.2708  0.9307
15781TIP3    H268835   1.383   1.785  12.945 -1.8661  0.9146  0.0953
15782TIP3   OH268836   1.339   5.188   3.517  1.1345  0.2003 -0.2065
15782TIP3    H168837   1.328   5.093   3.529  1.5627  0.0116 -1.1866
15782TIP3    H268838   1.335   5.224   3.605 -1.6073 -0.4488  0.0075
15783TIP3   OH268839   0.596   1.590  13.412 -0.1542  0.6422  0.4328
15783TIP3    H168840   0.622   1.590  13.504 -1.4313 -2.2217  0.8484
15783TIP3    H268841   0.506   1.558  13.413  0.0699 -0.1522 -1.8981
15784TIP3   OH268842   6.545   0.699   5.675  1.0480 -0.1517 -0.5379
15784TIP3    H168843   6.574   0.672   5.762 -3.5894 -0.1558  1.1284
15784TIP3    H268844   6.575   0.789   5.666 -0.3597  0.5977  2.0154
15785TIP3   OH268845   0.811   2.709   4.233 -0.0104 -0.4370 -0.6908
15785TIP3    H168846   0.866   2.661   4.171  0.6542  1.8524 -1.9361
15785TIP3    H268847   0.837   2.677   4.319  0.5906 -2.0863 -1.4647
15786TIP3   OH268848   1.059   6.093   4.247  0.3459  0.1951  0.7874
15786TIP3    H168849   0.985   6.144   4.280  0.0010 -0.3650  0.8901
15786TIP3    H268850   1.132   6.115   4.304  0.2069  0.6041  0.8051
15787TIP3   OH268851   4.690   2.409  11.626 -0.4926  0.4232  0.2061
15787TIP3    H168852   4.614   2.432  11.573 -1.0351  0.0245  0.8057
15787TIP3    H268853   4.756   2.380  11.563 -1.1294 -0.0439 -0.2436
15788TIP3   OH268854   4.591   4.595   4.535 -0.9886 -0.0169 -0.2541
15788TIP3    H168855   4.502   4.569   4.557 -1.1894  0.1770 -0.8413
15788TIP3    H268856   4.630   4.516   4.497  0.1116 -1.1042  2.8899
15789TIP3   OH268857   2.760   1.024  14.337  0.2411 -0.7126  0.1688
15789TIP3    H168858   2.760   1.084  14.411  1.2436 -1.7710  1.0513
15789TIP3    H268859   2.840   0.973  14.347 -0.1271 -1.5703 -1.0649
15790TIP3   OH268860   4.855   4.153  12.213  0.0062 -0.2179 -0.1756
15790TIP3    H168861   4.809   4.074  12.239 -1.9576  0.6019 -1.0516
15790TIP3    H268862   4.804   4.224  12.253 -0.5187  0.7998 -2.5811
15791TIP3   OH268863   0.697   3.848  11.709 -0.4816  0.6575 -0.1690
15791TIP3    H168864   0.750   3.881  11.782 -0.3531  2.0266 -0.8605
15791TIP3    H268865   0.621   3.808  11.751  1.4784 -2.1621  0.8765
15792TIP3   OH268866   0.753   5.817   5.072 -0.0856  0.1539 -0.0207
15792TIP3    H168867   0.828   5.772   5.111  0.1916  0.6991  0.0685
15792TIP3    H268868   0.706   5.747   5.026 -0.6625 -0.5913  1.6453
15793TIP3   OH268869   5.794   2.206  15.439 -0.1260 -0.6918 -0.5550
15793TIP3    H168870   5.838   2.282  15.401  0.8517 -0.9999 -0.0691
15793TIP3    H268871   5.733   2.177  15.371 -0.8028  0.7629 -0.5792
15794TIP3   OH268872   6.182   2.971   0.546  0.5800  0.5840  0.0452
15794TIP3    H168873   6.090   2.962   0.522  0.4643  0.4141  0.5478
15794TIP3    H268874   6.215   2.881   0.550  1.0568  0.6921 -1.2365
15795TIP3   OH268875   2.092   4.582  17.207 -0.1859 -0.0036 -0.3491
15795TIP3    H168876   2.024   4.551  17.267 -1.5129 -0.2967 -1.9653
15795TIP3    H268877   2.167   4.525  17.224 -1.0877 -1.1245 -0.1183
15796TIP3   OH268878   1.307   2.948   2.458  0.7487 -0.4549  0.1715
15796TIP3    H168879   1.365   3.022   2.478  0.9048 -0.3295 -0.7054
15796TIP3    H268880   1.303   2.898   2.539 -0.3398  1.1784  1.1569
15797TIP3   OH268881   0.343   5.556   0.848  0.1698  0.1569  0.1683
15797TIP3    H168882   0.275   5.515   0.901 -0.5143 -1.3114 -1.7971
15797TIP3    H268883   0.330   5.521   0.761  2.9024  0.5495 -0.4398
15798TIP3   OH268884   0.582   6.453  15.540  0.4543 -0.3742  0.8123
15798TIP3    H168885   0.525   6.406  15.479  0.1263  1.2949 -0.2017
15798TIP3    H268886   0.524   6.479  15.612  0.2378  0.1429  0.4465
15799TIP3   OH268887   6.256   2.581  12.025 -0.2018  0.1028  0.0446
15799TIP3    H168888   6.221   2.627  11.949  1.2489  1.8914  0.4335
15799TIP3    H268889   6.187   2.588  12.091 -1.0857 -0.6476 -0.7793
15800TIP3   OH268890   2.757   3.958   2.053  0.4432  0.0345  0.2166
15800TIP3    H168891   2.662   3.958   2.050  0.4372  0.2776  0.3992
15800TIP3    H268892   2.781   3.867   2.066  0.2413 -0.0539 -0.0231
15801TIP3   OH268893   3.277   1.712  17.159  0.8549 -0.2507 -0.1599
15801TIP3    H168894   3.222   1.692  17.234 -1.2730  1.0664 -1.2942
15801TIP3    H268895   3.254   1.802  17.135  0.9978 -0.8532 -2.7614
15802TIP3   OH268896   3.447   3.789  14.866 -0.5271  0.2049  0.2303
15802TIP3    H168897   3.525   3.824  14.909 -0.7282  1.4989 -0.4378
15802TIP3    H268898   3.458   3.810  14.774  0.2699 -3.2640 -0.5266
15803TIP3   OH268899   0.672   2.795  14.261 -0.3728 -0.5164 -0.4508
15803TIP3    H168900   0.601   2.771  14.322 -0.4431  1.9590  0.5050
15803TIP3    H268901   0.751   2.790  14.315 -0.1593 -0.5564 -0.7717
15804TIP3   OH268902   4.450   6.664   1.188 -0.1443  0.0812  0.1048
15804TIP3    H168903   4.504   6.603   1.139 -0.7823 -0.7467  0.4182
15804TIP3    H268904   4.497   6.747   1.184  1.3769 -0.7409  0.7821
15805TIP3   OH268905   1.204   1.861   3.086 -0.0425  0.1233  0.4029
15805TIP3    H168906   1.235   1.894   3.170 -0.2728 -1.2806  1.0466
15805TIP3    H268907   1.188   1.768   3.101 -0.5987 -0.0256 -1.0496
15806TIP3   OH268908   5.051   6.068   0.850  0.3855  0.0849 -0.2326
15806TIP3    H168909   4.996   6.079   0.773  0.1311 -0.1168 -0.0812
15806TIP3    H268910   4.998   6.101   0.923  0.1433 -0.8533  0.0259
15807TIP3   OH268911   4.156   3.815   0.252  0.3128  0.4504  0.5258
15807TIP3    H168912   4.142   3.744   0.314 -0.7837  0.4780  0.3141
15807TIP3    H268913   4.171   3.771   0.168 -0.1699  0.4671  0.4320
15808TIP3   OH268914   4.454   3.450  11.901 -0.4193 -0.1432  0.0155
15808TIP3    H168915   4.433   3.371  11.952 -0.2917  0.8550  1.6800
15808TIP3    H268916   4.409   3.521  11.948  1.8421  1.1869  0.2533
15809TIP3   OH268917   5.279   5.817  10.620  0.4921 -0.4111  0.0036
15809TIP3    H168918   5.205   5.780  10.571 -0.3132  1.6973 -0.4398
15809TIP3    H268919   5.347   5.750  10.613 -0.3549 -1.1272 -2.1558
15810TIP3   OH268920   3.539   4.623   2.168 -0.0968  0.5719  0.3070
15810TIP3    H168921   3.508   4.558   2.106 -0.5626  1.4276 -0.3761
15810TIP3    H268922   3.472   4.625   2.236  0.0797  0.1069  0.4943
15811TIP3   OH268923   2.106   6.800  15.261 -0.3551 -0.3063 -0.3946
15811TIP3    H168924   2.122   6.816  15.168 -2.6726 -1.4730 -1.0138
15811TIP3    H268925   2.060   6.717  15.264 -1.5259  0.3866  1.7031
15812TIP3   OH268926   5.659   0.601  14.537 -0.2235  0.2892  0.0107
15812TIP3    H168927   5.601   0.659  14.586 -1.9737 -0.5818 -0.9574
15812TIP3    H268928   5.607   0.575  14.460  0.9639 -1.5560 -0.2032
15813TIP3   OH268929   6.710   2.155  15.195 -0.2922 -0.1298 -0.5638
15813TIP3    H168930   6.743   2.144  15.284  0.2005  2.1635 -0.4434
15813TIP3    H268931   6.661   2.075  15.178 -0.7472 -0.4237  1.9326
15814TIP3   OH268932   4.948   1.697  13.626  0.4319 -0.1805 -0.4653
15814TIP3    H168933   4.873   1.681  13.683 -0.3915 -0.5810 -1.6435
15814TIP3    H268934   5.003   1.619  13.636  0.6407  0.0603  0.3068
15815TIP3   OH268935   0.977   0.007   6.623 -0.6063 -0.4739  0.4043
15815TIP3    H168936   1.025  -0.010   6.704 -1.8855  0.0911  1.3071
15815TIP3    H268937   0.908  -0.059   6.622 -0.4451 -0.6348 -0.3645
15816TIP3   OH268938   4.575   5.673   2.989 -0.3128  0.8613 -0.4872
15816TIP3    H168939   4.639   5.629   2.933  1.0112  2.7377 -0.4600
15816TIP3    H268940   4.548   5.605   3.051  2.7934  0.4539  0.4974
15817TIP3   OH268941   6.162   6.799   1.916 -0.0115  0.1260  0.6879
15817TIP3    H168942   6.254   6.774   1.910 -0.4300 -0.9830 -1.7366
15817TIP3    H268943   6.123   6.732   1.973  0.1661 -0.9943 -0.4832
15818TIP3   OH268944   4.563   1.714  16.991 -0.5460  0.0550  0.1825
15818TIP3    H168945   4.478   1.740  16.956 -0.0778  3.3331  1.3512
15818TIP3    H268946   4.543   1.657  17.065 -1.6640 -0.0553 -0.2004
15819TIP3   OH268947   6.735   3.713   4.558  0.0628 -0.1317  0.2406
15819TIP3    H168948   6.732   3.808   4.549 -1.3118 -0.1355  0.5588
15819TIP3    H268949   6.722   3.697   4.651  4.6262 -0.4893  0.9495
15820TIP3   OH268950   3.164   5.522  14.339 -0.2725 -0.8085  0.9224
15820TIP3    H168951   3.222   5.598  14.340 -1.8505  0.4265  1.7271
15820TIP3    H268952   3.095   5.545  14.276  1.5483 -3.4191 -2.1958
15821TIP3   OH268953   4.944   2.349   1.285  0.1898 -0.0584 -0.0423
15821TIP3    H168954   4.936   2.312   1.198 -1.8777 -0.5533  0.3371
15821TIP3    H268955   4.989   2.433   1.272  1.0458 -0.7104 -1.4001
15822TIP3   OH268956   2.789   3.589  13.625  0.4147  0.3792  0.0803
15822TIP3    H168957   2.833   3.533  13.689  0.7577 -1.3951 -1.6686
15822TIP3    H268958   2.860   3.630  13.575  0.1352  0.3347 -0.3581
15823TIP3   OH268959   4.812   4.285  11.231 -0.9100 -0.2515  0.2846
15823TIP3    H168960   4.775   4.297  11.318  0.7498 -1.9372  1.2305
15823TIP3    H268961   4.787   4.196  11.206  1.7754 -1.1398  0.6156
15824TIP3   OH268962   2.056   2.808  13.301 -0.2786  0.5491 -0.2218
15824TIP3    H168963   2.022   2.752  13.371  1.0054 -1.5334 -1.2324
15824TIP3    H268964   2.137   2.844  13.337  0.2991 -0.3965 -0.5554
15825TIP3   OH268965   1.976   4.868  11.120  0.2163 -0.2217  0.2023
15825TIP3    H168966   2.004   4.807  11.052 -0.9633 -1.2405  0.6128
15825TIP3    H268967   1.885   4.844  11.139 -0.0357  1.2017  0.8840
15826TIP3   OH268968   3.015   3.577   4.099 -0.3179 -0.1866  0.4353
15826TIP3    H168969   2.980   3.495   4.064 -0.8470 -0.5393  1.8015
15826TIP3    H268970   3.093   3.593   4.045 -1.1862 -0.6504 -1.0129
15827TIP3   OH268971   2.038   3.261   1.717  0.5477 -0.6793  0.7745
15827TIP3    H168972   2.038   3.305   1.632 -0.1874 -2.4140 -0.1522
15827TIP3    H268973   1.977   3.311   1.770  0.9935  0.4070  0.2805
15828TIP3   OH268974   3.009   1.918   6.480  0.0759 -0.6316 -0.3249
15828TIP3    H168975   3.028   1.994   6.535  0.1017 -0.6812 -0.2636
15828TIP3    H268976   2.978   1.954   6.397  0.7393 -0.5379 -0.5372
15829TIP3   OH268977   3.420   0.475  14.426 -0.3003  0.0043  0.0738
15829TIP3    H168978   3.488   0.541  14.441  0.0011 -0.4553  0.7616
15829TIP3    H268979   3.358   0.488  14.498  0.0702 -0.8599  0.5510
15830TIP3   OH268980   5.380   3.809  16.270 -0.2382 -0.4038 -0.5130
15830TIP3    H168981   5.454   3.790  16.328  0.1897 -2.1689 -1.6124
15830TIP3    H268982   5.348   3.894  16.300  2.2575  0.4220 -0.0603
15831TIP3   OH268983   5.448   1.829   3.472  0.1398  0.1176  0.0942
15831TIP3    H168984   5.520   1.776   3.505  0.8014  1.4424  0.8591
15831TIP3    H268985   5.429   1.891   3.543 -1.6297 -0.0937 -0.1709
15832TIP3   OH268986   6.782   4.610   1.689 -0.4496 -0.3548  0.3476
15832TIP3    H168987   6.719   4.544   1.718 -0.6554 -0.4044 -0.2174
15832TIP3    H268988   6.858   4.597   1.746  0.1334 -2.1112 -0.8137
15833TIP3   OH268989   1.588   4.504   5.110  0.4282  0.2703  0.2381
15833TIP3    H168990   1.681   4.503   5.133  0.5112  0.0329 -0.0955
15833TIP3    H268991   1.545   4.452   5.179  0.5828  0.1366  0.2343
15834TIP3   OH268992   5.824   6.361  16.383 -0.1224  0.0096 -0.9190
15834TIP3    H168993   5.812   6.454  16.400  0.7854  0.2765 -1.6599
15834TIP3    H268994   5.900   6.336  16.434 -0.1054 -0.2306 -1.0584
15835TIP3   OH268995   3.370   4.729   4.347  0.1910 -0.2077  0.4188
15835TIP3    H168996   3.430   4.725   4.421 -0.5842  1.7649  1.1850
15835TIP3    H268997   3.359   4.823   4.330 -1.1472 -0.5958 -0.9513
15836TIP3   OH268998   6.594   4.022  16.951 -0.1556  0.0237  0.1925
15836TIP3    H168999   6.569   4.042  17.041 -1.0270  2.9235 -0.6235
15836TIP3    H269000   6.517   4.046  16.899  1.3543  1.1779 -1.5682
15837TIP3   OH269001   0.152   0.768   5.414 -0.2282 -0.3830  0.3065
15837TIP3    H169002   0.097   0.826   5.362 -0.0177  1.2352  1.8544
15837TIP3    H269003   0.112   0.682   5.405 -2.0380  0.4764  0.0549
15838TIP3   OH269004   3.840   2.001   4.353  0.0497 -0.4418  0.1479
15838TIP3    H169005   3.900   2.074   4.370 -0.3927 -0.1744  0.5691
15838TIP3    H269006   3.890   1.923   4.378  0.6463 -0.3101 -0.6214
15839TIP3   OH269007   1.980   4.989   4.632  0.0540  0.1029  0.6503
15839TIP3    H169008   1.927   4.909   4.630  0.0837  0.0999 -0.6102
15839TIP3    H269009   1.930   5.051   4.579 -0.2918  1.1329  2.1710
15840TIP3   OH269010   2.113   5.148  11.174 -0.2896  0.5349  0.2806
15840TIP3    H169011   2.072   5.061  11.169  0.7345 -0.0269  1.4402
15840TIP3    H269012   2.152   5.161  11.088 -0.5924 -0.0733  0.0465
15841TIP3   OH269013   1.799   5.494  15.803  0.2598  0.0416 -0.0847
15841TIP3    H169014   1.878   5.460  15.845 -0.3696  0.2729  1.3103
15841TIP3    H269015   1.738   5.508  15.875 -0.9377  0.1892 -1.1202
15842TIP3   OH269016   1.872   1.628   5.423  0.3712  0.5676 -0.1825
15842TIP3    H169017   1.872   1.708   5.371  1.9072  1.6366  1.3736
15842TIP3    H269018   1.928   1.567   5.375 -2.0251 -0.1490 -2.1507
15843TIP3   OH269019   5.885   2.206   1.086  0.7387 -0.1089 -0.6973
15843TIP3    H169020   5.841   2.123   1.106  0.4906 -0.5777 -3.0514
15843TIP3    H269021   5.830   2.273   1.127  0.6967 -1.0699  0.8386
15844TIP3   OH269022   1.105   1.253   0.567  0.3403  0.2396  0.1325
15844TIP3    H169023   1.049   1.222   0.496  1.0013 -0.4953 -0.0790
15844TIP3    H269024   1.167   1.182   0.581  1.3686  1.1369  0.2066
15845TIP3   OH269025   3.993   1.711   3.622 -0.1834 -0.7515 -0.0508
15845TIP3    H169026   4.030   1.629   3.590 -0.7000 -0.7731 -0.6095
15845TIP3    H269027   3.911   1.721   3.573  1.3781  1.6670 -2.3667
15846TIP3   OH269028   6.384   2.173  14.010 -0.0566 -0.2426  0.0329
15846TIP3    H169029   6.380   2.266  13.989  1.0624 -0.2658 -0.3544
15846TIP3    H269030   6.309   2.135  13.965 -0.4216  0.4511  0.0472
15847TIP3   OH269031   5.909   5.156  14.814 -0.0880  0.3508  0.2884
15847TIP3    H169032   5.984   5.100  14.795 -0.6598 -1.0939  2.1587
15847TIP3    H269033   5.833   5.099  14.804 -0.8335  1.3606  0.0963
15848TIP3   OH269034   6.360   4.108   0.684 -0.5209  0.5969 -0.3465
15848TIP3    H169035   6.271   4.082   0.659 -1.2937  0.3508  2.4950
15848TIP3    H269036   6.349   4.186   0.738  1.1638  1.6524 -1.4619
15849TIP3   OH269037   5.899   3.256  15.899  0.2390  0.2797  0.2581
15849TIP3    H169038   5.906   3.174  15.850  0.7602  0.0023  0.7737
15849TIP3    H269039   5.809   3.286  15.886  0.4042  0.2625 -0.9356
15850TIP3   OH269040   1.095   0.381  12.680  0.0438  0.4370 -0.3292
15850TIP3    H169041   1.025   0.335  12.727 -1.4195  1.7342 -1.1704
15850TIP3    H269042   1.163   0.395  12.746 -0.1129 -1.5973  0.2873
15851TIP3   OH269043   2.617   0.792   5.372 -0.4129  0.0131 -0.4221
15851TIP3    H169044   2.603   0.708   5.415  0.2912  0.1946  0.1923
15851TIP3    H269045   2.568   0.787   5.290 -3.3129  0.3349  1.2332
15852TIP3   OH269046   3.202   2.804  12.583 -0.5220  0.3325  0.6075
15852TIP3    H169047   3.145   2.828  12.510  0.6329  0.2376 -0.3364
15852TIP3    H269048   3.172   2.717  12.609  0.3789 -0.5008 -1.0833
15853TIP3   OH269049   3.748   2.550  16.565  0.1767 -0.3795  0.1397
15853TIP3    H169050   3.810   2.588  16.502 -0.9015 -1.1965 -1.4527
15853TIP3    H269051   3.672   2.608  16.563 -0.0878 -0.7192  0.2565
15854TIP3   OH269052   3.861   2.838  15.711  0.1364 -0.1343 -0.3445
15854TIP3    H169053   3.854   2.789  15.629 -0.0968  0.3539 -0.6252
15854TIP3    H269054   3.830   2.926  15.688 -0.0217 -0.0233  0.2954
15855TIP3   OH269055   2.373   6.115  13.641 -0.1868 -0.4291 -0.4522
15855TIP3    H169056   2.358   6.201  13.681  1.2297  0.2237 -1.3030
15855TIP3    H269057   2.468   6.109  13.630 -0.4125 -1.2895 -2.1915
15856TIP3   OH269058   4.401   5.002   3.600  0.3736 -0.0700 -0.5555
15856TIP3    H169059   4.364   4.925   3.643 -0.0888  0.5288  0.1348
15856TIP3    H269060   4.330   5.035   3.544  0.3902  0.1566 -0.4445
15857TIP3   OH269061   6.620   0.352  12.464 -0.0775 -0.3365  0.5727
15857TIP3    H169062   6.678   0.425  12.483 -1.0419  1.2040 -2.0973
15857TIP3    H269063   6.557   0.352  12.536  0.5278  0.8330  1.1166
15858TIP3   OH269064   5.853   1.862  14.792  0.8167  0.3348 -0.4769
15858TIP3    H169065   5.869   1.787  14.848 -0.0591 -0.4620 -1.2754
15858TIP3    H269066   5.885   1.835  14.706  0.5867  0.9120 -0.7496
15859TIP3   OH269067   2.266   2.957  14.316  0.0138 -0.6778  0.3737
15859TIP3    H169068   2.205   2.976  14.387 -1.6408 -2.1484 -0.6371
15859TIP3    H269069   2.235   2.874  14.279  0.2222  0.6013 -2.7638
15860TIP3   OH269070   0.483   2.558   3.401  0.7924 -0.1817  0.2219
15860TIP3    H169071   0.420   2.489   3.421  1.3420 -1.3760 -1.9972
15860TIP3    H269072   0.527   2.575   3.484 -0.0913 -1.7344  1.0318
15861TIP3   OH269073   2.296   4.415   0.012  0.0690 -0.2498  0.1047
15861TIP3    H169074   2.337   4.435  -0.073 -0.1947  0.5409  0.1558
15861TIP3    H269075   2.360   4.359   0.057 -0.7587 -2.5549 -1.5013
15862TIP3   OH269076   5.956   5.863  13.263  0.3901 -0.1055 -0.3382
15862TIP3    H169077   5.879   5.808  13.246 -0.7419  1.4373 -0.3173
15862TIP3    H269078   5.990   5.833  13.347 -1.1460  0.2656  0.4243
15863TIP3   OH269079   4.569   0.403   5.598 -0.0974  0.2311  0.3019
15863TIP3    H169080   4.507   0.429   5.530 -0.3225 -0.3196  0.2917
15863TIP3    H269081   4.518   0.407   5.679 -0.3799 -1.0129  0.1953
15864TIP3   OH269082   2.241   5.396  14.048  0.1776  0.3073  0.1696
15864TIP3    H169083   2.165   5.381  14.104  1.0325 -1.2714  0.9203
15864TIP3    H269084   2.212   5.465  13.987 -2.6535 -1.9401 -1.1310
15865TIP3   OH269085   0.023   6.181  13.688 -0.9579  0.0691  0.4921
15865TIP3    H169086  -0.043   6.143  13.630 -0.2935 -0.0004 -0.2300
15865TIP3    H269087   0.061   6.253  13.638  0.7717 -1.0171  0.1611
15866TIP3   OH269088   5.280   4.241  10.957  0.1153  0.4338  0.4373
15866TIP3    H169089   5.286   4.253  11.052 -0.8574 -1.4221  0.7755
15866TIP3    H269090   5.255   4.149  10.947 -0.4851  0.7953 -1.5963
15867TIP3   OH269091   3.342   4.554   0.330  0.6077 -1.0067  0.0943
15867TIP3    H169092   3.405   4.485   0.311  0.3282 -1.4909  0.8838
15867TIP3    H269093   3.287   4.559   0.252  0.2006 -2.1470  0.3055
15868TIP3   OH269094   6.247   4.614   5.545 -0.0790  0.1511 -0.7470
15868TIP3    H169095   6.257   4.690   5.601  0.2172 -2.8302  3.4637
15868TIP3    H269096   6.314   4.625   5.477  1.0717  2.7659  0.7649
15869TIP3   OH269097   5.033   2.383  12.671 -0.2442  0.2980 -0.3716
15869TIP3    H169098   5.023   2.297  12.630  0.8684  0.2685 -0.5931
15869TIP3    H269099   5.100   2.427  12.619  2.2624 -0.2905  2.2255
15870TIP3   OH269100   3.494   2.908  14.603 -0.0536  0.0811 -0.4496
15870TIP3    H169101   3.439   2.890  14.527  0.2308 -0.9465 -0.4307
15870TIP3    H269102   3.447   2.866  14.676  0.3436 -0.0927 -0.2941
15871TIP3   OH269103   5.560   2.529   0.628 -0.0597 -0.0023 -0.5706
15871TIP3    H169104   5.509   2.604   0.661 -0.3709 -0.3932 -0.1642
15871TIP3    H269105   5.524   2.512   0.541 -0.9890 -0.6145 -0.0711
15872TIP3   OH269106   2.334   3.212  16.829  0.0324 -0.6393 -0.0968
15872TIP3    H169107   2.386   3.136  16.857  0.7248  0.4072  1.5184
15872TIP3    H269108   2.302   3.251  16.911  1.4485  2.0424 -0.7680
15873TIP3   OH269109   2.074   1.409   0.138  0.2685  0.1877 -0.1107
15873TIP3    H169110   1.984   1.394   0.165  0.0035 -0.2785 -1.2563
15873TIP3    H269111   2.117   1.444   0.217 -0.7231 -0.2766  0.6441
15874TIP3   OH269112   6.107   0.391   0.221 -0.0523  0.1421 -0.3583
15874TIP3    H169113   6.181   0.380   0.161  0.0288  0.6445 -0.3530
15874TIP3    H269114   6.107   0.310   0.273 -0.5165 -0.5702 -1.4512
15875TIP3   OH269115   4.266   0.225   2.255 -0.1030 -0.7752 -0.3922
15875TIP3    H169116   4.354   0.190   2.266  0.4419  0.2328 -1.5173
15875TIP3    H269117   4.279   0.311   2.215 -1.6917 -1.5031 -2.5449
15876TIP3   OH269118   1.460   2.020   5.516 -0.4248  0.0691  0.6323
15876TIP3    H169119   1.436   1.944   5.462  0.5962 -0.5557  1.0380
15876TIP3    H269120   1.438   2.096   5.462 -0.8962 -0.5208 -0.0217
15877TIP3   OH269121   0.630   3.625  17.255 -0.1946 -0.1937  0.2437
15877TIP3    H169122   0.682   3.688  17.204  0.7082 -0.4590  0.8246
15877TIP3    H269123   0.695   3.569  17.296 -0.9976 -1.6938 -0.4849
15878TIP3   OH269124   5.922   3.009  12.099 -0.0820 -0.4254  0.4106
15878TIP3    H169125   5.841   3.045  12.135  0.5220 -1.4031  2.8190
15878TIP3    H269126   5.989   3.073  12.123 -0.3242  1.3124 -3.1380
15879TIP3   OH269127   4.807   1.880   0.496 -0.3998 -0.3788  0.0982
15879TIP3    H169128   4.858   1.823   0.439 -1.4988 -1.1160 -0.1612
15879TIP3    H269129   4.847   1.868   0.583 -0.0800 -0.8882 -0.1170
15880TIP3   OH269130   5.517   0.589  10.704  0.3771 -0.2670  0.0605
15880TIP3    H169131   5.526   0.503  10.663  1.2509 -0.8236  1.4077
15880TIP3    H269132   5.535   0.651  10.633 -1.3194 -1.1583 -1.1906
15881TIP3   OH269133   4.746   4.492  12.892  0.1976  0.4881 -0.5874
15881TIP3    H169134   4.745   4.407  12.935  2.1235  2.2348  3.1160
15881TIP3    H269135   4.670   4.538  12.929  1.6736  1.8787  0.8310
15882TIP3   OH269136   6.680   6.507  17.210 -0.0431  0.3984  0.2933
15882TIP3    H169137   6.772   6.528  17.200  0.1501 -0.1960  0.8219
15882TIP3    H269138   6.674   6.461  17.294 -0.6919 -0.2319 -0.0871
15883TIP3   OH269139   5.745   1.889  16.249  0.0760  0.0243 -0.1777
15883TIP3    H169140   5.769   1.829  16.319 -0.1468  0.3316  0.1647
15883TIP3    H269141   5.679   1.842  16.198 -0.4281  0.1427  0.3512
15884TIP3   OH269142   4.649   6.432  14.991 -0.0288 -0.3430 -0.0293
15884TIP3    H169143   4.743   6.418  14.982  0.1842  0.3747  1.0703
15884TIP3    H269144   4.635   6.447  15.084 -1.2936 -0.8655 -0.1259
15885TIP3   OH269145   2.430   0.859   4.137  0.2221 -0.7580 -0.6197
15885TIP3    H169146   2.445   0.779   4.087 -1.4031  0.1794 -2.7047
15885TIP3    H269147   2.335   0.863   4.148  0.3945  0.2201  0.5768
15886TIP3   OH269148   6.666   5.584  16.032 -0.2199 -0.0592  0.0025
15886TIP3    H169149   6.704   5.647  16.094 -0.0214 -1.1190  0.9866
15886TIP3    H269150   6.727   5.582  15.959  0.0261  0.5316  0.1863
15887TIP3   OH269151   0.620   6.681  15.139 -0.1055  0.1030  0.0880
15887TIP3    H169152   0.620   6.591  15.106  1.3713  0.1281 -0.0261
15887TIP3    H269153   0.590   6.733  15.065 -2.3356 -0.4191  0.5855
15888TIP3   OH269154   4.390   2.213   0.789  0.0104  0.3100  0.3359
15888TIP3    H169155   4.382   2.181   0.878  0.0530  1.4903  0.7721
15888TIP3    H269156   4.366   2.305   0.794  0.7247  0.5705 -0.7431
15889TIP3   OH269157   3.728   1.840   1.809 -0.1768  0.3601 -0.4931
15889TIP3    H169158   3.659   1.876   1.864 -0.4787 -0.3716 -0.3880
15889TIP3    H269159   3.808   1.879   1.842 -0.0859 -1.7327  1.9111
15890TIP3   OH269160   0.274   4.095  14.795 -0.6749 -0.2310  0.2948
15890TIP3    H169161   0.192   4.142  14.808 -0.9160 -0.5178 -0.1773
15890TIP3    H269162   0.259   4.009  14.834  0.6176  0.8739  3.4997
15891TIP3   OH269163   3.426   0.689   3.011  0.1687 -0.0253 -0.1537
15891TIP3    H169164   3.370   0.665   2.937  0.8425  0.8360 -0.9489
15891TIP3    H269165   3.466   0.772   2.986  0.9500 -0.0737  0.8755
15892TIP3   OH269166   2.961   2.119   2.755  0.1564  0.5077  0.3330
15892TIP3    H169167   2.935   2.073   2.835 -1.1202  0.9149  0.1813
15892TIP3    H269168   2.984   2.050   2.693  0.5285  0.1665  0.8454
15893TIP3   OH269169   4.955   4.972  15.031  0.4698 -0.1109  0.1698
15893TIP3    H169170   4.886   4.974  14.964  0.1209 -0.4883  0.5132
15893TIP3    H269171   5.032   5.009  14.987 -0.2440  1.3230  0.1135
15894TIP3   OH269172   0.748   2.388  14.327 -1.1301  0.9006  0.0383
15894TIP3    H169173   0.843   2.390  14.314 -0.8927 -0.8675  1.3232
15894TIP3    H269174   0.711   2.392  14.238  0.1632  0.1816 -0.5380
15895TIP3   OH269175   1.463   5.486  13.313 -0.7256  0.8818 -0.0831
15895TIP3    H169176   1.368   5.487  13.325 -0.6019 -0.3726  1.2467
15895TIP3    H269177   1.479   5.412  13.254 -0.6083  1.2787 -0.5462
15896TIP3   OH269178   2.668   6.596   0.139 -0.2457 -0.0759  0.3984
15896TIP3    H169179   2.609   6.572   0.210 -0.9924 -0.5311 -0.3694
15896TIP3    H269180   2.741   6.535   0.146 -0.4304 -0.2686  0.6388
15897TIP3   OH269181   4.596   0.755  11.008 -0.5835  0.5731 -0.1372
15897TIP3    H169182   4.629   0.667  11.028 -0.3186  0.8095  0.4639
15897TIP3    H269183   4.648   0.783  10.933 -1.2034 -0.0938 -0.8299
15898TIP3   OH269184   0.531   1.464  14.738 -0.6444 -0.0397  0.0906
15898TIP3    H169185   0.622   1.485  14.715 -0.0586 -2.5216  0.0562
15898TIP3    H269186   0.525   1.485  14.831 -0.8382  2.7031 -0.4881
15899TIP3   OH269187   5.912   4.374  13.874 -0.2495  0.2974  0.0470
15899TIP3    H169188   5.916   4.468  13.894 -0.9761  0.7923 -1.9801
15899TIP3    H269189   5.870   4.335  13.951  2.0140  1.2905  1.8607
15900TIP3   OH269190   1.183   0.568  11.716 -0.2501  0.0257 -0.9715
15900TIP3    H169191   1.102   0.548  11.669 -0.8308 -1.2835  0.5106
15900TIP3    H269192   1.247   0.587  11.648 -1.4145 -0.4510 -2.2228
15901TIP3   OH269193   2.869   4.271   2.246 -0.1029 -0.2293  0.5657
15901TIP3    H169194   2.928   4.253   2.172 -0.0865  0.7923  0.3305
15901TIP3    H269195   2.853   4.185   2.284  0.2610 -0.7130 -0.3479
15902TIP3   OH269196   4.670   3.644  15.751 -0.0809  1.0334 -0.3414
15902TIP3    H169197   4.593   3.602  15.789  0.2849  1.3952  0.8205
15902TIP3    H269198   4.739   3.578  15.758 -0.0645  1.0242 -0.5826
15903TIP3   OH269199   5.225   3.659  13.443 -0.6681 -0.1431 -0.4035
15903TIP3    H169200   5.272   3.577  13.457  0.0878  0.2357 -0.6533
15903TIP3    H269201   5.273   3.701  13.371  0.4126  1.6125  1.3154
15904TIP3   OH269202   5.258   5.894   5.432 -0.7053 -0.3815 -0.8739
15904TIP3    H169203   5.270   5.848   5.515 -0.2323 -0.0936 -0.7807
15904TIP3    H269204   5.311   5.845   5.369  2.4962  1.9548 -0.0806
15905TIP3   OH269205   0.503   4.344  16.387  0.0247  0.2172  0.1912
15905TIP3    H169206   0.530   4.256  16.363  1.1757  0.9481 -1.2686
15905TIP3    H269207   0.476   4.337  16.479 -0.0795 -1.6758  0.0246
15906TIP3   OH269208   3.429   4.558  14.214 -0.3295 -0.1675  0.3615
15906TIP3    H169209   3.495   4.502  14.254  0.2378 -1.0119 -1.6557
15906TIP3    H269210   3.479   4.621  14.162 -1.0623 -1.4309 -1.9778
15907TIP3   OH269211   1.778   2.266   5.094  0.2584 -0.0511  0.0564
15907TIP3    H169212   1.706   2.284   5.033 -1.7502  1.6259  2.7729
15907TIP3    H269213   1.846   2.329   5.071  0.0952 -0.3374 -1.2814
15908TIP3   OH269214   6.021   4.498  11.045  0.4249  0.0960 -0.1408
15908TIP3    H169215   5.937   4.530  11.080  1.0516  0.7326  0.8111
15908TIP3    H269216   6.062   4.454  11.119  1.7956  1.5088 -0.0320
15909TIP3   OH269217   4.319   4.365   2.684 -0.4262 -0.5184 -0.2241
15909TIP3    H169218   4.225   4.352   2.670 -0.8098  0.9275  0.9023
15909TIP3    H269219   4.345   4.294   2.742 -1.1470 -0.0561  0.6731
15910TIP3   OH269220   4.031   6.427   4.777 -0.2939  0.1046 -0.1570
15910TIP3    H169221   4.014   6.406   4.869  1.0881  0.7358  0.2492
15910TIP3    H269222   4.059   6.344   4.738 -0.3974 -0.0532  0.1014
15911TIP3   OH269223   5.777   5.414  13.771 -0.3734 -0.5501  0.2772
15911TIP3    H169224   5.685   5.432  13.754 -0.3279 -0.7577 -0.1927
15911TIP3    H269225   5.797   5.462  13.852 -0.8830 -0.4796  0.3590
15912TIP3   OH269226   0.230   4.067  13.763  0.2288 -0.1873 -0.0830
15912TIP3    H169227   0.311   4.068  13.712  0.2052 -1.6413 -0.1781
15912TIP3    H269228   0.258   4.046  13.852  0.1479  1.2316  0.2939
15913TIP3   OH269229   2.340   0.585  13.518 -0.4745  0.6660 -0.1260
15913TIP3    H169230   2.325   0.527  13.592  1.2017 -0.1551 -0.4201
15913TIP3    H269231   2.257   0.633  13.508 -1.2172 -0.2976  1.3053
15914TIP3   OH269232   3.951   5.685  14.588  0.0527  0.0134  0.1795
15914TIP3    H169233   3.890   5.757  14.570  0.2899  0.0174 -0.5777
15914TIP3    H269234   4.021   5.695  14.525  2.0277  1.3538  2.4938
15915TIP3   OH269235   0.789   2.954   6.170  0.4815  0.4726 -0.3633
15915TIP3    H169236   0.769   3.005   6.249 -0.1806 -2.4321  1.4000
15915TIP3    H269237   0.884   2.941   6.173  0.4713  0.4544 -0.0950
15916TIP3   OH269238   3.588   5.018   1.409  0.1594 -0.3863 -0.4214
15916TIP3    H169239   3.644   4.941   1.412  0.4555 -0.2712 -2.6205
15916TIP3    H269240   3.648   5.092   1.421  0.0391 -0.4111  0.3991
15917TIP3   OH269241   2.776   6.645  17.169  0.3860 -1.0455  0.2702
15917TIP3    H169242   2.871   6.658  17.176  0.2390 -0.0507  0.4675
15917TIP3    H269243   2.745   6.649  17.259  0.0889 -0.8384  0.1578
15918TIP3   OH269244   2.574   4.560   6.579 -0.1197  0.2341  0.3385
15918TIP3    H169245   2.525   4.480   6.560 -0.0469  0.0753  0.8026
15918TIP3    H269246   2.666   4.534   6.573 -0.0968  0.1375  1.0763
15919TIP3   OH269247   4.925   2.748  16.760  0.1352  0.1055  0.4636
15919TIP3    H169248   4.892   2.659  16.750 -0.3366  0.4958 -1.6370
15919TIP3    H269249   4.881   2.781  16.838  0.1962 -1.4233  1.1767
15920TIP3   OH269250   1.118   6.559  12.112  0.3267 -0.7740  0.5381
15920TIP3    H169251   1.133   6.477  12.065  0.7488 -1.3120  1.5908
15920TIP3    H269252   1.194   6.568  12.170 -0.3644 -0.3212  1.3892
15921TIP3   OH269253   5.291   5.968  17.154  0.5114 -0.3498  0.2596
15921TIP3    H169254   5.211   5.935  17.196 -0.8129  1.6314 -0.6122
15921TIP3    H269255   5.292   5.926  17.068  1.5805 -2.0332  1.0734
15922TIP3   OH269256   4.943   5.482  10.589 -0.1156 -0.5124 -0.1849
15922TIP3    H169257   4.922   5.567  10.627  0.3055  1.1416 -3.4831
15922TIP3    H269258   5.032   5.464  10.620  0.1337  0.6753 -0.1754
15923TIP3   OH269259   2.467   6.309  12.625 -0.8187  0.0317 -0.6417
15923TIP3    H169260   2.388   6.355  12.652 -0.7425 -0.2658  0.1041
15923TIP3    H269261   2.503   6.363  12.555 -0.1922  1.6851  0.8978
15924TIP3   OH269262   5.943   0.631   5.567 -0.7454  0.2597 -0.3054
15924TIP3    H169263   6.006   0.574   5.611 -2.5289 -1.5246  0.0506
15924TIP3    H269264   5.959   0.617   5.474 -3.1911 -3.3594 -0.3104
15925TIP3   OH269265   3.284   1.597   2.795 -0.9313 -0.4766  0.6473
15925TIP3    H169266   3.257   1.532   2.859  0.7043 -1.8979 -0.0673
15925TIP3    H269267   3.269   1.681   2.838 -1.3470 -1.3682  2.2731
15926TIP3   OH269268   0.854   4.548   3.305  0.5821 -0.2102  0.4549
15926TIP3    H169269   0.914   4.604   3.256 -0.3350 -1.1051 -1.7428
15926TIP3    H269270   0.891   4.461   3.299  0.2998 -0.3756  1.1018
15927TIP3   OH269271   6.756   0.345   2.981  0.3827 -0.1419 -0.0744
15927TIP3    H169272   6.735   0.372   3.070 -0.8952 -1.5144  0.0575
15927TIP3    H269273   6.845   0.377   2.967  0.4469  0.4372  1.5487
15928TIP3   OH269274   6.119   5.461   4.056 -0.0999  0.0841  0.1847
15928TIP3    H169275   6.152   5.412   3.981  2.0251 -0.8736  1.7085
15928TIP3    H269276   6.047   5.406   4.090 -0.5199  0.1178 -0.6297
15929TIP3   OH269277   1.723   2.102  14.287  0.4637  0.5595 -0.2558
15929TIP3    H169278   1.762   2.019  14.311 -0.2105  0.1185 -0.6501
15929TIP3    H269279   1.641   2.106  14.337  0.0594  0.5692 -0.9042
15930TIP3   OH269280   0.210   2.938   4.871  0.3224  0.1236 -0.0708
15930TIP3    H169281   0.132   2.905   4.916  0.0207  0.1593 -0.5708
15930TIP3    H269282   0.224   2.876   4.800  0.7426  0.1275  0.0098
15931TIP3   OH269283   4.640   6.632  10.622 -0.1515 -0.3621  0.0202
15931TIP3    H169284   4.568   6.653  10.682  0.6938 -2.3867  1.8029
15931TIP3    H269285   4.597   6.595  10.545 -1.0437 -1.4246  1.0104
15932TIP3   OH269286   6.782   5.645  11.821  0.0083  0.1842 -0.6394
15932TIP3    H169287   6.792   5.572  11.882  0.3282  1.7662  1.2567
15932TIP3    H269288   6.691   5.673  11.832 -0.2409 -0.2017 -1.6899
15933TIP3   OH269289   5.097   2.454   4.011  0.2722  0.0389  0.4257
15933TIP3    H169290   5.164   2.415   3.956 -1.0010 -1.0754 -0.3573
15933TIP3    H269291   5.059   2.524   3.957  0.5537  0.4345  0.7357
15934TIP3   OH269292   1.320   0.190   5.729  0.5083 -0.2688 -0.4414
15934TIP3    H169293   1.246   0.192   5.790  0.2776  0.3165 -0.7351
15934TIP3    H269294   1.376   0.262   5.756  1.1063 -0.8601 -0.0682
15935TIP3   OH269295   0.476   4.495   1.104  0.6936  0.5813  0.1714
15935TIP3    H169296   0.518   4.450   1.176  1.1992 -0.1470 -0.5752
15935TIP3    H269297   0.532   4.477   1.028 -1.2766 -0.9418 -0.9659
15936TIP3   OH269298   0.558   3.094   3.590  1.0873 -0.1905  0.2563
15936TIP3    H169299   0.617   3.054   3.654  0.7580 -0.5619  0.3362
15936TIP3    H269300   0.560   3.034   3.516  2.1210  0.6790 -0.4256
15937TIP3   OH269301   6.260   0.931  14.536  0.1738 -0.0025  0.8863
15937TIP3    H169302   6.338   0.952  14.588  0.6101 -0.4096  0.4115
15937TIP3    H269303   6.294   0.921  14.447 -0.4647  0.0378  0.6403
15938TIP3   OH269304   5.932   2.841  15.189 -0.0705  0.1319 -0.6752
15938TIP3    H169305   5.850   2.792  15.192  0.8053 -1.3235  0.4579
15938TIP3    H269306   5.966   2.826  15.100 -0.4731 -0.2080 -0.7720
15939TIP3   OH269307   5.182   5.966  12.958  0.2729 -0.1057 -0.5284
15939TIP3    H169308   5.127   5.983  13.034  0.9633 -0.3292  0.0304
15939TIP3    H269309   5.213   5.876  12.970 -1.1891 -0.8563 -2.0749
15940TIP3   OH269310   0.286   5.006   2.826  0.1505  0.0417  0.2135
15940TIP3    H169311   0.275   4.948   2.901 -4.7787  0.4436 -0.0038
15940TIP3    H269312   0.223   5.077   2.840 -0.4572  0.4864 -3.9090
15941TIP3   OH269313   3.335   4.400   1.705  0.0346 -0.1256 -0.8972
15941TIP3    H169314   3.400   4.360   1.648  0.8610 -0.4339  0.2464
15941TIP3    H269315   3.310   4.330   1.765  2.4686  1.4211  1.9928
15942TIP3   OH269316   3.648   6.731  16.015 -0.0374  0.2404 -0.3116
15942TIP3    H169317   3.739   6.714  15.989 -0.5105 -0.5155 -1.5617
15942TIP3    H269318   3.632   6.670  16.087  0.5541  0.6225  0.1465
15943TIP3   OH269319   0.675   1.270  13.200  0.2467  0.1733  0.1925
15943TIP3    H169320   0.593   1.255  13.153  0.7275  0.0674 -0.6137
15943TIP3    H269321   0.692   1.364  13.191 -0.0766  0.3019  0.8495
15944TIP3   OH269322   5.784   2.464  16.393  0.4897  0.8353  0.0682
15944TIP3    H169323   5.787   2.377  16.351  1.1182  1.2547 -0.7875
15944TIP3    H269324   5.741   2.449  16.477 -2.4033  0.2806 -1.4758
15945TIP3   OH269325   3.315   0.140   3.046  0.3398  0.5264  1.1342
15945TIP3    H169326   3.252   0.200   3.005 -0.4796 -0.7300  0.5185
15945TIP3    H269327   3.296   0.147   3.139  0.9390  1.9830  1.1658
15946TIP3   OH269328   0.548   2.783  16.472 -0.1293  0.0413  0.0035
15946TIP3    H169329   0.600   2.860  16.493 -0.0968 -0.0671  0.3214
15946TIP3    H269330   0.490   2.772  16.548  1.5322 -1.6733  1.0543
15947TIP3   OH269331   5.677   1.385   2.621  0.4904  0.1696  0.4089
15947TIP3    H169332   5.611   1.450   2.596  1.1337  0.6521 -0.0434
15947TIP3    H269333   5.672   1.319   2.553  1.0886  0.6488 -0.0976
15948TIP3   OH269334   5.257   0.237   0.376  0.0984 -0.6694  0.1372
15948TIP3    H169335   5.351   0.233   0.360  0.1750  0.0829  0.4067
15948TIP3    H269336   5.220   0.264   0.292  0.2794  0.7743  0.5171
15949TIP3   OH269337   1.403   2.032  11.849  0.1940 -0.9050 -0.2918
15949TIP3    H169338   1.351   1.978  11.908  0.2565  0.5111  1.0972
15949TIP3    H269339   1.477   2.061  11.902  0.1404  0.5665 -1.0053
15950TIP3   OH269340   6.646   0.868  13.777 -0.3504  0.1996 -0.2890
15950TIP3    H169341   6.684   0.785  13.806  1.4782  1.0560 -0.1405
15950TIP3    H269342   6.583   0.891  13.846  0.5613 -0.0980  0.6557
15951TIP3   OH269343   5.633   3.063   1.716  0.0452 -0.4477 -0.0869
15951TIP3    H169344   5.719   3.034   1.684  0.2759  0.7810 -0.5929
15951TIP3    H269345   5.578   3.065   1.638  0.1578  0.9228 -0.1425
15952TIP3   OH269346   4.147   1.351  14.696 -0.3066 -0.0329 -0.5575
15952TIP3    H169347   4.209   1.373  14.766  1.3437 -1.4437 -1.5315
15952TIP3    H269348   4.190   1.380  14.615 -1.4483  0.0547 -1.1460
15953TIP3   OH269349   4.610   4.525   1.820 -0.9393  0.0796  0.0388
15953TIP3    H169350   4.664   4.535   1.742 -0.4515 -0.2424  0.3259
15953TIP3    H269351   4.520   4.525   1.788 -0.7217 -0.5773 -0.5766
15954TIP3   OH269352   5.098   1.495   5.107  0.5222 -0.0135  0.6071
15954TIP3    H169353   5.176   1.483   5.161 -0.3625  0.8076  2.1175
15954TIP3    H269354   5.026   1.497   5.170 -0.9999 -3.1350 -0.9295
15955TIP3   OH269355   1.256   2.229   5.468 -0.6749 -0.2421  0.1076
15955TIP3    H169356   1.212   2.144   5.474 -1.4118  0.2707  2.5230
15955TIP3    H269357   1.244   2.256   5.377 -1.7892 -2.0101 -0.2884
15956TIP3   OH269358   4.933   5.389   1.440  0.5215  0.1824  0.6275
15956TIP3    H169359   4.890   5.331   1.378 -1.5777 -0.3424  2.5111
15956TIP3    H269360   4.982   5.451   1.386 -0.7629 -0.6288 -1.5028
15957TIP3   OH269361   3.272   5.744   4.044 -0.5962 -0.4106  0.6506
15957TIP3    H169362   3.352   5.708   4.084 -1.5486  0.3181  3.3220
15957TIP3    H269363   3.243   5.675   3.985  0.6244 -1.7509  1.5599
15958TIP3   OH269364   5.970   6.502  12.055  0.2736  0.0637  0.1561
15958TIP3    H169365   5.907   6.474  11.988  2.2995  0.9307 -2.1963
15958TIP3    H269366   6.042   6.541  12.005  1.9580  0.5292  2.8585
15959TIP3   OH269367   3.778   0.116  12.891 -1.0961 -0.2957  0.0296
15959TIP3    H169368   3.853   0.151  12.844 -1.4599 -2.1002 -1.9949
15959TIP3    H269369   3.772   0.169  12.970  0.5984  1.7014 -1.1234
15960TIP3   OH269370   2.761   1.567   3.387  0.1521 -0.2382  0.2443
15960TIP3    H169371   2.720   1.514   3.319  0.3812  1.4617 -1.2471
15960TIP3    H269372   2.822   1.624   3.340  1.8263 -0.4482  2.0813
15961TIP3   OH269373   6.018   5.451  11.200 -0.3778 -0.4641 -0.0656
15961TIP3    H169374   5.995   5.531  11.151  0.7528 -0.0299  0.0949
15961TIP3    H269375   6.038   5.387  11.133 -2.6443 -1.0462 -0.2230
15962TIP3   OH269376   0.287   5.566   3.916  0.0078 -0.4853  0.0542
15962TIP3    H169377   0.277   5.631   3.986 -0.0276 -0.0118 -0.3886
15962TIP3    H269378   0.212   5.582   3.858  0.9735  0.2441 -0.9997
15963TIP3   OH269379   2.453   2.542   3.501  0.2252  0.3484 -0.3563
15963TIP3    H169380   2.500   2.619   3.533  0.7183 -0.6652  1.3865
15963TIP3    H269381   2.388   2.524   3.568 -1.3529  0.5465 -1.8133
15964TIP3   OH269382   2.973   1.697  17.004 -0.1917  0.0546  0.2915
15964TIP3    H169383   2.892   1.684  16.955  0.9803  0.4495 -1.8026
15964TIP3    H269384   3.012   1.610  17.011 -0.9627 -0.1980  1.6414
15965TIP3   OH269385   2.157   5.679   4.899 -0.5195 -0.2103  0.2563
15965TIP3    H169386   2.179   5.592   4.931  1.1002  0.6333  1.5059
15965TIP3    H269387   2.123   5.725   4.975  0.5708  0.8852  0.0909
15966TIP3   OH269388   4.592   4.973   6.007 -0.0846 -0.0288 -0.3234
15966TIP3    H169389   4.570   5.024   5.928  0.6537  0.4356 -0.2293
15966TIP3    H269390   4.581   4.882   5.980 -0.8470  0.1550 -0.6637
15967TIP3   OH269391   5.638   3.148   1.245 -0.3778  0.3817  0.3294
15967TIP3    H169392   5.547   3.176   1.254 -1.0710 -1.9542  1.1380
15967TIP3    H269393   5.638   3.094   1.166 -0.2182 -1.4648  1.5529
15968TIP3   OH269394   6.052   4.203   5.339 -0.3587 -0.4317  0.0018
15968TIP3    H169395   5.991   4.155   5.283  0.4122  0.0568 -1.2661
15968TIP3    H269396   6.010   4.288   5.352  0.0772 -0.0716 -0.9258
15969TIP3   OH269397   5.383   1.760   3.859  0.2843 -0.4451 -0.3507
15969TIP3    H169398   5.436   1.681   3.852  1.9621  0.4483  1.6457
15969TIP3    H269399   5.356   1.763   3.951 -1.7777  0.0467 -0.9522
15970TIP3   OH269400   0.982   3.733  11.742  0.0765  0.4127 -0.2581
15970TIP3    H169401   0.965   3.652  11.791  0.7914  0.1909 -0.3746
15970TIP3    H269402   0.899   3.781  11.746 -0.1230  0.0189  0.4615
15971TIP3   OH269403   1.832   2.014  16.702 -0.3696  0.1359  0.6156
15971TIP3    H169404   1.738   2.006  16.688  0.0344  0.8824 -3.2290
15971TIP3    H269405   1.844   2.105  16.730 -0.6005  0.9333 -1.7084
15972TIP3   OH269406   1.397   5.928  16.655  0.4149  0.2728 -0.5107
15972TIP3    H169407   1.318   5.879  16.677 -1.4152  2.3515 -2.1027
15972TIP3    H269408   1.414   5.982  16.733 -0.3507  0.5434 -0.5212
15973TIP3   OH269409   2.822   4.389  12.814  0.3776 -0.2166  0.2868
15973TIP3    H169410   2.878   4.380  12.891  1.3251 -0.3206 -0.4033
15973TIP3    H269411   2.833   4.479  12.786 -0.7767  0.1169  0.8742
15974TIP3   OH269412   0.328   5.010   2.098  0.4180 -0.2728  0.1325
15974TIP3    H169413   0.262   5.080   2.105  1.2046  0.7649 -2.2662
15974TIP3    H269414   0.277   4.929   2.098 -0.8528  0.4954 -1.2562
15975TIP3   OH269415   4.609   2.193  14.094  0.3644  0.3278 -0.3601
15975TIP3    H169416   4.698   2.223  14.113  0.9149 -1.7397  0.5254
15975TIP3    H269417   4.559   2.214  14.173  0.5648 -0.3384 -0.0503
15976TIP3   OH269418   0.679   0.542  12.952  0.2017 -0.4404 -0.3285
15976TIP3    H169419   0.734   0.609  12.993 -0.0899  0.6794 -1.7478
15976TIP3    H269420   0.728   0.515  12.874 -0.3945 -0.7825 -0.5872
15977TIP3   OH269421   4.930   1.212   3.875 -1.1182  0.1286 -0.1286
15977TIP3    H169422   4.847   1.205   3.827 -0.9853  1.7741 -0.6452
15977TIP3    H269423   4.997   1.202   3.807 -0.9123  0.9087 -0.0395
15978TIP3   OH269424   4.381   1.819  11.244 -0.1049 -0.1191 -0.2038
15978TIP3    H169425   4.362   1.866  11.163  0.5824 -1.0446 -0.9031
15978TIP3    H269426   4.448   1.756  11.221 -0.1853 -0.6684  1.0000
15979TIP3   OH269427   5.310   5.220   3.044  0.2346  0.2591  0.2338
15979TIP3    H169428   5.357   5.218   2.960  0.1763  2.1114  0.1276
15979TIP3    H269429   5.377   5.245   3.108 -0.1297  0.7955  0.4127
15980TIP3   OH269430   1.517   3.097   3.200 -0.3850 -0.6101  0.5926
15980TIP3    H169431   1.517   3.125   3.109  0.7565 -0.6486  0.5734
15980TIP3    H269432   1.543   3.175   3.250  0.2277 -0.9208  0.7680
15981TIP3   OH269433   3.126   2.961  14.852 -0.0820  0.2446 -0.4585
15981TIP3    H169434   3.157   2.993  14.937 -1.6572  0.9414 -0.1175
15981TIP3    H269435   3.138   3.036  14.793 -0.2075  0.2020 -0.5392
15982TIP3   OH269436   0.581   4.859   2.394 -0.0107 -0.4230 -0.2634
15982TIP3    H169437   0.586   4.936   2.337  0.0302 -0.4584 -0.3071
15982TIP3    H269438   0.511   4.880   2.455  0.4321 -0.0774  0.1304
15983TIP3   OH269439   2.032   2.662   0.680 -0.1787 -0.2086  0.1342
15983TIP3    H169440   2.009   2.739   0.627 -0.2858 -0.8930 -0.8190
15983TIP3    H269441   1.967   2.662   0.751  0.0590  0.7962  0.3649
15984TIP3   OH269442   1.678   2.517  16.449  1.0396 -0.5572 -0.3281
15984TIP3    H169443   1.714   2.585  16.393  0.5226 -0.7763 -0.9214
15984TIP3    H269444   1.711   2.435  16.412  0.7500 -0.6985 -0.2776
15985TIP3   OH269445   0.377   1.212  11.676  0.0151 -0.1411 -0.3560
15985TIP3    H169446   0.405   1.298  11.709 -1.5472 -0.7552  2.7591
15985TIP3    H269447   0.282   1.213  11.683 -0.1086 -1.6564 -1.5367
15986TIP3   OH269448   3.481   5.547  16.089 -0.4341  0.2263 -0.6485
15986TIP3    H169449   3.411   5.534  16.153 -0.3334  1.1667 -0.3323
15986TIP3    H269450   3.452   5.501  16.011 -0.6800 -0.7193 -0.0053
15987TIP3   OH269451   0.613   4.495   0.123  0.5294  0.5293  0.9829
15987TIP3    H169452   0.532   4.471   0.078 -0.3078  1.5914  1.9097
15987TIP3    H269453   0.680   4.492   0.054 -0.6423  1.6026 -0.2486
15988TIP3   OH269454   0.895   0.244  12.299 -0.0908  0.3037  0.1798
15988TIP3    H169455   0.967   0.200  12.344 -0.4279 -0.2692  0.1654
15988TIP3    H269456   0.870   0.183  12.229  0.4416  1.1960 -0.7866
15989TIP3   OH269457   1.764   5.933  12.235  0.1465  0.2133  0.1825
15989TIP3    H169458   1.670   5.925  12.250  0.1868 -0.0988  0.2902
15989TIP3    H269459   1.776   5.911  12.143 -0.0737  1.8840 -0.2471
15990TIP3   OH269460   5.275   5.321  14.389 -0.4993 -0.0229 -0.3635
15990TIP3    H169461   5.233   5.268  14.321 -0.3013 -0.2410 -0.3165
15990TIP3    H269462   5.320   5.390  14.341 -1.9847  0.9778 -0.3408
15991TIP3   OH269463   2.572   3.809   0.634 -0.1802 -0.2811 -0.8659
15991TIP3    H169464   2.547   3.717   0.633  1.8935 -1.0342  3.3448
15991TIP3    H269465   2.667   3.808   0.626  0.0428  1.2969  1.1007
15992TIP3   OH269466   1.686   3.338   4.054 -0.5077 -0.2549 -0.4077
15992TIP3    H169467   1.731   3.411   4.095 -2.7991  0.9534  0.0067
15992TIP3    H269468   1.687   3.359   3.961 -0.4953 -0.0859 -0.3692
15993TIP3   OH269469   3.350   1.538  14.103 -0.5554 -0.2134 -0.0507
15993TIP3    H169470   3.262   1.504  14.119 -1.2925  1.4684 -0.3836
15993TIP3    H269471   3.338   1.633  14.097  1.2667  0.0223 -0.2182
15994TIP3   OH269472   6.345   0.049  12.838 -1.0249 -0.0810  0.3489
15994TIP3    H169473   6.413  -0.016  12.853  0.0548  1.0773  0.5308
15994TIP3    H269474   6.320   0.036  12.746 -1.6132 -1.4860  0.6955
15995TIP3   OH269475   2.372   4.513   5.431  0.6744  0.1499 -0.3511
15995TIP3    H169476   2.442   4.572   5.405 -1.3480  2.3967 -0.8380
15995TIP3    H269477   2.353   4.463   5.352  0.6958  0.6177 -0.6538
15996TIP3   OH269478   1.094   0.745   4.162  0.2343  0.2541 -0.1191
15996TIP3    H169479   1.061   0.669   4.114 -2.7647 -0.1050  2.2974
15996TIP3    H269480   1.162   0.710   4.219  1.2814  0.0388 -1.4865
15997TIP3   OH269481   4.355   0.687  16.408  0.2403  0.3039 -0.4565
15997TIP3    H169482   4.301   0.766  16.417 -2.9351 -1.8283  0.0437
15997TIP3    H269483   4.445   0.719  16.407 -0.9984  3.9757 -0.8565
15998TIP3   OH269484   5.654   1.026   3.980 -0.0889 -0.4588 -0.1991
15998TIP3    H169485   5.684   1.001   4.067  1.9295 -0.4098 -0.8492
15998TIP3    H269486   5.657   0.945   3.929 -2.2496 -0.7013  0.0154
15999TIP3   OH269487   5.673   1.015   1.992 -0.3067 -1.1034  0.4200
15999TIP3    H169488   5.752   0.992   1.943  0.2524  0.1766  0.6966
15999TIP3    H269489   5.675   0.957   2.068  0.3717 -1.0624  0.4347
16000TIP3   OH269490   6.247   4.934   6.187  0.1019 -0.4317 -0.1173
16000TIP3    H169491   6.216   4.844   6.186 -0.1946 -0.3953  1.9659
16000TIP3    H269492   6.196   4.976   6.257  2.1093  0.6393  0.7586
16001TIP3   OH269493   1.405   2.117  12.616 -0.4322 -0.0618  0.3986
16001TIP3    H169494   1.407   2.122  12.712  1.0409  0.8857  0.3396
16001TIP3    H269495   1.357   2.196  12.589 -1.3827 -0.6425  0.3654
16002TIP3   OH269496   2.021   3.979   4.392 -0.5963 -0.4085  0.0118
16002TIP3    H169497   1.947   3.988   4.332 -1.1987  1.6003  1.0162
16002TIP3    H269498   2.089   4.035   4.356 -0.4073 -0.4017  0.3696
16003TIP3   OH269499   1.710   6.404  12.845 -0.6469 -0.4380  0.2240
16003TIP3    H169500   1.791   6.377  12.890 -0.4337 -1.8489 -0.9474
16003TIP3    H269501   1.733   6.486  12.801  0.3761 -1.1964 -0.6829
16004TIP3   OH269502   1.981   6.735  13.216  0.3704  0.0374 -0.2415
16004TIP3    H169503   1.979   6.758  13.309  1.2682 -2.9082  0.5470
16004TIP3    H269504   1.889   6.728  13.191  0.1227  1.0296  0.3769
16005TIP3   OH269505   4.901   6.486   4.923  0.5907 -0.5344  0.9843
16005TIP3    H169506   4.918   6.415   4.861 -0.5051  0.5747 -0.6396
16005TIP3    H269507   4.861   6.443   4.998  0.7905 -1.7566  0.4089
16006TIP3   OH269508   6.044   6.703   3.547 -0.0983  0.3665  0.5767
16006TIP3    H169509   6.014   6.669   3.631 -0.7663 -0.2617  0.0867
16006TIP3    H269510   5.969   6.692   3.489  0.1788  1.3087  0.0357
16007TIP3   OH269511   4.614   4.620   2.752  0.1363 -0.7537 -0.5414
16007TIP3    H169512   4.601   4.609   2.846  2.9751 -1.4487 -0.1749
16007TIP3    H269513   4.529   4.647   2.718 -1.0387 -0.9889  2.1514
16008TIP3   OH269514   1.726   4.648   1.883  0.0819  0.4476 -0.5716
16008TIP3    H169515   1.719   4.567   1.832 -0.5347  0.0848  0.0778
16008TIP3    H269516   1.713   4.620   1.974  0.9312  1.1223 -0.2419
16009TIP3   OH269517   0.938   2.127  14.295 -0.1894 -0.3503 -0.1333
16009TIP3    H169518   0.883   2.133  14.373  0.4827  1.3003  0.2289
16009TIP3    H269519   0.883   2.162  14.224 -0.6262 -1.4022 -0.3266
16010TIP3   OH269520   1.963   3.813   0.648  0.0081  0.0257  0.3374
16010TIP3    H169521   1.885   3.802   0.593  1.0564 -0.2704 -1.0996
16010TIP3    H269522   1.932   3.863   0.723 -1.4329  0.4921 -0.5517
16011TIP3   OH269523   5.239   1.903   5.596  0.9422 -0.6533  0.0468
16011TIP3    H169524   5.300   1.925   5.666  0.2869 -1.1818  0.7968
16011TIP3    H269525   5.261   1.813   5.572  2.1204  0.0131 -1.4421
16012TIP3   OH269526   6.148   2.968  11.500 -0.2920  0.3514  0.3451
16012TIP3    H169527   6.073   2.925  11.542 -2.1481  3.2364  0.1441
16012TIP3    H269528   6.169   3.040  11.560  1.5141  0.3274 -0.2570
16013TIP3   OH269529   0.868   4.373  10.820  0.2811  0.3392 -0.0413
16013TIP3    H169530   0.831   4.386  10.733  0.6115 -1.2039 -0.4225
16013TIP3    H269531   0.874   4.278  10.830  0.2722  0.5022  1.6523
16014TIP3   OH269532   1.718   6.100   4.564  0.0655  0.6577 -0.8189
16014TIP3    H169533   1.680   6.127   4.480 -0.9129 -0.2041 -0.6633
16014TIP3    H269534   1.739   6.182   4.608 -1.5546  1.1604 -0.9451
16015TIP3   OH269535   3.390   0.882   2.448 -0.2426 -0.4120  0.5284
16015TIP3    H169536   3.474   0.856   2.411  0.8233  1.3717  1.6079
16015TIP3    H269537   3.336   0.804   2.443  1.1955 -1.3463 -0.9774
16016TIP3   OH269538   3.050   0.356  14.914  0.0789  0.5339  0.3190
16016TIP3    H169539   3.064   0.451  14.913  1.1843  0.4144  2.6163
16016TIP3    H269540   3.136   0.320  14.936 -0.2183 -1.0483 -1.0547
16017TIP3   OH269541   0.118   5.413   3.638 -0.6354  0.7914  0.6192
16017TIP3    H169542   0.068   5.462   3.703  1.3593  1.6504  1.5634
16017TIP3    H269543   0.106   5.321   3.664 -0.3616  1.0900  1.8743
16018TIP3   OH269544   6.008   4.649   0.351  0.6084 -0.2399 -0.7903
16018TIP3    H169545   5.983   4.740   0.361 -1.9252 -1.0175  0.2476
16018TIP3    H269546   6.102   4.647   0.371  0.0788  1.6633  2.1091
16019TIP3   OH269547   2.904   6.526   0.615 -0.2252  0.3553 -0.1302
16019TIP3    H169548   2.942   6.441   0.635  1.2874  0.8892 -0.6338
16019TIP3    H269549   2.847   6.545   0.690 -0.1021 -0.8161  0.2728
16020TIP3   OH269550   4.827   6.630   3.017  0.3906  0.0459 -0.1149
16020TIP3    H169551   4.902   6.601   3.069 -2.5189 -3.0283  2.6795
16020TIP3    H269552   4.799   6.711   3.059  1.4906  0.6219 -0.4876
16021TIP3   OH269553   3.117   1.941  15.109 -0.2590 -0.1701  0.3342
16021TIP3    H169554   3.121   1.849  15.084 -0.6408  0.2831 -1.4487
16021TIP3    H269555   3.179   1.985  15.052  0.2688  0.6250  1.4923
16022TIP3   OH269556   1.431   2.710  12.341 -0.3026 -0.1759 -0.5461
16022TIP3    H169557   1.409   2.647  12.410 -1.9556  0.4699 -0.4679
16022TIP3    H269558   1.360   2.702  12.277  0.8897 -0.3132 -1.8645
16023TIP3   OH269559   3.690   5.931  17.129 -0.1769  0.5448 -0.4176
16023TIP3    H169560   3.759   5.980  17.173 -0.6474  1.1264 -0.3325
16023TIP3    H269561   3.620   5.994  17.114 -0.7374 -0.0607 -0.4175
16024TIP3   OH269562   1.912   6.354   3.146 -0.4523 -0.1700  0.0377
16024TIP3    H169563   1.894   6.346   3.052 -2.4229  0.9999  0.2818
16024TIP3    H269564   1.826   6.351   3.187  0.2255  1.3230  1.6456
16025TIP3   OH269565   1.657   3.347   2.423  0.8044 -0.0528 -0.1666
16025TIP3    H169566   1.658   3.439   2.449  1.8634 -0.5562  1.6842
16025TIP3    H269567   1.730   3.308   2.471  1.2162 -1.5880 -1.9628
16026TIP3   OH269568   0.009   2.390  14.150 -0.2015 -0.3097  0.1282
16026TIP3    H169569  -0.077   2.422  14.125 -0.4193  0.0472  1.2886
16026TIP3    H269570  -0.009   2.325  14.218  0.4064 -0.7471 -0.1238
16027TIP3   OH269571   3.667   1.440  16.495 -0.4781  0.6639 -0.3007
16027TIP3    H169572   3.723   1.508  16.533 -0.3341  0.0407  0.6178
16027TIP3    H269573   3.619   1.403  16.569 -0.2477 -0.5272 -0.7266
16028TIP3   OH269574   3.842   6.776   5.781  0.0155 -0.0583  0.0655
16028TIP3    H169575   3.794   6.857   5.764  1.1233  0.5729 -0.1682
16028TIP3    H269576   3.860   6.779   5.876  0.4424  0.2000 -0.0202
16029TIP3   OH269577   6.605   0.840   2.094  0.0208  0.4033 -0.2272
16029TIP3    H169578   6.550   0.860   2.019 -1.6694 -0.5671  0.7213
16029TIP3    H269579   6.675   0.785   2.059 -0.4119  0.4651 -1.1888
16030TIP3   OH269580   0.556   2.755  15.671  0.2649 -0.6699  0.5970
16030TIP3    H169581   0.524   2.761  15.761  0.3050  0.2873  0.5546
16030TIP3    H269582   0.488   2.798  15.619  0.3028 -1.1069  0.1910
16031TIP3   OH269583   4.196   4.473   0.056 -1.2732  0.4060  0.4332
16031TIP3    H169584   4.156   4.418  -0.012  0.9082  1.3958 -1.7486
16031TIP3    H269585   4.131   4.541   0.073 -1.9400  0.0197 -0.5187
16032TIP3   OH269586   5.015   3.595  11.624  0.1153  0.1363 -0.7286
16032TIP3    H169587   4.986   3.622  11.537  1.5080 -1.0309 -1.5840
16032TIP3    H269588   4.978   3.660  11.683 -0.4401  1.2265 -2.2413
16033TIP3   OH269589   3.929   6.405  13.127 -0.0561  0.7110  0.0300
16033TIP3    H169590   3.971   6.419  13.042  1.2720  0.8452  0.6851
16033TIP3    H269591   3.856   6.346  13.109 -0.3220  1.4499 -1.3371
16034TIP3   OH269592   2.076   1.542   1.742  0.1730 -0.3297  0.4486
16034TIP3    H169593   2.075   1.580   1.830 -0.2476 -0.5208  0.5277
16034TIP3    H269594   1.985   1.514   1.727  0.7046 -2.2905  0.8220
16035TIP3   OH269595   4.744   3.065   4.970  0.1385 -0.4892  0.0450
16035TIP3    H169596   4.710   3.043   5.057  0.2023  0.8413  0.4266
16035TIP3    H269597   4.674   3.042   4.910 -0.9191  0.9461  0.6972
16036TIP3   OH269598   1.537   3.779   0.713  0.4908 -0.4519 -0.3533
16036TIP3    H169599   1.481   3.704   0.731 -0.6596  0.0423 -1.7089
16036TIP3    H269600   1.572   3.762   0.625  0.0286  0.6930 -0.7667
16037TIP3   OH269601   3.750   3.791   2.119 -0.5079  0.1636  0.0125
16037TIP3    H169602   3.787   3.839   2.045  0.8646  0.1268  0.6521
16037TIP3    H269603   3.660   3.772   2.094  0.0541 -0.1752 -1.8071
16038TIP3   OH269604   1.246   2.527   1.119  0.3565  0.2178  0.1115
16038TIP3    H169605   1.152   2.513   1.106  0.2329  0.7536  0.4242
16038TIP3    H269606   1.285   2.501   1.035 -0.0486 -0.1809  0.0401
16039TIP3   OH269607   0.666   3.242  16.282 -0.1290 -0.1422 -0.8394
16039TIP3    H169608   0.637   3.321  16.236 -0.8048 -0.1588 -0.4457
16039TIP3    H269609   0.585   3.201  16.311  0.1999 -1.1870 -1.3794
16040TIP3   OH269610   6.726   1.699  12.467 -0.5926 -0.3306  0.1539
16040TIP3    H169611   6.669   1.658  12.402 -1.8003  0.2940  0.8037
16040TIP3    H269612   6.732   1.791  12.439 -0.5575 -0.2135  0.5449
16041TIP3   OH269613   4.832   6.746   4.094  0.2505 -0.0732  0.2413
16041TIP3    H169614   4.866   6.766   4.181 -3.0047 -0.6737  1.7144
16041TIP3    H269615   4.849   6.653   4.082 -1.1903 -0.4644  1.1476
16042TIP3   OH269616   2.998   4.636   5.049 -0.5176  0.2881 -0.0226
16042TIP3    H169617   3.020   4.604   5.137  1.0425  0.8527 -0.1939
16042TIP3    H269618   3.067   4.699   5.029 -1.2135  0.6111 -1.4113
16043TIP3   OH269619   4.240   3.117  13.195  0.4282  0.0627 -0.1429
16043TIP3    H169620   4.319   3.063  13.197  0.6615  0.4357  1.4680
16043TIP3    H269621   4.169   3.057  13.219  0.4475  0.0589 -0.0937
16044TIP3   OH269622   5.559   0.526   4.013 -0.1238 -0.0037  0.2075
16044TIP3    H169623   5.548   0.467   3.937  1.1316 -0.7329  0.5849
16044TIP3    H269624   5.630   0.488   4.063 -0.2414  1.0754  1.2178
16045TIP3   OH269625   3.191   6.034   3.827  0.4739  0.4683  0.3105
16045TIP3    H169626   3.110   6.049   3.778  0.5497 -1.8337 -0.5623
16045TIP3    H269627   3.166   6.043   3.919 -0.3909  1.4844 -0.0201
16046TIP3   OH269628   4.952   6.006  12.785  0.2949 -0.3429 -0.0219
16046TIP3    H169629   4.959   6.098  12.757 -0.4885 -0.1757  0.3260
16046TIP3    H269630   5.043   5.979  12.799  0.4212  1.0392  1.9683
16047TIP3   OH269631   0.082   0.711   1.724 -0.3405 -0.1477 -0.0594
16047TIP3    H169632  -0.013   0.707   1.714 -0.3170 -2.3763  0.2824
16047TIP3    H269633   0.115   0.722   1.635 -0.8995 -0.2848 -0.2891
16048TIP3   OH269634   2.361   4.692  11.456 -0.1620 -0.6653 -0.2412
16048TIP3    H169635   2.266   4.693  11.446 -0.2809 -1.0037  0.8351
16048TIP3    H269636   2.391   4.622  11.398 -0.4068  0.4561 -1.7824
16049TIP3   OH269637   6.736   0.224   3.955  0.2303  0.0264 -0.5682
16049TIP3    H169638   6.780   0.288   4.011 -0.6842 -0.3489  0.6051
16049TIP3    H269639   6.739   0.142   4.004 -3.5708  0.4544  0.5383
16050TIP3   OH269640   1.038   0.952   0.809  0.0823 -1.0361 -0.5457
16050TIP3    H169641   1.075   1.038   0.829 -0.7551 -0.5392 -1.0792
16050TIP3    H269642   0.947   0.958   0.838 -0.6249 -0.9384 -2.6743
16051TIP3   OH269643   6.133   2.615   0.099 -0.1428  0.0994 -0.1634
16051TIP3    H169644   6.206   2.673   0.123  2.5406 -2.9599 -0.6021
16051TIP3    H269645   6.130   2.618   0.004 -0.6875  0.2648 -0.1459
16052TIP3   OH269646   3.058   3.339   4.395 -0.3544  0.5465 -0.5103
16052TIP3    H169647   3.138   3.391   4.388  0.9261 -1.2059  0.7012
16052TIP3    H269648   3.084   3.251   4.368 -1.5834 -0.3137  1.0037
16053TIP3   OH269649   3.796   6.619  13.616 -0.2379  0.3959  0.5038
16053TIP3    H169650   3.865   6.663  13.566  0.3731 -1.2894 -0.1624
16053TIP3    H269651   3.824   6.626  13.707 -0.2385  1.5332  0.4237
16054TIP3   OH269652   3.849   4.722  11.762 -0.2399 -0.6150 -0.3027
16054TIP3    H169653   3.785   4.766  11.707  0.6625 -0.7428 -1.4827
16054TIP3    H269654   3.802   4.647  11.798 -1.4859  0.7341  0.9212
16055TIP3   OH269655   4.083   1.563  10.332  0.0603 -0.8944 -0.2250
16055TIP3    H169656   4.161   1.510  10.346  0.3867 -0.4854 -0.4777
16055TIP3    H269657   4.028   1.545  10.408  1.5028  0.7816  1.2517
16056TIP3   OH269658   5.736   1.248   4.945  0.4712 -0.2919 -0.1218
16056TIP3    H169659   5.720   1.300   4.867 -0.6069 -1.3721 -0.6483
16056TIP3    H269660   5.699   1.300   5.017 -0.4072 -0.2373 -0.6108
16057TIP3   OH269661   5.519   0.027  14.462 -0.3673 -0.2517 -0.5176
16057TIP3    H169662   5.533   0.118  14.435  0.1144 -0.3339 -0.5615
16057TIP3    H269663   5.455  -0.007  14.400  1.7756 -0.8605 -2.4639
16058TIP3   OH269664   5.954   6.107   2.113  0.0400  0.1831 -0.0549
16058TIP3    H169665   5.884   6.067   2.062  0.5029  0.0889 -0.6120
16058TIP3    H269666   5.914   6.187   2.148 -1.0491 -1.0006  1.4989
16059TIP3   OH269667   0.322   5.836   1.021  0.0502 -0.5787 -0.0650
16059TIP3    H169668   0.356   5.874   0.940 -1.5783 -0.3954 -0.6814
16059TIP3    H269669   0.375   5.758   1.035  1.2924  0.1755 -0.5303
16060TIP3   OH269670   1.687   4.895  10.770  0.2787 -0.1490 -0.4498
16060TIP3    H169671   1.664   4.805  10.794  0.6686 -0.5076 -1.3921
16060TIP3    H269672   1.607   4.945  10.783  0.4057 -0.3744  1.3537
16061TIP3   OH269673   0.046   2.070   0.684 -0.8572  0.0177 -0.1774
16061TIP3    H169674   0.015   2.111   0.765 -0.1099 -1.0260  0.6641
16061TIP3    H269675   0.138   2.050   0.701 -0.9648 -1.1609 -0.8909
16062TIP3   OH269676   1.849   4.307   0.584  0.3295  0.4039  0.1428
16062TIP3    H169677   1.932   4.354   0.592 -0.8291  2.4597  0.4926
16062TIP3    H269678   1.795   4.342   0.656 -0.9810 -0.5954 -0.3343
16063TIP3   OH269679   6.577   5.369  14.553  1.6176  0.2515 -0.8275
16063TIP3    H169680   6.663   5.369  14.596  1.7057  2.3096 -0.9487
16063TIP3    H269681   6.541   5.456  14.571 -0.0371 -0.2550 -1.5937
16064TIP3   OH269682   2.196   0.804  15.895 -0.2541  0.4607  0.5336
16064TIP3    H169683   2.279   0.763  15.871 -0.5921  0.5133 -0.7281
16064TIP3    H269684   2.221   0.882  15.945  0.4865  1.1339 -0.8755
16065TIP3   OH269685   0.079   3.289  16.066 -0.3911  0.1947 -0.2377
16065TIP3    H169686   0.128   3.372  16.066 -0.3645  0.1880 -1.5503
16065TIP3    H269687  -0.013   3.316  16.070 -0.4436  0.3411 -2.2387
16066TIP3   OH269688   2.519   6.437   2.479  0.5171  0.1436 -0.4040
16066TIP3    H169689   2.588   6.491   2.441  0.6011  0.4676  0.2179
16066TIP3    H269690   2.534   6.440   2.573 -1.9520  2.4350 -0.0186
16067TIP3   OH269691   0.033   6.662   2.613  0.5044 -0.1890 -0.8651
16067TIP3    H169692   0.121   6.633   2.587  0.5513  0.2779 -1.2411
16067TIP3    H269693   0.028   6.752   2.583 -0.0256 -0.1424 -0.6405
16068TIP3   OH269694   2.208   1.636   0.858  0.1482  0.8066 -0.0699
16068TIP3    H169695   2.288   1.608   0.902  0.7009  1.8514 -0.4118
16068TIP3    H269696   2.180   1.560   0.808  0.9887  0.4781 -0.0425
16069TIP3   OH269697   0.766   0.791  14.133 -0.2499  0.3250  0.1960
16069TIP3    H169698   0.778   0.734  14.057 -1.0427 -0.0014  0.3048
16069TIP3    H269699   0.681   0.833  14.118  0.6307  1.9770 -0.1911
16070TIP3   OH269700   4.445   5.234  13.401 -0.0066  0.1475  1.0728
16070TIP3    H169701   4.503   5.171  13.358  0.3022  1.2669 -0.1994
16070TIP3    H269702   4.505   5.297  13.442 -0.3066  0.1480  1.4997
16071TIP3   OH269703   1.280   0.687  13.178 -0.4266 -0.0265 -0.3362
16071TIP3    H169704   1.243   0.737  13.105  0.8069 -0.1615 -1.0696
16071TIP3    H269705   1.263   0.596  13.156  0.7963 -0.1226 -0.9582
16072TIP3   OH269706   4.285   2.011   2.003 -0.1789  0.3872 -0.6814
16072TIP3    H169707   4.284   1.972   2.090 -0.3626 -1.3708 -1.4450
16072TIP3    H269708   4.378   2.024   1.983 -0.1711  1.7107  0.1564
16073TIP3   OH269709   5.913   0.661   4.448 -0.0649  0.1327 -0.7161
16073TIP3    H169710   5.827   0.666   4.490  0.4497 -1.8311  0.6071
16073TIP3    H269711   5.910   0.582   4.395  1.2791 -0.5103  0.1514
16074TIP3   OH269712   3.239   3.462   3.449 -0.3165  0.2329  0.0874
16074TIP3    H169713   3.262   3.534   3.507  1.8347 -0.0483 -0.3690
16074TIP3    H269714   3.312   3.400   3.457 -1.6398 -1.4290 -0.2862
16075TIP3   OH269715   0.639   1.808   3.269  0.0520  0.0364  0.1147
16075TIP3    H169716   0.657   1.785   3.360  0.3621 -0.1760 -0.0000
16075TIP3    H269717   0.712   1.865   3.243 -0.7809  1.2772  0.4375
16076TIP3   OH269718   3.455   3.972  14.148 -0.5234 -0.5482 -0.0594
16076TIP3    H169719   3.446   3.998  14.240 -2.2364  0.9191 -0.6188
16076TIP3    H269720   3.519   4.033  14.112  2.6034 -3.1324  0.8827
16077TIP3   OH269721   6.092   6.196   1.516  0.1113  0.6980  0.1184
16077TIP3    H169722   6.146   6.232   1.587 -0.1215  1.7193 -0.2164
16077TIP3    H269723   6.155   6.167   1.451  0.3415 -0.5919  0.9030
16078TIP3   OH269724   0.574   1.290   5.624 -0.3131 -0.8210  0.0902
16078TIP3    H169725   0.554   1.202   5.657 -1.2791 -0.2995  0.9143
16078TIP3    H269726   0.492   1.338   5.634 -0.1547 -0.1824 -1.5485
16079TIP3   OH269727   3.748   1.388   2.060 -0.0044 -0.3425 -0.1739
16079TIP3    H169728   3.656   1.411   2.056  0.4274  2.0713  2.3628
16079TIP3    H269729   3.786   1.429   1.982 -0.6483  0.8574  0.1282
16080TIP3   OH269730   2.434   4.258   2.501 -0.4160 -0.2951  0.0101
16080TIP3    H169731   2.460   4.200   2.429 -0.1479 -0.7295  0.4555
16080TIP3    H269732   2.357   4.217   2.539 -0.8064  0.1507 -0.2822
16081TIP3   OH269733   3.887   6.806  11.781  0.3484 -0.3332 -0.2864
16081TIP3    H169734   3.811   6.864  11.768  0.6923  0.5139  1.3033
16081TIP3    H269735   3.853   6.734  11.834 -0.0324 -1.5125 -2.1031
16082TIP3   OH269736   2.733   5.172   1.036 -0.3921 -0.1387  0.4953
16082TIP3    H169737   2.782   5.135   0.963  1.1020  0.9792  0.9013
16082TIP3    H269738   2.765   5.262   1.043 -1.1892  0.0469  1.9478
16083TIP3   OH269739   1.876   4.788  16.576  0.1018 -0.0683  0.3781
16083TIP3    H169740   1.867   4.878  16.545 -1.3026 -0.1475  0.5210
16083TIP3    H269741   1.961   4.759  16.543  0.0848  0.9541 -0.5608
16084TIP3   OH269742   4.430   6.721  12.684 -0.4073  0.2463  0.6926
16084TIP3    H169743   4.423   6.627  12.667 -0.1914  0.0126  1.8554
16084TIP3    H269744   4.361   6.760  12.631  0.0901 -0.4744 -0.5047
16085TIP3   OH269745   5.724   4.428  15.949 -0.1919 -0.0146 -0.0594
16085TIP3    H169746   5.655   4.421  15.883  0.1232 -0.6341 -0.3289
16085TIP3    H269747   5.685   4.478  16.020 -0.7045  0.2023 -0.4953
16086TIP3   OH269748   2.808   6.391   5.553  0.1074  0.0214 -0.1555
16086TIP3    H169749   2.766   6.398   5.640  0.9455  1.3469  0.1555
16086TIP3    H269750   2.881   6.331   5.567 -0.3165 -0.5040 -0.1688
16087TIP3   OH269751   2.780   5.954   4.605 -0.4552  0.0381 -0.1014
16087TIP3    H169752   2.776   5.858   4.602  2.5779 -0.2944  3.3468
16087TIP3    H269753   2.710   5.979   4.666  0.1079 -0.1102  0.5971
16088TIP3   OH269754   0.950   1.194   1.197 -0.4753  0.1224 -0.1889
16088TIP3    H169755   1.032   1.242   1.181 -0.8920  0.9618  0.1194
16088TIP3    H269756   0.920   1.228   1.282 -1.7767  0.7413 -0.8852
16089TIP3   OH269757   6.692   6.306  15.854  0.4982 -0.3239  0.3701
16089TIP3    H169758   6.775   6.350  15.836  0.5627  0.1568  1.8310
16089TIP3    H269759   6.625   6.373  15.839  0.3325 -0.7661 -1.0079
16090TIP3   OH269760   2.647   3.331   5.116  0.0446 -0.2982 -0.4503
16090TIP3    H169761   2.728   3.343   5.166 -0.0788  0.1282 -0.3504
16090TIP3    H269762   2.621   3.420   5.091  0.2023 -0.5243 -1.4375
16091TIP3   OH269763   4.397   5.715  13.180  0.2094  0.4087 -0.0019
16091TIP3    H169764   4.466   5.655  13.211 -0.2546 -0.4243 -0.5538
16091TIP3    H269765   4.340   5.659  13.127 -0.2872  1.3354 -0.4387
16092TIP3   OH269766   0.198   2.993   6.218  0.6748  0.2203  0.3031
16092TIP3    H169767   0.290   2.989   6.244  0.4304  0.5704  1.2254
16092TIP3    H269768   0.150   2.959   6.293  0.1557 -1.6666 -0.8501
16093TIP3   OH269769   5.613   1.426   4.743  0.2262 -0.6300  0.2485
16093TIP3    H169770   5.553   1.368   4.698  0.0465  0.1425 -0.5068
16093TIP3    H269771   5.653   1.478   4.674  0.4490  0.0859  0.9094
16094TIP3   OH269772   3.935   4.992   1.725  0.4271 -0.3146 -0.2255
16094TIP3    H169773   4.017   5.032   1.752 -0.6306  0.7943  1.4705
16094TIP3    H269774   3.949   4.898   1.732  1.4316 -0.1202  0.3746
16095TIP3   OH269775   4.755   0.221   5.723  0.3511 -0.4428  0.6563
16095TIP3    H169776   4.703   0.259   5.651 -0.1543 -1.1867  0.6247
16095TIP3    H269777   4.845   0.243   5.701  0.1644 -0.2959  0.0085
16096TIP3   OH269778   0.612   2.803  14.917  1.0992 -0.4513  0.3742
16096TIP3    H169779   0.548   2.844  14.975  0.5774  0.3369 -0.7464
16096TIP3    H269780   0.603   2.709  14.934  0.9178 -0.2326  1.5177
16097TIP3   OH269781   1.443   4.927  15.378 -0.1059 -0.2630 -0.1759
16097TIP3    H169782   1.450   4.933  15.283 -1.6944  1.5167 -0.2165
16097TIP3    H269783   1.524   4.967  15.411 -0.4384  0.9651 -0.7874
16098TIP3   OH269784   2.082   3.820   1.912 -0.4944 -0.3914 -0.6122
16098TIP3    H169785   2.035   3.893   1.952  0.0161 -0.7428  0.6870
16098TIP3    H269786   2.152   3.862   1.861 -1.6493  0.0946 -1.7937
16099TIP3   OH269787   5.219   0.021   2.551 -0.1146 -0.0756 -0.5104
16099TIP3    H169788   5.145   0.064   2.596  0.3324 -0.6631  0.8060
16099TIP3    H269789   5.260   0.092   2.502  0.9424  1.1858  2.0738
16100TIP3   OH269790   3.460   3.253  16.520 -0.8683 -0.3680  0.4598
16100TIP3    H169791   3.391   3.319  16.520 -0.1438  0.4936  3.4671
16100TIP3    H269792   3.525   3.286  16.459 -0.5941  1.6965  1.8003
16101TIP3   OH269793   3.349   2.810   6.642  0.5093 -0.4258 -0.0089
16101TIP3    H169794   3.414   2.855   6.587 -0.5750 -0.5479 -1.4069
16101TIP3    H269795   3.265   2.849   6.618  0.0269 -0.2974  1.7581
16102TIP3   OH269796   6.200   1.546   5.551 -0.1332  0.1115 -0.1727
16102TIP3    H169797   6.255   1.559   5.629 -1.2862  2.1576  0.3360
16102TIP3    H269798   6.181   1.453   5.550  0.8719 -0.1266  1.3459
16103TIP3   OH269799   2.549   0.759   3.609 -0.0249 -0.5019 -0.3097
16103TIP3    H169800   2.595   0.689   3.655 -0.8096 -0.8995 -0.1302
16103TIP3    H269801   2.598   0.770   3.528 -1.1209 -2.7159 -1.3249
16104TIP3   OH269802   0.005   4.463  17.077  0.1300  0.3496  0.0459
16104TIP3    H169803   0.075   4.461  17.011 -0.1113 -0.4468 -0.1873
16104TIP3    H269804  -0.074   4.435  17.030  0.2153 -1.5450  0.9588
16105TIP3   OH269805   1.689   6.384   5.627 -0.7545 -0.2946 -0.4640
16105TIP3    H169806   1.739   6.463   5.611  0.0136 -0.7369 -0.2869
16105TIP3    H269807   1.599   6.406   5.603 -0.7665  0.9998  0.7242
16106TIP3   OH269808   4.461   3.763  13.351 -0.2222 -0.1224 -0.7125
16106TIP3    H169809   4.434   3.854  13.367 -2.2362 -0.9163  0.6586
16106TIP3    H269810   4.396   3.711  13.398  1.1097 -2.2740 -1.2077
16107TIP3   OH269811   6.231   5.312   4.832  0.5203  0.1329  0.5865
16107TIP3    H169812   6.292   5.282   4.764  0.3360  1.7471 -0.3224
16107TIP3    H269813   6.144   5.295   4.795  0.4236  0.7085  0.5351
16108TIP3   OH269814   5.457   1.556   0.365 -0.7621 -0.4015 -0.1858
16108TIP3    H169815   5.520   1.485   0.381 -0.7282 -0.4426 -0.4831
16108TIP3    H269816   5.453   1.605   0.447  1.4699  1.0254 -0.8749
16109TIP3   OH269817   6.712   5.874   2.827 -0.0985 -0.2229  0.3529
16109TIP3    H169818   6.787   5.852   2.772  0.2538 -1.4540  1.2855
16109TIP3    H269819   6.657   5.795   2.825 -0.4084 -0.0402  1.1987
16110TIP3   OH269820   5.716   6.698  13.989 -0.3023 -0.0029  0.3539
16110TIP3    H169821   5.806   6.672  14.009 -0.4121 -0.3067  0.4439
16110TIP3    H269822   5.724   6.755  13.912 -0.1633 -1.0553 -0.4186
16111TIP3   OH269823   6.698   1.529   3.210  0.7544 -0.0517  0.2262
16111TIP3    H169824   6.784   1.494   3.187  0.8299  0.3152 -0.0536
16111TIP3    H269825   6.717   1.618   3.242  0.4133  0.2551 -0.4266
16112TIP3   OH269826   0.478   4.218   0.854 -0.2197  0.1266  0.1416
16112TIP3    H169827   0.457   4.263   0.772 -0.6416  0.4597  0.4308
16112TIP3    H269828   0.569   4.243   0.872 -0.6200  1.3035  0.5788
16113TIP3   OH269829   3.443   4.690  16.159 -0.0439  0.0299  0.7229
16113TIP3    H169830   3.416   4.781  16.147  0.3535  0.0282 -0.1830
16113TIP3    H269831   3.463   4.658  16.071  0.7629 -0.6391  1.1371
16114TIP3   OH269832   2.384   0.312  13.357 -0.2336  0.2080 -0.1098
16114TIP3    H169833   2.437   0.372  13.409 -0.2625 -0.1216  0.3135
16114TIP3    H269834   2.382   0.232  13.410  3.0428 -1.5336 -2.4058
16115TIP3   OH269835   1.758   0.269   2.730  0.0488 -0.2850 -0.3072
16115TIP3    H169836   1.685   0.320   2.763  0.1524  0.3526 -1.0407
16115TIP3    H269837   1.760   0.190   2.785 -0.6481  0.0941  0.2635
16116TIP3   OH269838   3.229   5.414  13.637 -0.9641  0.2909  0.2821
16116TIP3    H169839   3.139   5.402  13.667 -0.9865 -3.8818 -1.0451
16116TIP3    H269840   3.224   5.406  13.542  0.5805  1.7673  0.0618
16117TIP3   OH269841   4.176   2.444   3.110 -0.5967 -0.3940 -0.1204
16117TIP3    H169842   4.117   2.459   3.184  0.9984 -2.2036  1.5940
16117TIP3    H269843   4.261   2.430   3.150  0.4110 -0.8453 -2.3551
16118TIP3   OH269844   5.182   4.815  13.157 -0.0632 -0.2931  0.3293
16118TIP3    H169845   5.192   4.789  13.248  0.8581 -2.9234 -0.4637
16118TIP3    H269846   5.194   4.734  13.108  1.3332  1.4073 -2.2422
16119TIP3   OH269847   0.090   0.548  14.150 -0.3189 -0.6328  0.3138
16119TIP3    H169848   0.051   0.620  14.201  0.8259  0.7967 -0.7940
16119TIP3    H269849   0.111   0.482  14.216 -1.5872 -0.0661  1.3347
16120TIP3   OH269850   3.657   4.895  13.278 -0.4950  0.1637  0.1325
16120TIP3    H169851   3.635   4.930  13.192 -0.7349  0.8279  0.4660
16120TIP3    H269852   3.573   4.882  13.322 -0.3962 -0.6303  0.0859
16121TIP3   OH269853   4.337   6.314  13.074  0.0578 -0.4538 -0.4350
16121TIP3    H169854   4.285   6.390  13.047 -1.1681 -0.8095  0.8744
16121TIP3    H269855   4.351   6.327  13.168  1.9752 -0.5855 -0.7019
16122TIP3   OH269856   1.911   5.548  16.474  0.1827 -0.4140  0.2102
16122TIP3    H169857   1.838   5.578  16.419 -0.7320 -0.5515  1.3220
16122TIP3    H269858   1.878   5.555  16.563  0.9767 -1.9741  0.6430
16123TIP3   OH269859   4.507   5.475  15.241 -0.0691  0.0463 -0.1027
16123TIP3    H169860   4.584   5.464  15.185 -0.3184  0.5459 -0.5421
16123TIP3    H269861   4.464   5.554  15.208 -0.6107 -0.0651  0.3288
16124TIP3   OH269862   1.071   1.635  15.545  0.1700  0.3840  0.2613
16124TIP3    H169863   1.146   1.584  15.516  0.4554  1.3293 -0.6946
16124TIP3    H269864   1.016   1.644  15.468 -0.2959  0.7907  0.6325
16125TIP3   OH269865   3.002   6.541  15.978  0.2280 -0.0734  0.6301
16125TIP3    H169866   3.020   6.499  16.062 -0.4502 -1.8777 -0.0927
16125TIP3    H269867   2.945   6.479  15.932  0.8308  0.7453 -1.2797
16126TIP3   OH269868   4.502   1.572  14.575 -0.0831  0.2476 -0.3231
16126TIP3    H169869   4.440   1.604  14.641  0.4609 -1.0890  0.8629
16126TIP3    H269870   4.449   1.517  14.518 -0.1230 -0.4287  0.3503
16127TIP3   OH269871   0.242   3.267  15.437 -0.4638 -0.1964 -1.3317
16127TIP3    H169872   0.262   3.359  15.422  0.0945  0.1336  1.3298
16127TIP3    H269873   0.191   3.266  15.518  0.6439 -2.3333 -0.6205
16128TIP3   OH269874   4.701   1.755  14.525 -0.4808 -0.0199 -0.6393
16128TIP3    H169875   4.665   1.816  14.461  2.6642 -1.9928 -4.4726
16128TIP3    H269876   4.635   1.687  14.532 -1.7680  1.2435 -0.1514
16129TIP3   OH269877   2.132   0.013   1.035 -0.0651  0.1428 -0.2636
16129TIP3    H169878   2.161   0.083   0.976 -1.0012  0.4119 -0.3989
16129TIP3    H269879   2.213  -0.014   1.079  0.3104  1.3067 -0.2009
16130TIP3   OH269880   2.463   6.223   5.059 -0.2395  0.3828  0.2334
16130TIP3    H169881   2.549   6.230   5.101 -1.6881  2.2474  3.0188
16130TIP3    H269882   2.457   6.302   5.004 -0.3476  0.4638  0.3618
16131TIP3   OH269883   4.069   1.773   0.731 -0.2115  0.4818  0.0802
16131TIP3    H169884   4.149   1.783   0.783 -0.8101 -0.0519  1.1071
16131TIP3    H269885   4.100   1.776   0.640  0.9484  0.5095  0.4615
16132TIP3   OH269886   1.118   0.759  15.482 -0.0847 -0.1916  0.1768
16132TIP3    H169887   1.137   0.825  15.549 -0.4924 -1.6447  1.7492
16132TIP3    H269888   1.060   0.804  15.420  0.7756  1.3494  0.4738
16133TIP3   OH269889   0.992   0.102   0.620  0.2373 -0.3821  0.1229
16133TIP3    H169890   1.029   0.031   0.567 -0.1610  0.6446 -1.5557
16133TIP3    H269891   1.050   0.108   0.696 -0.3132 -3.1805  0.8034
16134TIP3   OH269892   2.191   5.919  15.360  0.0889 -0.3348  0.0570
16134TIP3    H169893   2.200   5.878  15.274  0.3536 -0.8525  0.3303
16134TIP3    H269894   2.268   5.976  15.367  0.0889 -0.3231 -0.0303
16135TIP3   OH269895   5.566   2.066  15.325 -0.3489  0.4569  0.0325
16135TIP3    H169896   5.630   1.995  15.322  1.8151  2.2766  1.3504
16135TIP3    H269897   5.484   2.023  15.347  0.3860 -1.9486 -1.7507
16136TIP3   OH269898   3.076   5.743  12.809  0.1547  0.0767  0.4690
16136TIP3    H169899   3.110   5.801  12.741 -1.3708 -0.6384 -0.9412
16136TIP3    H269900   3.097   5.655  12.779 -3.1286 -0.3985 -0.5951
16137TIP3   OH269901   2.777   1.809   3.814 -0.9242 -0.0976 -0.3458
16137TIP3    H169902   2.757   1.794   3.722 -1.6198  0.0503 -0.2210
16137TIP3    H269903   2.872   1.824   3.816 -1.3090  2.6991 -1.3951
16138TIP3   OH269904   2.079   3.899   5.930  0.6435 -0.0547 -0.4161
16138TIP3    H169905   2.129   3.955   5.989 -0.1976  0.1095  0.1454
16138TIP3    H269906   2.114   3.920   5.843  2.1360 -0.5582  0.0386
16139TIP3   OH269907   6.229   3.709  12.805  0.0121 -0.0949  0.2786
16139TIP3    H169908   6.307   3.695  12.750  0.9572  1.7041  1.1074
16139TIP3    H269909   6.160   3.732  12.743  1.3945  3.2046 -0.1242
16140TIP3   OH269910   1.778   0.633  13.100 -0.5049  0.0414  0.3878
16140TIP3    H169911   1.821   0.590  13.026 -1.0259 -0.9403  0.6527
16140TIP3    H269912   1.757   0.562  13.161 -2.0120  0.5612  0.5071
16141TIP3   OH269913   1.681   6.233  14.872  0.2407 -0.1825  0.2910
16141TIP3    H169914   1.718   6.215  14.958 -0.1611  1.5577  0.8548
16141TIP3    H269915   1.654   6.325  14.876 -1.9544 -0.7378 -0.8994
16142TIP3   OH269916   5.256   4.235   4.160  0.2853  0.2659  0.0620
16142TIP3    H169917   5.213   4.299   4.104 -0.5891 -1.9378 -1.8836
16142TIP3    H269918   5.184   4.185   4.199  0.9674 -0.3389  0.5643
16143TIP3   OH269919   2.328   1.488  15.256  0.1649  0.2202 -0.3010
16143TIP3    H169920   2.386   1.478  15.331 -0.3243  2.1479  0.3683
16143TIP3    H269921   2.375   1.546  15.196  0.4579 -1.1307 -1.3928
16144TIP3   OH269922   1.188   6.090   1.974  0.1963  0.0449 -0.4503
16144TIP3    H169923   1.129   6.134   2.035 -0.0556 -0.8070 -0.0718
16144TIP3    H269924   1.140   6.088   1.891  0.8495  1.8951 -0.8930
16145TIP3   OH269925   6.642   0.855  11.320 -0.4282 -0.0418 -0.2466
16145TIP3    H169926   6.550   0.841  11.343  0.5342 -1.7776  2.7108
16145TIP3    H269927   6.674   0.918  11.385  0.7077 -0.0830 -0.7545
16146TIP3   OH269928   3.115   4.749  12.184 -1.1550 -0.2358 -0.0465
16146TIP3    H169929   3.148   4.745  12.274 -1.0307  1.6663  0.0213
16146TIP3    H269930   3.039   4.691  12.184 -3.6895  2.8633  2.4365
16147TIP3   OH269931   2.497   1.925  16.097  0.2938  0.4899  0.3767
16147TIP3    H169932   2.571   1.927  16.157  1.6278  1.1508 -1.2452
16147TIP3    H269933   2.485   2.016  16.069 -1.0241  0.3637  0.4811
16148TIP3   OH269934   4.686   5.650  11.025  0.0787 -0.2475 -0.1465
16148TIP3    H169935   4.606   5.638  11.077 -0.2060  0.7130 -0.3517
16148TIP3    H269936   4.718   5.736  11.049  0.8429 -0.4665 -0.3632
16149TIP3   OH269937   3.024   4.452   4.453 -0.0571 -0.0869 -0.1761
16149TIP3    H169938   2.977   4.526   4.492 -0.0018  0.0900 -0.4444
16149TIP3    H269939   3.070   4.490   4.378 -0.1523 -0.4268 -0.4033
16150TIP3   OH269940   6.056   5.994   5.892 -0.5900  0.1600 -0.0351
16150TIP3    H169941   6.144   5.980   5.928 -1.1417  0.0693  1.2995
16150TIP3    H269942   6.070   6.008   5.798  0.8843  0.5144  0.2321
16151TIP3   OH269943   6.480   5.816  13.744  0.4678 -0.2224  0.4254
16151TIP3    H169944   6.574   5.801  13.736  0.5392  1.2249 -2.1314
16151TIP3    H269945   6.446   5.736  13.783  2.3316 -2.2673 -1.9589
16152TIP3   OH269946   5.595   3.338  12.839 -0.3154 -0.4803  0.1193
16152TIP3    H169947   5.663   3.335  12.772 -0.3427  0.3073  0.0613
16152TIP3    H269948   5.533   3.403  12.808 -0.7950 -0.7642  0.4680
16153TIP3   OH269949   6.637   3.465  12.569  0.2015 -0.0615 -0.6994
16153TIP3    H169950   6.624   3.389  12.625  0.4646 -0.0487 -0.6196
16153TIP3    H269951   6.688   3.433  12.495  0.4139  0.0627 -0.6070
16154TIP3   OH269952   1.595   1.533  12.962  0.0347 -0.1489 -0.1282
16154TIP3    H169953   1.635   1.543  13.049 -1.1101 -0.9937  0.5214
16154TIP3    H269954   1.501   1.536  12.979 -0.2326  3.0119 -1.7622
16155TIP3   OH269955   5.659   6.754   6.168  0.2866 -0.2158  0.1503
16155TIP3    H169956   5.620   6.831   6.127  0.1622 -1.2116 -1.6411
16155TIP3    H269957   5.586   6.691   6.173  0.7110 -0.6914  0.3774
16156TIP3   OH269958   0.093   6.281  16.264 -0.0232  0.6776  0.1847
16156TIP3    H169959   0.186   6.266  16.281  0.2284 -0.7936 -2.2976
16156TIP3    H269960   0.087   6.375  16.244  1.2579  0.3933 -1.6227
16157TIP3   OH269961   1.979   4.052  12.473 -0.0699 -0.5476 -0.4188
16157TIP3    H169962   1.981   3.988  12.402 -0.6813 -0.7326 -0.2711
16157TIP3    H269963   2.069   4.056  12.504  0.1985 -0.4872 -1.1859
16158TIP3   OH269964   0.631   4.270   4.265  0.5355 -0.1271 -0.6052
16158TIP3    H169965   0.596   4.358   4.274  0.0202 -0.3598 -0.2828
16158TIP3    H269966   0.720   4.275   4.298  0.9094  0.5347 -1.6882
16159TIP3   OH269967   3.097   2.614   3.935 -0.2271 -0.0215  0.4408
16159TIP3    H169968   3.002   2.611   3.940 -0.2762  0.2190 -0.2493
16159TIP3    H269969   3.115   2.667   3.857  0.4813  2.8575  2.4542
16160TIP3   OH269970   0.773   6.602  11.498  0.1932  0.3980 -0.1947
16160TIP3    H169971   0.863   6.570  11.505  0.1484  0.5150  0.9543
16160TIP3    H269972   0.738   6.559  11.420  1.0779 -0.0470 -0.3517
16161TIP3   OH269973   0.347   1.853  17.127 -0.5511 -0.4289  0.0938
16161TIP3    H169974   0.380   1.763  17.125  1.4325  0.2762 -0.0622
16161TIP3    H269975   0.323   1.872  17.036  2.7903  0.5037 -0.6668
16162TIP3   OH269976   0.606   4.835   4.730 -0.2551 -0.1627 -0.4674
16162TIP3    H169977   0.598   4.929   4.742 -1.9633 -0.4182  0.6438
16162TIP3    H269978   0.620   4.800   4.818  0.8880 -0.9128 -0.9281
16163TIP3   OH269979   6.384   0.939  12.336  0.2039  0.0043 -0.4969
16163TIP3    H169980   6.387   0.913  12.428 -0.2408 -0.4732 -0.6178
16163TIP3    H269981   6.440   0.877  12.291 -0.2573 -0.2875 -0.6738
16164TIP3   OH269982   5.336   4.269   5.086 -0.1584 -0.6674  0.0809
16164TIP3    H169983   5.333   4.188   5.035  0.0439 -0.4853 -0.2194
16164TIP3    H269984   5.430   4.285   5.099 -0.1532  0.3685 -1.2018
16165TIP3   OH269985   1.752   0.202   4.755  0.3270  0.2007 -0.0502
16165TIP3    H169986   1.695   0.272   4.787  2.2102  0.7266  2.3284
16165TIP3    H269987   1.792   0.237   4.676  1.2886  1.8544  1.1471
16166TIP3   OH269988   4.254   1.345   0.116  0.2301  0.1332 -0.5224
16166TIP3    H169989   4.318   1.365   0.184 -0.3091  0.0822  0.0078
16166TIP3    H269990   4.232   1.253   0.130  2.2432 -0.7108 -2.5627
16167TIP3   OH269991   6.463   1.574   0.074 -0.3625 -0.1691 -0.0164
16167TIP3    H169992   6.508   1.648   0.115  2.0792 -0.6724 -1.7120
16167TIP3    H269993   6.476   1.501   0.135  0.3048 -0.0809 -0.0567
16168TIP3   OH269994   5.786   3.423   5.631 -0.0118 -0.4264 -0.4463
16168TIP3    H169995   5.698   3.459   5.632  0.3534  0.4873 -0.6064
16168TIP3    H269996   5.829   3.466   5.556  0.5002 -1.0148 -0.4973
16169TIP3   OH269997   5.919   0.577  11.892  0.3753 -0.1656  0.0721
16169TIP3    H169998   5.860   0.506  11.917  0.5800 -0.2366  0.3459
16169TIP3    H269999   5.861   0.643  11.853  0.1002 -0.1962  0.4234
16170TIP3   OH270000   1.970   1.418  14.674 -0.5748 -0.1208  0.0403
16170TIP3    H170001   1.875   1.424  14.672 -0.5291  0.3552 -1.8417
16170TIP3    H270002   1.992   1.369  14.595  0.7852  0.4848  0.0323
16171TIP3   OH270003   2.698   1.716  15.133 -0.6100  0.2090 -0.1925
16171TIP3    H170004   2.743   1.669  15.204 -1.9994 -0.7252  0.1053
16171TIP3    H270005   2.764   1.775  15.097  0.5467 -0.3985  0.8937
16172TIP3   OH270006   1.598   6.218  11.309 -0.3640 -0.3161 -0.1739
16172TIP3    H170007   1.669   6.186  11.252 -0.4161 -1.7473  0.5260
16172TIP3    H270008   1.643   6.253  11.386 -0.3388  0.5165 -0.5712
16173TIP3   OH270009   3.939   3.922  15.794  0.4719 -0.4378  0.5035
16173TIP3    H170010   3.933   3.907  15.888 -0.5309 -1.0827  0.3460
16173TIP3    H270011   3.936   3.835  15.755 -2.5568 -0.0390 -0.2885
16174TIP3   OH270012   2.326   0.189   4.354 -0.2234  0.5120  1.1675
16174TIP3    H170013   2.331   0.174   4.448  1.3606 -0.5659  0.9258
16174TIP3    H270014   2.351   0.281   4.343 -0.5947  0.6943  1.8127
16175TIP3   OH270015   0.664   2.810   2.385 -0.2348  0.2779 -0.2501
16175TIP3    H170016   0.709   2.788   2.303  0.0106  0.3470 -0.1362
16175TIP3    H270017   0.715   2.765   2.452  0.4741  1.4508  0.0172
16176TIP3   OH270018   0.129   2.847   5.546 -1.0566 -0.3628  0.1810
16176TIP3    H170019   0.058   2.790   5.574  0.1840 -0.6038  3.0293
16176TIP3    H270020   0.104   2.934   5.578  0.8905 -0.8315  3.2168
16177TIP3   OH270021   4.143   3.158   3.528  0.4706 -0.3049  0.5788
16177TIP3    H170022   4.073   3.117   3.580 -0.2247  0.6012  0.3602
16177TIP3    H270023   4.105   3.240   3.497  1.5067  0.0086  0.1348
16178TIP3   OH270024   1.690   4.408   0.797 -0.2941  0.7264 -0.1053
16178TIP3    H170025   1.731   4.494   0.804  0.7309  0.2573 -0.2671
16178TIP3    H270026   1.600   4.426   0.769 -1.0019  1.9289  2.7338
16179TIP3   OH270027   1.447   4.039  15.938  0.6727  0.2406  0.5659
16179TIP3    H170028   1.421   4.130  15.926 -0.5238 -0.2290 -0.4835
16179TIP3    H270029   1.365   3.992  15.950  1.0413 -1.1721 -2.0630
16180TIP3   OH270030   6.586   3.744   2.714  0.6284  0.2917  0.3216
16180TIP3    H170031   6.538   3.802   2.772  1.6452  0.7151  0.7484
16180TIP3    H270032   6.668   3.724   2.761  0.3509 -1.3839  0.1374
16181TIP3   OH270033   3.720   5.175  14.251  0.4381  0.0706 -0.6589
16181TIP3    H170034   3.763   5.127  14.322 -0.1342 -0.6092 -0.7727
16181TIP3    H270035   3.792   5.223  14.208  0.7309  0.8015  0.6162
16182TIP3   OH270036   3.906   0.305  12.237 -0.9556  0.1748 -0.0242
16182TIP3    H170037   3.904   0.210  12.227  3.1499  0.2181 -2.0763
16182TIP3    H270038   3.955   0.336  12.162 -3.9179  4.1746 -0.4796
16183TIP3   OH270039   4.838   1.099  16.794  0.1855  0.1197  0.1472
16183TIP3    H170040   4.774   1.164  16.764 -0.9309 -0.9322  0.2253
16183TIP3    H270041   4.918   1.150  16.807 -0.6658  1.4870  0.2143
16184TIP3   OH270042   5.955   1.759   2.492  0.0800 -0.4486 -0.0063
16184TIP3    H170043   5.972   1.853   2.502 -0.3250 -0.5812  2.0955
16184TIP3    H270044   5.992   1.738   2.406  2.2933  1.1507  0.4793
16185TIP3   OH270045   3.459   1.683   2.548  0.3972 -0.2781  0.0331
16185TIP3    H170046   3.519   1.612   2.527 -0.0976 -0.6463 -0.1400
16185TIP3    H270047   3.418   1.656   2.630 -2.1291 -1.7063 -1.6381
16186TIP3   OH270048   2.858   3.079  14.134 -0.2297 -0.0870  0.1660
16186TIP3    H170049   2.867   3.109  14.224  0.9594  0.2048 -0.0431
16186TIP3    H270050   2.776   3.030  14.133 -0.3233  0.0385  1.3674
16187TIP3   OH270051   1.037   3.531  15.264  0.3437  0.2191 -0.6571
16187TIP3    H170052   1.075   3.453  15.305 -0.5451  0.1318  0.0282
16187TIP3    H270053   1.092   3.548  15.188  0.9143 -0.7160 -0.4584
16188TIP3   OH270054   6.745   2.156   0.952 -0.4747  0.2696 -0.3268
16188TIP3    H170055   6.745   2.098   1.028 -0.7012  1.0039  0.2345
16188TIP3    H270056   6.795   2.233   0.980  0.6540 -0.0621 -1.3866
16189TIP3   OH270057   3.886   1.391  15.242 -0.2485 -0.3426  0.0254
16189TIP3    H170058   3.903   1.444  15.319  1.2585 -0.5342 -0.1744
16189TIP3    H270059   3.871   1.303  15.277  0.0627 -0.3575  0.1164
16190TIP3   OH270060   1.619   0.166   1.058  0.7513 -0.0174  0.1493
16190TIP3    H170061   1.643   0.091   1.113  0.5512 -0.5848 -0.5379
16190TIP3    H270062   1.636   0.137   0.969 -0.4305  0.3575 -0.2015
16191TIP3   OH270063   3.211   6.263  10.461  0.3394 -0.0790 -0.0120
16191TIP3    H170064   3.206   6.319  10.539  0.2841 -0.6853  0.4232
16191TIP3    H270065   3.246   6.320  10.393 -0.3819  0.6731  0.2501
16192TIP3   OH270066   1.772   1.860  16.351 -0.1838 -0.0417 -0.0988
16192TIP3    H170067   1.779   1.804  16.274 -0.7445  2.4314 -2.0177
16192TIP3    H270068   1.681   1.852  16.378 -0.3021  0.0448 -0.4600
16193TIP3   OH270069   2.216   1.146   1.710  0.1646  0.3119 -0.3453
16193TIP3    H170070   2.232   1.147   1.804  1.0817 -0.4336 -0.4943
16193TIP3    H270071   2.283   1.204   1.674 -1.9344  2.8693 -0.2809
16194TIP3   OH270072   2.461   2.758  17.108  0.3270  0.4036 -0.3465
16194TIP3    H170073   2.415   2.841  17.116  0.5150  0.3655  1.2648
16194TIP3    H270074   2.444   2.729  17.018 -0.1578  1.9288 -0.7523
16195TIP3   OH270075   4.649   2.062  11.310  0.3105 -0.3718 -0.0580
16195TIP3    H170076   4.569   2.106  11.338  1.0320  0.5050  0.6743
16195TIP3    H270077   4.690   2.122  11.248 -0.6153 -1.7305 -2.0156
16196TIP3   OH270078   1.800   5.126  12.796  0.3127 -0.1612  0.3211
16196TIP3    H170079   1.732   5.060  12.807  1.2377 -1.0741  0.6394
16196TIP3    H270080   1.882   5.078  12.806  1.0277  0.7703 -0.8588
16197TIP3   OH270081   4.176   0.526   2.963  0.2087  0.3624 -0.1290
16197TIP3    H170082   4.130   0.444   2.983 -0.6276  1.1464  1.2758
16197TIP3    H270083   4.268   0.506   2.975  0.0708 -0.5861 -0.5917
16198TIP3   OH270084   0.361   3.663  15.670  0.7317 -0.3927 -0.3669
16198TIP3    H170085   0.299   3.637  15.601  0.1534 -0.0977  0.0372
16198TIP3    H270086   0.412   3.584  15.687 -1.2878 -1.4102  1.1657
16199TIP3   OH270087   5.861   3.502  14.349 -0.7068  0.2731  0.5752
16199TIP3    H170088   5.925   3.468  14.411 -0.2159  1.7105  0.8753
16199TIP3    H270089   5.776   3.485  14.391 -0.5281 -1.2740  0.3515
16200TIP3   OH270090   0.512   4.084  17.186 -0.5334 -0.2218  0.4768
16200TIP3    H170091   0.591   4.048  17.227 -0.0225  0.9960  0.5718
16200TIP3    H270092   0.540   4.109  17.098 -0.8042  0.2466  0.5243
16201TIP3   OH270093   3.551   3.459   3.621 -0.5815  0.1548  0.1211
16201TIP3    H170094   3.553   3.382   3.564  1.9594 -1.0747  1.7897
16201TIP3    H270095   3.640   3.494   3.617 -1.0492  1.5295  1.3645
16202TIP3   OH270096   2.282   2.252  14.543 -0.6609  0.6105  0.0482
16202TIP3    H170097   2.305   2.205  14.623  0.5339 -0.0209 -0.6528
16202TIP3    H270098   2.244   2.185  14.486 -0.3023  0.7879 -0.4022
16203TIP3   OH270099   0.576   0.106   6.447 -0.4651 -0.0219  0.1477
16203TIP3    H170100   0.619   0.185   6.414  1.1122 -0.9310 -0.0102
16203TIP3    H270101   0.499   0.139   6.494 -0.4259  1.5392 -0.8293
16204TIP3   OH270102   5.684   1.745   2.611 -0.3894 -0.3907  0.2428
16204TIP3    H170103   5.700   1.721   2.702  0.5039  0.8546  0.4124
16204TIP3    H270104   5.771   1.756   2.572 -0.7723  0.7715 -0.3107
16205TIP3   OH270105   0.677   0.409   2.330  0.1040  0.0616 -0.1304
16205TIP3    H170106   0.697   0.400   2.423  0.3634 -3.3323 -0.4686
16205TIP3    H270107   0.593   0.454   2.328  1.3132  2.5764  1.6194
16206TIP3   OH270108   1.139   3.076  15.238 -0.5050 -0.4280  0.0649
16206TIP3    H170109   1.110   3.063  15.148 -0.0958 -1.3646  0.0694
16206TIP3    H270110   1.060   3.061  15.290 -0.4443 -1.1702 -0.0513
16207TIP3   OH270111   0.709   0.912   2.237 -0.0875 -0.7824  0.1449
16207TIP3    H170112   0.787   0.953   2.201 -0.1435 -1.3668 -0.6604
16207TIP3    H270113   0.742   0.835   2.284  0.2864  1.5931  3.9313
16208TIP3   OH270114   0.246   3.798   2.970 -0.0520 -0.1598  0.8341
16208TIP3    H170115   0.257   3.809   2.875 -0.1171  2.2300  1.0619
16208TIP3    H270116   0.219   3.885   3.000  1.4479 -0.5110  3.2635
16209TIP3   OH270117   2.862   5.244   5.087  0.1075 -0.6829 -0.0372
16209TIP3    H170118   2.866   5.150   5.073  0.0781 -0.5559 -0.9201
16209TIP3    H270119   2.947   5.277   5.056  0.0173 -0.3940  0.0181
16210TIP3   OH270120   0.993   2.670  14.949 -0.0485 -0.0073  0.1878
16210TIP3    H170121   1.067   2.611  14.933  0.1220  0.1785  0.2931
16210TIP3    H270122   0.969   2.703  14.862  2.3892  2.8478  0.5273
16211TIP3   OH270123   3.033   0.411  13.636 -0.3843 -0.2942  0.3308
16211TIP3    H170124   2.968   0.340  13.635 -0.3937 -0.3045 -2.2074
16211TIP3    H270125   2.981   0.489  13.653 -0.5314 -0.7171  1.9741
16212TIP3   OH270126   4.921   4.975   0.450 -0.1392  0.2419  0.1369
16212TIP3    H170127   4.978   5.051   0.459 -0.7771  0.7746 -0.2475
16212TIP3    H270128   4.974   4.911   0.403  0.3584  0.4984  0.3490
16213TIP3   OH270129   2.506   5.352   6.212 -0.0047  0.2885 -0.8137
16213TIP3    H170130   2.493   5.260   6.187  0.9728 -0.2366  0.5860
16213TIP3    H270131   2.435   5.370   6.273 -0.8410  0.8011 -1.9180
16214TIP3   OH270132   4.423   2.294   4.129  0.1887  0.5320 -0.2025
16214TIP3    H170133   4.442   2.379   4.169 -0.6424 -0.0856  1.5443
16214TIP3    H270134   4.505   2.268   4.087  0.4678  2.1527 -0.6816
16215TIP3   OH270135   1.640   3.587   1.653  0.2710  0.0847  0.3344
16215TIP3    H170136   1.732   3.610   1.659  0.6884 -1.3518 -0.3619
16215TIP3    H270137   1.635   3.497   1.686 -0.9848  0.3794  0.9892
16216TIP3   OH270138   5.670   1.404   3.340  0.2833  0.0762  0.1815
16216TIP3    H170139   5.604   1.420   3.408  0.3753 -1.1221  0.5576
16216TIP3    H270140   5.625   1.423   3.258 -0.4465 -0.4792  0.4555
16217TIP3   OH270141   1.721   0.727   2.951 -0.3121  0.0425  0.5297
16217TIP3    H170142   1.767   0.811   2.942  0.9375 -0.5874  0.8929
16217TIP3    H270143   1.644   0.747   3.004 -1.1295  1.3547 -1.0816
16218TIP3   OH270144   1.119   5.558   4.443  0.2258  0.0025 -0.0160
16218TIP3    H170145   1.048   5.622   4.442  0.5113  0.3167 -0.0423
16218TIP3    H270146   1.089   5.489   4.385 -0.2831 -0.1046  0.3617
16219TIP3   OH270147   5.648   4.548  15.328 -0.6095 -0.1693  0.1427
16219TIP3    H170148   5.704   4.558  15.251 -1.3600 -0.2837 -0.4222
16219TIP3    H270149   5.559   4.566  15.296 -0.9373 -0.3133  0.9561
16220TIP3   OH270150   4.862   5.366   4.926 -0.1316 -0.2325 -0.2323
16220TIP3    H170151   4.837   5.397   5.013  1.1452  0.2534 -0.0280
16220TIP3    H270152   4.859   5.444   4.871 -0.4403 -0.4411 -0.5124
16221TIP3   OH270153   1.836   5.211   4.577 -0.0388  0.2139 -0.6031
16221TIP3    H170154   1.860   5.303   4.563  0.4754  0.1904  0.0880
16221TIP3    H270155   1.807   5.208   4.668  0.0190 -0.3251 -0.6041
16222TIP3   OH270156   6.654   4.561   4.035 -0.5615 -0.9171  0.0907
16222TIP3    H170157   6.670   4.652   4.057  0.4163 -0.8193 -0.9902
16222TIP3    H270158   6.615   4.524   4.114  2.9503 -0.6063  2.0926
16223TIP3   OH270159   1.146   0.296   1.550 -0.1506 -0.1060 -0.1187
16223TIP3    H170160   1.163   0.390   1.544  0.0435 -0.2146 -1.2888
16223TIP3    H270161   1.210   0.264   1.614  1.0710  0.2414 -1.1513
16224TIP3   OH270162   2.596   3.455   1.137  0.5080 -0.0134 -0.2485
16224TIP3    H170163   2.660   3.399   1.094  0.6087  0.5463 -0.8340
16224TIP3    H270164   2.645   3.534   1.159 -0.3139  0.9881 -1.9528
16225TIP3   OH270165   5.186   2.215   3.682 -0.2138  0.2936  0.4188
16225TIP3    H170166   5.226   2.165   3.754  1.4823  0.6559 -0.2504
16225TIP3    H270167   5.181   2.152   3.610 -1.7903 -0.0299  0.7803
16226TIP3   OH270168   2.421   1.630   3.011  0.2570 -0.1507 -0.4104
16226TIP3    H170169   2.451   1.721   3.018  0.9193 -0.1575 -2.7339
16226TIP3    H270170   2.410   1.616   2.917 -0.9060 -2.1471 -0.0014
16227TIP3   OH270171   2.503   2.233   2.371  0.1027  0.2564  0.8857
16227TIP3    H170172   2.577   2.267   2.321  0.2330 -0.0889  0.8432
16227TIP3    H270173   2.491   2.144   2.337 -0.5245  0.4201  0.6768
16228TIP3   OH270174   0.118   5.074   1.902  0.1027  0.7401 -0.0992
16228TIP3    H170175   0.063   5.001   1.928 -0.9227  2.1755  1.8475
16228TIP3    H270176   0.207   5.038   1.900 -0.7770 -1.4288 -2.6774
16229TIP3   OH270177   3.179   6.253   4.636 -0.1139  0.2495 -0.3345
16229TIP3    H170178   3.122   6.266   4.560 -0.3896  2.3356  0.2030
16229TIP3    H270179   3.221   6.169   4.620 -3.2690 -1.3267 -0.7745
16230TIP3   OH270180   3.397   1.511   4.715 -0.1887  0.4185 -0.5534
16230TIP3    H170181   3.463   1.478   4.654 -1.0488 -2.1602 -0.1163
16230TIP3    H270182   3.441   1.513   4.800  0.2546  1.6746 -0.7990
16231TIP3   OH270183   6.691   6.447  11.523 -0.1310 -0.2619 -0.2721
16231TIP3    H170184   6.703   6.353  11.539  1.4290 -0.2803 -1.4239
16231TIP3    H270185   6.766   6.472  11.468 -2.0137  1.0522 -2.3651
16232TIP3   OH270186   3.109   3.509   2.537  0.0912 -0.1904  0.0047
16232TIP3    H170187   3.204   3.513   2.526  0.1737 -1.0055  0.3926
16232TIP3    H270188   3.083   3.600   2.549  1.0518 -0.1377  1.8570
16233TIP3   OH270189   4.180   5.356   2.440 -0.5711  1.0096 -0.1012
16233TIP3    H170190   4.220   5.325   2.522  0.5840  1.2051 -0.5808
16233TIP3    H270191   4.102   5.405   2.468 -0.3049  0.8877  0.8663
16234TIP3   OH270192   0.892   0.704   3.380  0.3579  0.2984  0.0365
16234TIP3    H170193   0.856   0.705   3.469 -0.0128  2.5812 -0.1051
16234TIP3    H270194   0.828   0.653   3.329  0.3085 -0.5806  0.9605
16235TIP3   OH270195   0.262   3.658  16.964  0.4059  1.0594 -0.5891
16235TIP3    H170196   0.258   3.576  17.014  0.6554  1.5094  0.1732
16235TIP3    H270197   0.322   3.639  16.891 -0.9824 -0.0046 -1.4949
16236TIP3   OH270198   3.670   4.951   0.532 -0.0249 -0.3477  0.2053
16236TIP3    H170199   3.653   4.898   0.455 -1.0715  0.2430  0.0182
16236TIP3    H270200   3.673   5.041   0.500 -0.4128 -0.1012  0.8362
16237TIP3   OH270201   4.727   3.300  11.168  0.3034 -0.4670 -0.3024
16237TIP3    H170202   4.774   3.242  11.107  1.9213  1.7552 -1.2681
16237TIP3    H270203   4.767   3.386  11.154 -1.3416  0.6908  1.8088
16238TIP3   OH270204   3.904   5.596  16.184  0.0569  0.2349  0.5606
16238TIP3    H170205   3.827   5.639  16.148  0.6179 -0.2805 -1.3588
16238TIP3    H270206   3.966   5.667  16.201  0.0979  0.4281 -0.3412
16239TIP3   OH270207   5.878   4.573   1.886 -0.0684  0.5702 -0.1597
16239TIP3    H170208   5.944   4.597   1.820  0.3653 -0.5526 -0.1442
16239TIP3    H270209   5.871   4.650   1.942  0.6437  0.9913 -0.6401
16240TIP3   OH270210   0.235   3.730   1.226 -0.5095 -0.4655  0.4727
16240TIP3    H170211   0.143   3.745   1.203 -0.6879 -0.7510  0.9775
16240TIP3    H270212   0.272   3.818   1.233 -0.6249 -0.3637 -0.2079
16241TIP3   OH270213   0.323   3.136  10.684  0.3336  0.5273 -0.0042
16241TIP3    H170214   0.300   3.044  10.667  1.0135  0.1136  1.2566
16241TIP3    H270215   0.273   3.185  10.619  0.3454 -0.7739 -1.0229
16242TIP3   OH270216   1.488   1.811  15.243  0.2368 -0.3509  0.1228
16242TIP3    H170217   1.538   1.730  15.238  0.2198 -0.3464 -0.1205
16242TIP3    H270218   1.508   1.846  15.330 -1.1948 -1.5330  0.9394
16243TIP3   OH270219   3.688   0.596  11.819 -0.0882 -0.3255 -0.2119
16243TIP3    H170220   3.639   0.677  11.807  0.3007  0.1624  1.3720
16243TIP3    H270221   3.780   0.623  11.816  0.1256 -1.2191 -3.0606
16244TIP3   OH270222   2.407   0.322   2.462 -0.8007  0.6229 -0.0211
16244TIP3    H170223   2.365   0.339   2.546 -2.3057  1.7141 -0.9539
16244TIP3    H270224   2.498   0.302   2.483 -1.0065  1.5421  1.7999
16245TIP3   OH270225   6.100   0.027  15.604 -0.0245 -0.1454 -0.0113
16245TIP3    H170226   6.180   0.075  15.582 -0.2850  0.4224  0.2594
16245TIP3    H270227   6.099   0.025  15.700 -0.6722  0.4312 -0.0016
16246TIP3   OH270228   0.847   5.465   3.349  0.2684 -0.9198  0.2298
16246TIP3    H170229   0.943   5.464   3.343  0.3823  1.2724  1.3281
16246TIP3    H270230   0.826   5.552   3.383 -2.2371 -0.6651 -1.8148
16247TIP3   OH270231   3.596   4.456  13.882 -0.1972  0.3010  1.0785
16247TIP3    H170232   3.667   4.466  13.820  0.9289  1.4311  2.5090
16247TIP3    H270233   3.527   4.513  13.848  0.0567  0.1889  0.3707
16248TIP3   OH270234   0.951   3.613  14.761 -0.1332 -0.2953  0.2715
16248TIP3    H170235   0.960   3.656  14.675 -1.6648 -0.9064 -0.2017
16248TIP3    H270236   0.941   3.520  14.740  0.5404 -0.5824  1.1821
16249TIP3   OH270237   6.522   3.181   4.144 -0.5433 -0.6437  0.0277
16249TIP3    H170238   6.577   3.196   4.221  1.1546  2.1255 -1.6175
16249TIP3    H270239   6.564   3.107   4.099 -0.4992 -1.1151  0.8342
16250TIP3   OH270240   2.436   2.219  11.650 -0.6538 -0.1090 -0.1700
16250TIP3    H170241   2.462   2.128  11.635  1.4076  0.3098  0.6930
16250TIP3    H270242   2.443   2.259  11.563 -0.4522 -0.5005 -0.3394
16251TIP3   OH270243   3.597   6.432   1.919 -0.5070 -0.1175  0.1205
16251TIP3    H170244   3.615   6.511   1.867  0.1790 -0.0909  0.4019
16251TIP3    H270245   3.514   6.451   1.963 -0.7481  0.1301 -0.4301
16252TIP3   OH270246   2.621   4.891  15.615 -0.6003  0.6367 -0.1916
16252TIP3    H170247   2.701   4.912  15.566 -0.2616  1.6547  0.7888
16252TIP3    H270248   2.572   4.833  15.556  1.3826 -0.9342 -0.3557
16253TIP3   OH270249   6.294   4.126  16.594 -0.5707 -0.5143 -0.1639
16253TIP3    H170250   6.306   4.159  16.505 -1.2957 -0.5017 -0.2577
16253TIP3    H270251   6.290   4.031  16.585 -0.5032 -0.5212 -0.1249
16254TIP3   OH270252   0.005   6.554  12.930 -0.3069 -0.8999 -0.1358
16254TIP3    H170253  -0.061   6.576  12.996 -0.7605 -1.4580 -0.3939
16254TIP3    H270254  -0.018   6.607  12.854  1.6537  1.5752  0.9340
16255TIP3   OH270255   1.821   3.895   6.110 -0.9207 -0.6257 -0.1130
16255TIP3    H170256   1.763   3.971   6.102 -0.4210 -0.0827  1.2406
16255TIP3    H270257   1.833   3.883   6.205  1.9570 -0.0945 -0.3398
16256TIP3   OH270258   1.504   3.751   5.082  0.5855  0.3813 -0.3350
16256TIP3    H170259   1.418   3.710   5.097  0.0562  1.0513 -1.4591
16256TIP3    H270260   1.565   3.698   5.132 -0.4496 -0.3071  0.2114
16257TIP3   OH270261   6.466   6.336  13.180  0.4688 -0.0175 -0.0366
16257TIP3    H170262   6.459   6.429  13.162 -0.9550  0.1309  1.1139
16257TIP3    H270263   6.554   6.324  13.216  0.5772  0.9192  0.0064
16258TIP3   OH270264   2.272   4.926   4.016 -0.0850  0.3415 -0.8346
16258TIP3    H170265   2.269   4.836   3.985 -3.2966  0.6572 -1.6900
16258TIP3    H270266   2.284   4.978   3.936 -1.9271  0.8256 -0.8222
16259TIP3   OH270267   6.339   2.079  13.505  0.5290 -0.2271  0.1737
16259TIP3    H170268   6.268   2.117  13.453  0.8699  1.1272  0.7020
16259TIP3    H270269   6.301   1.998  13.540 -0.1262 -0.4925 -1.1060
16260TIP3   OH270270   4.713   6.023   5.960 -0.3298  0.0066  0.2405
16260TIP3    H170271   4.748   6.071   5.885 -0.5102 -0.3673 -0.0886
16260TIP3    H270272   4.635   5.980   5.926 -0.4192 -0.1573  0.6487
16261TIP3   OH270273   3.077   2.445   3.587 -0.0699 -0.0823 -0.3179
16261TIP3    H170274   3.011   2.510   3.564  1.3828  1.4776 -0.1146
16261TIP3    H270275   3.114   2.418   3.502 -1.0060 -1.0326 -0.4403
16262TIP3   OH270276   0.838   0.475  12.148 -0.0546  0.1575 -0.3454
16262TIP3    H170277   0.744   0.467  12.135  0.1142 -2.3864 -0.2882
16262TIP3    H270278   0.862   0.398  12.199  1.8739  1.4117  0.7128
16263TIP3   OH270279   1.285   0.981  15.581 -0.8384  0.3319  0.5834
16263TIP3    H170280   1.239   1.063  15.564 -4.1467 -1.6705 -0.8266
16263TIP3    H270281   1.323   0.956  15.497 -1.3120 -0.3927  0.5750
16264TIP3   OH270282   6.224   0.959  16.916 -0.4310  0.1911 -0.0061
16264TIP3    H170283   6.319   0.957  16.903 -0.2679  0.7408  1.0157
16264TIP3    H270284   6.213   0.956  17.011 -1.4881 -1.4522 -0.1772
16265TIP3   OH270285   4.516   0.805   4.295  0.2026 -0.2262  0.6330
16265TIP3    H170286   4.429   0.768   4.308  0.4906 -0.6925  1.2553
16265TIP3    H270287   4.522   0.876   4.359  0.3864 -0.3776  0.7834
16266TIP3   OH270288   1.345   6.123  14.234 -0.3164  0.2159 -0.3536
16266TIP3    H170289   1.321   6.210  14.200 -0.4853  0.3966  0.2092
16266TIP3    H270290   1.390   6.080  14.162  0.5634  1.1103 -0.3513
16267TIP3   OH270291   3.325   3.699   0.410 -0.2265 -0.0173  0.1227
16267TIP3    H170292   3.398   3.649   0.373  0.7112  1.8316 -0.5960
16267TIP3    H270293   3.278   3.732   0.333 -0.5626  0.5916  0.5875
16268TIP3   OH270294   2.319   4.399   6.090  0.6157 -0.0362  0.8754
16268TIP3    H170295   2.289   4.327   6.146 -2.8343  0.6024 -0.0703
16268TIP3    H270296   2.261   4.472   6.110  0.7505  0.8879 -1.9372
16269TIP3   OH270297   2.659   1.174  11.652 -0.7992 -0.2187 -0.5278
16269TIP3    H170298   2.617   1.243  11.600 -0.3566 -0.5972 -1.3932
16269TIP3    H270299   2.597   1.101  11.650  0.0390 -0.9373 -2.1695
16270TIP3   OH270300   4.068   5.360   2.914  0.3593 -0.0901  0.2327
16270TIP3    H170301   3.994   5.420   2.908  0.6276  0.4763  2.0799
16270TIP3    H270302   4.030   5.277   2.942  0.2998 -0.0357  0.3154
16271TIP3   OH270303   5.657   4.142   4.334 -0.2633  0.1908  0.2891
16271TIP3    H170304   5.617   4.220   4.295 -1.2388 -0.1143  0.6646
16271TIP3    H270305   5.737   4.175   4.375 -0.6326  0.9810  0.3885
16272TIP3   OH270306   3.985   3.588  13.404 -0.4474 -0.0148 -0.2527
16272TIP3    H170307   4.013   3.512  13.353  0.0766  0.2653 -0.3890
16272TIP3    H270308   3.937   3.552  13.477 -0.8913 -0.4406 -0.7565
16273TIP3   OH270309   2.632   4.694  11.072  0.2774 -0.8960  0.0516
16273TIP3    H170310   2.704   4.660  11.019  0.5645  1.2735 -1.0375
16273TIP3    H270311   2.674   4.740  11.144 -0.0254 -0.6337  0.0642
16274TIP3   OH270312   3.197   5.606   0.324 -0.5832  0.3614  0.0415
16274TIP3    H170313   3.237   5.526   0.360 -0.4751 -0.2385 -1.3414
16274TIP3    H270314   3.271   5.664   0.308 -0.7996  1.3504  2.4397
16275TIP3   OH270315   6.061   4.921   0.947 -0.5673  0.2834 -0.1073
16275TIP3    H170316   6.103   4.874   0.875 -0.3284 -2.2326  1.6219
16275TIP3    H270317   6.132   4.971   0.987 -0.4696  0.8073 -0.9297
16276TIP3   OH270318   5.070   2.453   4.841  0.3682  0.8296  0.2112
16276TIP3    H170319   5.103   2.481   4.756  2.2091 -0.8124  0.3478
16276TIP3    H270320   5.054   2.359   4.830  0.8743  0.5575  1.7659
16277TIP3   OH270321   4.142   5.480  14.907 -0.5829  0.0910  0.1784
16277TIP3    H170322   4.094   5.444  14.832  2.0752 -0.1872 -1.4443
16277TIP3    H270323   4.115   5.425  14.980 -1.6078 -0.9839 -0.9711
16278TIP3   OH270324   5.107   0.035   3.262  0.4122 -0.0636  0.1157
16278TIP3    H170325   5.164   0.107   3.290  1.5587 -1.4296  1.4215
16278TIP3    H270326   5.088   0.054   3.170  1.7435  1.2274  0.0844
16279TIP3   OH270327   0.560   5.036  13.339  0.1865  0.5263  0.2188
16279TIP3    H170328   0.630   5.046  13.275  1.2670  0.3195  1.3475
16279TIP3    H270329   0.526   4.947  13.324 -1.4216  1.4609 -1.8805
16280TIP3   OH270330   3.035   0.381   4.444 -0.4093 -0.3305  0.1891
16280TIP3    H170331   3.100   0.386   4.374  0.6932  0.5724  1.2478
16280TIP3    H270332   2.984   0.462   4.436 -1.3842 -1.0097 -0.6037
16281TIP3   OH270333   5.266   4.387   3.757  0.7303  0.1141 -0.5996
16281TIP3    H170334   5.317   4.439   3.694 -1.2655  2.5728 -0.2891
16281TIP3    H270335   5.186   4.365   3.710  0.9139 -1.4517 -0.2062
16282TIP3   OH270336   5.894   5.471  10.780  0.3613  0.6280 -0.0120
16282TIP3    H170337   5.806   5.493  10.750  0.4136  0.0210 -0.6392
16282TIP3    H270338   5.945   5.550  10.764 -0.7483  2.0904  3.2923
16283TIP3   OH270339   1.259   3.196  17.286 -0.8236  0.0512  0.1420
16283TIP3    H170340   1.237   3.227  17.198  0.3797 -0.1949 -0.2530
16283TIP3    H270341   1.264   3.101  17.277 -2.3528 -0.1120  0.8617
16284TIP3   OH270342   0.554   1.476   4.079  0.4666  0.0328  0.1302
16284TIP3    H170343   0.618   1.407   4.064 -1.0403 -1.2558 -0.4575
16284TIP3    H270344   0.491   1.466   4.008  0.1658  1.9476  0.0949
16285TIP3   OH270345   2.432   4.028  15.442  0.2143  0.1795  0.5561
16285TIP3    H170346   2.435   4.085  15.519 -0.5021  0.5017  0.3510
16285TIP3    H270347   2.513   3.977  15.447 -0.3253 -0.5620  2.0943
16286TIP3   OH270348   0.591   3.036  10.678  0.1877  0.2009 -0.1290
16286TIP3    H170349   0.599   2.959  10.734 -0.3775 -0.6096 -1.1574
16286TIP3    H270350   0.497   3.054  10.675  0.2269  0.3081 -0.7218
16287TIP3   OH270351   6.365   6.499  11.795  0.2657  0.5870  0.0017
16287TIP3    H170352   6.300   6.492  11.865 -0.9064  0.2185 -1.0995
16287TIP3    H270353   6.313   6.498  11.714  1.7451 -1.3630 -0.9668
16288TIP3   OH270354   3.176   4.485   4.890  0.2868 -0.2527 -0.1619
16288TIP3    H170355   3.109   4.528   4.945  1.1857  1.5305 -0.4111
16288TIP3    H270356   3.133   4.407   4.856 -1.1343 -0.0025  1.0026
16289TIP3   OH270357   1.271   2.879   1.643 -0.0365  0.4814  0.2327
16289TIP3    H170358   1.354   2.843   1.613 -0.5644  0.9995 -1.9079
16289TIP3    H270359   1.296   2.946   1.707  1.1449  0.1170  0.1694
16290TIP3   OH270360   4.497   3.255   3.936  0.2530 -0.2846 -0.0994
16290TIP3    H170361   4.479   3.261   3.842  2.3278 -1.9340 -0.6562
16290TIP3    H270362   4.576   3.308   3.949  2.0932 -2.9232 -0.0098
16291TIP3   OH270363   0.835   3.988  11.913  0.1223 -0.5643 -0.1080
16291TIP3    H170364   0.890   4.062  11.888 -1.0126  0.2667 -0.1991
16291TIP3    H270365   0.854   3.973  12.006 -2.0794  2.0411  0.8447
16292TIP3   OH270366   5.212   2.744  12.721 -0.0261 -0.6590 -0.3109
16292TIP3    H170367   5.272   2.783  12.784 -0.7040  0.3968 -0.3127
16292TIP3    H270368   5.220   2.799  12.643 -2.2299  0.5099  0.2500
16293TIP3   OH270369   0.517   5.148   2.922  0.5391 -0.6467  0.4180
16293TIP3    H170370   0.434   5.145   2.875 -0.2788 -0.6134  1.8390
16293TIP3    H270371   0.553   5.234   2.902 -0.8365  0.2263  1.5685
16294TIP3   OH270372   6.667   3.690  13.935 -0.0581 -0.4584 -0.0011
16294TIP3    H170373   6.690   3.761  13.994  2.1239 -0.4428 -0.8267
16294TIP3    H270374   6.747   3.637  13.928 -1.6585 -3.0694  0.7054
16295TIP3   OH270375   0.046   4.014  16.537 -0.2437  0.6685  0.2140
16295TIP3    H170376   0.004   4.035  16.454  1.3338 -2.6753 -1.5208
16295TIP3    H270377   0.128   4.064  16.536  0.0830  0.1324 -0.5774
16296TIP3   OH270378   1.925   2.359   0.550 -0.5473  0.0242 -0.7008
16296TIP3    H170379   1.876   2.419   0.606 -0.8288 -0.5557 -0.3272
16296TIP3    H270380   1.999   2.330   0.604 -0.5167 -0.1161 -0.8166
16297TIP3   OH270381   4.519   3.821  11.723  0.3948  0.0625 -0.3608
16297TIP3    H170382   4.455   3.772  11.775  0.4828 -0.2276 -0.5216
16297TIP3    H270383   4.466   3.880  11.670  0.3732  1.3425  1.0514
16298TIP3   OH270384   1.320   5.615   2.858 -0.0701  0.1028  0.4715
16298TIP3    H170385   1.359   5.565   2.930 -0.7004  0.9365  1.4079
16298TIP3    H270386   1.233   5.577   2.848  0.4145 -0.7579 -0.6171
16299TIP3   OH270387   3.675   0.893   5.393  0.3846  0.1328  0.0071
16299TIP3    H170388   3.627   0.825   5.345  0.7938 -0.1910  0.0542
16299TIP3    H270389   3.611   0.927   5.456  0.3471 -0.6152  0.3833
16300TIP3   OH270390   0.057   1.073  13.272  0.0087 -0.0623 -0.2399
16300TIP3    H170391  -0.038   1.076  13.288  0.3663 -0.0890  2.0067
16300TIP3    H270392   0.082   0.983  13.294  0.6369  0.0825 -0.3593
16301TIP3   OH270393   0.815   5.452  15.141  0.5139  0.0330  0.2620
16301TIP3    H170394   0.822   5.357  15.154  0.1249 -0.4153 -2.4071
16301TIP3    H270395   0.898   5.487  15.171  1.1392 -1.3030  0.1279
16302TIP3   OH270396   3.330   2.915  14.352 -0.8481 -0.3329  0.0882
16302TIP3    H170397   3.345   2.822  14.335 -2.7021  0.1091 -5.0116
16302TIP3    H270398   3.253   2.917  14.409 -0.9880 -1.9207 -0.0323
16303TIP3   OH270399   2.547   2.676  11.221  0.7132  0.2136  0.2842
16303TIP3    H170400   2.467   2.712  11.260  1.7564  0.0482  2.6352
16303TIP3    H270401   2.519   2.646  11.134 -0.9790  3.3647 -0.3656
16304TIP3   OH270402   0.714   3.223   0.964 -0.1106 -0.6084 -0.5245
16304TIP3    H170403   0.741   3.180   0.883 -1.1022 -2.8181  0.2665
16304TIP3    H270404   0.648   3.164   1.001 -0.8884  1.2000  1.0484
16305TIP3   OH270405   2.000   1.280  16.923 -0.0047  0.0987 -0.3539
16305TIP3    H170406   1.932   1.304  16.860 -1.3369  0.9046  1.3408
16305TIP3    H270407   2.071   1.343  16.907  0.1329 -0.4008 -1.7714
16306TIP3   OH270408   3.081   3.961  11.596 -0.2777 -0.5772 -0.1566
16306TIP3    H170409   3.009   3.989  11.652  1.4212 -0.5914  2.1158
16306TIP3    H270410   3.074   3.866  11.594 -0.7255 -0.5392 -0.5167
16307TIP3   OH270411   2.180   6.762  12.599 -0.4338  0.2508 -0.4344
16307TIP3    H170412   2.104   6.733  12.650 -0.4482  0.3253 -0.4137
16307TIP3    H270413   2.166   6.856  12.586  0.5132  0.6107  1.0550
16308TIP3   OH270414   3.519   5.727   5.220 -0.3557  0.2019 -0.1967
16308TIP3    H170415   3.573   5.777   5.280 -0.5965  2.0328 -1.4525
16308TIP3    H270416   3.431   5.763   5.231 -1.0508 -1.7435  0.7726
16309TIP3   OH270417   0.506   2.346   5.277  0.2037 -0.1140  0.1050
16309TIP3    H170418   0.566   2.393   5.335 -0.4292  0.3751  0.3713
16309TIP3    H270419   0.492   2.262   5.322  0.0938  0.0698  0.4174
16310TIP3   OH270420   0.698   4.197   0.576 -0.2266  0.2639 -0.2734
16310TIP3    H170421   0.791   4.185   0.597 -0.2400  0.4168 -0.1209
16310TIP3    H270422   0.657   4.113   0.597 -0.3617  0.6334  1.0161
16311TIP3   OH270423   1.559   3.387  16.327  0.2686 -0.1994  0.2248
16311TIP3    H170424   1.542   3.338  16.246 -0.0318  0.7988 -0.3358
16311TIP3    H270425   1.534   3.477  16.305  0.8659  0.2108  1.2149
16312TIP3   OH270426   5.722   4.798  15.673 -0.1505 -0.0513 -0.0169
16312TIP3    H170427   5.663   4.862  15.633 -1.7080 -1.3040  0.2420
16312TIP3    H270428   5.709   4.809  15.767 -1.1404 -1.3952  0.0140
16313TIP3   OH270429   6.791   4.836  13.989  0.2762 -0.6099  0.2605
16313TIP3    H170430   6.783   4.745  13.961  0.3845 -0.3236 -0.7132
16313TIP3    H270431   6.806   4.885  13.909 -0.2176  0.3235  0.7236
16314TIP3   OH270432   3.631   1.032  13.708  0.1153  0.4942  0.1454
16314TIP3    H170433   3.711   1.066  13.670  1.5405  0.1029  2.7031
16314TIP3    H270434   3.638   0.937  13.697  0.3446  0.4092  1.0397
16315TIP3   OH270435   1.125   1.503  14.594  0.0341 -0.3655 -0.4614
16315TIP3    H170436   1.070   1.499  14.516  1.1859  1.2314 -1.3820
16315TIP3    H270437   1.092   1.579  14.643 -1.3760 -1.9899  1.1522
16316TIP3   OH270438   2.865   5.476   3.286  0.3963 -0.1495  0.3472
16316TIP3    H170439   2.854   5.557   3.237  1.1982 -0.2668 -0.0406
16316TIP3    H270440   2.780   5.432   3.279  0.4611 -0.1201 -0.8740
16317TIP3   OH270441   4.633   6.300  10.358 -0.4443  0.3947  0.0977
16317TIP3    H170442   4.728   6.301  10.349 -0.6251  0.2863 -1.9338
16317TIP3    H270443   4.610   6.390  10.382 -0.0026  0.8623 -1.2291
16318TIP3   OH270444   2.192   0.981  14.963  0.2807 -0.0265 -0.1256
16318TIP3    H170445   2.174   1.071  14.987 -0.3287 -0.5419  1.4211
16318TIP3    H270446   2.106   0.940  14.957  0.5109 -0.3588 -1.4760
16319TIP3   OH270447   2.988   1.302   4.825 -0.1540  0.4168 -0.0700
16319TIP3    H170448   2.967   1.217   4.786  4.0996 -0.9379  0.3349
16319TIP3    H270449   2.999   1.360   4.750  0.5955 -0.3319 -0.5511
16320TIP3   OH270450   5.340   4.459  13.777  0.2382 -0.2056  0.1195
16320TIP3    H170451   5.276   4.500  13.835  0.3614 -0.5688  0.5116
16320TIP3    H270452   5.419   4.451  13.830 -0.0035 -1.6437  0.2862
16321TIP3   OH270453   1.481   2.434   2.467 -0.0114 -0.3897 -0.6435
16321TIP3    H170454   1.506   2.526   2.460 -0.4404 -0.1134  1.1716
16321TIP3    H270455   1.553   2.394   2.517 -0.4654 -0.7456 -0.2673
16322TIP3   OH270456   4.301   4.665  14.686  0.1770 -0.3953  0.0179
16322TIP3    H170457   4.253   4.625  14.759  1.3154  0.5623  1.3285
16322TIP3    H270458   4.276   4.758  14.689  2.6084  0.2797  1.2045
16323TIP3   OH270459   3.012   4.040   5.270 -0.4386  0.2702 -0.4092
16323TIP3    H170460   3.093   4.020   5.222 -1.6066 -2.9419 -1.1882
16323TIP3    H270461   2.943   4.001   5.216 -2.3527  1.4516  1.1358
16324TIP3   OH270462   6.444   6.519   5.851  0.1271 -0.0394  0.6632
16324TIP3    H170463   6.392   6.444   5.820 -0.9298  1.5339 -1.4518
16324TIP3    H270464   6.452   6.504   5.946 -0.6729 -2.4560  0.3880
16325TIP3   OH270465   2.374   3.710  13.707  0.1465 -0.0089  0.5909
16325TIP3    H170466   2.424   3.677  13.781  1.0170  1.4333  0.6507
16325TIP3    H270467   2.439   3.725  13.638 -0.8961 -3.3086 -1.2153
16326TIP3   OH270468   2.871   3.044   2.634  0.3502  0.2746 -0.2040
16326TIP3    H170469   2.943   3.106   2.648  0.2692 -0.1165  2.0001
16326TIP3    H270470   2.911   2.958   2.642 -0.1156  0.0429 -0.3362
16327TIP3   OH270471   0.888   0.935  13.098  0.1567  0.0061 -0.7453
16327TIP3    H170472   0.953   0.888  13.047  0.0713  0.1906 -1.0262
16327TIP3    H270473   0.821   0.870  13.118  0.1926 -0.0664 -0.8608
16328TIP3   OH270474   4.191   5.323  12.310  0.4264  0.2927  0.3538
16328TIP3    H170475   4.268   5.354  12.358  0.3354 -1.0186  1.3984
16328TIP3    H270476   4.124   5.311  12.377 -0.1082 -0.3403 -0.2813
16329TIP3   OH270477   4.501   6.635  15.383 -0.6107  0.8817  0.2611
16329TIP3    H170478   4.541   6.700  15.325  1.6391  1.2872  2.2238
16329TIP3    H270479   4.497   6.678  15.468  0.2378 -1.3110  1.4392
16330TIP3   OH270480   0.433   1.544   1.307 -0.4182 -0.6744 -0.2464
16330TIP3    H170481   0.386   1.540   1.390  0.5688  1.3063  0.4254
16330TIP3    H270482   0.524   1.528   1.329 -0.1962 -0.5058 -1.0114
16331TIP3   OH270483   2.206   0.831   0.780 -0.0065 -0.3954  0.7721
16331TIP3    H170484   2.202   0.754   0.836  0.6537 -1.9482 -1.2625
16331TIP3    H270485   2.150   0.810   0.705  1.8425  0.2033 -0.8365
16332TIP3   OH270486   2.546   0.824  13.990 -0.0760 -0.2492  0.1534
16332TIP3    H170487   2.552   0.758  14.059 -0.7167 -1.6805 -1.1461
16332TIP3    H270488   2.459   0.812  13.952  1.1271 -1.0993 -2.4906
16333TIP3   OH270489   6.261   0.879   3.490 -0.3161 -0.0250 -0.1371
16333TIP3    H170490   6.194   0.942   3.518 -0.8353  0.0499 -1.4721
16333TIP3    H270491   6.211   0.802   3.462  0.2678 -0.6811  0.6308
16334TIP3   OH270492   5.781   5.535  15.709 -0.6404 -0.0747  0.0633
16334TIP3    H170493   5.799   5.466  15.645  0.5775  0.4777 -0.1975
16334TIP3    H270494   5.766   5.613  15.656  1.0206  0.5329  0.4619
16335TIP3   OH270495   1.474   0.936   4.187  0.0399 -0.0980 -0.3283
16335TIP3    H170496   1.437   1.024   4.179 -0.4032 -0.3654 -1.2146
16335TIP3    H270497   1.569   0.951   4.192 -0.1680  0.5915  2.1544
16336TIP3   OH270498   5.429   6.725  13.440  0.3004 -0.3045 -0.6528
16336TIP3    H170499   5.407   6.726  13.347  0.1194 -0.6977 -0.6145
16336TIP3    H270500   5.394   6.807  13.474 -1.4458 -1.1044 -0.5076
16337TIP3   OH270501   1.430   1.381   0.205  0.4625 -0.2431  0.5271
16337TIP3    H170502   1.482   1.393   0.126 -0.1225 -1.3782 -0.0461
16337TIP3    H270503   1.421   1.468   0.242 -0.7887  0.5862 -1.6425
16338TIP3   OH270504   1.117   1.231  15.722 -0.1117  0.7284  0.4162
16338TIP3    H170505   1.024   1.214  15.735  0.2389 -0.7053  1.1376
16338TIP3    H270506   1.154   1.235  15.810 -0.1415  5.3395  0.3052
16339TIP3   OH270507   4.718   2.430   4.131 -0.0267 -0.1414  0.2049
16339TIP3    H170508   4.755   2.438   4.043  0.9948 -1.3084  0.5196
16339TIP3    H270509   4.757   2.350   4.166 -0.7362  0.1044  1.5713
16340TIP3   OH270510   2.804   3.136  11.846  0.2711  0.6151  0.2421
16340TIP3    H170511   2.774   3.138  11.755 -3.0883  3.0334  1.2919
16340TIP3    H270512   2.784   3.047  11.876  1.5313 -0.2427 -1.3525
16341TIP3   OH270513   6.688   3.417   4.910 -0.2544 -0.0812 -0.0578
16341TIP3    H170514   6.660   3.423   4.819  2.1281 -0.4409 -0.8604
16341TIP3    H270515   6.779   3.389   4.905  1.3612  4.2475  2.2593
16342TIP3   OH270516   1.179   0.935   6.587 -0.9803 -0.0473 -0.9150
16342TIP3    H170517   1.189   0.843   6.611 -2.8206 -0.2876 -0.9916
16342TIP3    H270518   1.230   0.983   6.653 -2.1911 -0.9746  0.7362
16343TIP3   OH270519   3.498   1.536  15.675  0.3755  0.1868  0.2164
16343TIP3    H170520   3.491   1.624  15.638 -1.4637  0.0837  0.2564
16343TIP3    H270521   3.428   1.487  15.632  1.2865 -1.2243  0.3088
16344TIP3   OH270522   1.955   6.379  11.757  0.4301 -0.4996 -0.0362
16344TIP3    H170523   1.962   6.292  11.717 -1.0487 -1.3291  1.4457
16344TIP3    H270524   1.960   6.363  11.851 -1.6247  0.8044  0.3398
16345TIP3   OH270525   1.434   3.765  14.506 -0.7548  0.5373  0.2062
16345TIP3    H170526   1.452   3.821  14.430 -0.6293  0.4305  0.1561
16345TIP3    H270527   1.398   3.824  14.572  0.0359  0.8056  0.4028
16346TIP3   OH270528   4.771   5.490   4.200 -0.2692 -0.2783  0.0978
16346TIP3    H170529   4.818   5.494   4.117  0.5408  0.2903  0.5763
16346TIP3    H270530   4.811   5.416   4.247  0.6735  0.6835  0.8183
16347TIP3   OH270531   6.318   2.167  16.397 -0.0295 -0.3284  0.6252
16347TIP3    H170532   6.403   2.147  16.436  0.7139  0.6994 -0.4347
16347TIP3    H270533   6.333   2.247  16.347 -1.1889 -1.1080 -1.0025
16348TIP3   OH270534   0.411   1.897  13.427  0.0922 -0.4403  0.2115
16348TIP3    H170535   0.467   1.852  13.363  1.1553  0.8160  0.2350
16348TIP3    H270536   0.348   1.830  13.455  1.0625 -1.6493 -0.4339
16349TIP3   OH270537   6.616   4.570  12.601 -0.2806  0.0696 -0.8572
16349TIP3    H170538   6.620   4.665  12.596  3.1185  0.1254  1.0224
16349TIP3    H270539   6.636   4.540  12.512  3.7376  1.1519 -0.4255
16350TIP3   OH270540   6.716   6.392   1.238 -0.3732  0.0021  0.0408
16350TIP3    H170541   6.681   6.333   1.171  1.3485 -1.6714  0.5698
16350TIP3    H270542   6.765   6.335   1.297 -1.9129  1.4206  2.8113
16351TIP3   OH270543   4.367   6.681   2.124 -0.6258 -0.2673  0.0297
16351TIP3    H170544   4.416   6.611   2.080  0.1639  0.2526  0.0744
16351TIP3    H270545   4.322   6.636   2.195 -0.6555 -0.8471 -0.3478
16352TIP3   OH270546   0.935   1.610  15.311 -0.0521  0.0551 -0.0510
16352TIP3    H170547   0.935   1.690  15.259 -0.0775 -0.3911 -0.7510
16352TIP3    H270548   0.851   1.568  15.290  0.3952 -0.6409 -0.4469
16353TIP3   OH270549   0.041   5.575   4.158 -0.1420 -0.0992  0.5910
16353TIP3    H170550   0.115   5.551   4.213  0.7137 -1.0062 -0.9413
16353TIP3    H270551   0.057   5.666   4.134  1.0814 -0.6386 -0.6745
16354TIP3   OH270552   5.195   4.497  12.469 -0.3097 -0.2899 -0.4829
16354TIP3    H170553   5.120   4.441  12.489 -0.0175 -0.4878  0.0599
16354TIP3    H270554   5.271   4.448  12.499  0.2028 -0.8734 -2.6530
16355TIP3   OH270555   5.999   1.809   0.341 -0.1869 -0.6789 -0.2130
16355TIP3    H170556   6.003   1.731   0.397  1.0930 -2.0817 -2.1707
16355TIP3    H270557   5.906   1.817   0.318 -0.4829 -1.0074  0.8285
16356TIP3   OH270558   1.300   1.210   5.673 -0.3109  0.0572  0.1846
16356TIP3    H170559   1.305   1.143   5.605  1.7428  0.4088 -0.0540
16356TIP3    H270560   1.222   1.261   5.651 -2.0716 -2.3840  0.5319
16357TIP3   OH270561   1.524   2.532   0.014  0.2915  0.3770 -0.0617
16357TIP3    H170562   1.433   2.507   0.000  0.8656 -1.1771 -1.2847
16357TIP3    H270563   1.539   2.517   0.108 -0.1311 -1.4901 -0.2626
16358TIP3   OH270564   5.383   2.767  14.356 -0.2723  0.0175 -0.2284
16358TIP3    H170565   5.457   2.796  14.408 -1.2179 -0.6078  1.5062
16358TIP3    H270566   5.413   2.774  14.265  0.9834  2.2912  0.3149
16359TIP3   OH270567   3.370   1.130   5.404 -0.1307 -0.0348 -0.5166
16359TIP3    H170568   3.308   1.075   5.452  1.0462 -0.2051  0.8185
16359TIP3    H270569   3.387   1.082   5.323 -1.2796 -0.2659 -0.6301
16360TIP3   OH270570   6.482   6.654   2.124  0.0248  0.3659 -0.0869
16360TIP3    H170571   6.554   6.592   2.127 -1.9562 -2.0457 -0.8106
16360TIP3    H270572   6.428   6.631   2.200 -0.4382  1.5589 -0.0472
16361TIP3   OH270573   1.703   3.817  15.351  0.0389  0.0809 -0.4228
16361TIP3    H170574   1.769   3.773  15.406  0.4149  2.0032  0.6896
16361TIP3    H270575   1.643   3.746  15.325  0.7374 -1.1339  1.1859
16362TIP3   OH270576   2.683   0.780   6.800 -0.7594 -0.2984 -0.4725
16362TIP3    H170577   2.736   0.730   6.737  0.6422  1.5357 -0.8084
16362TIP3    H270578   2.633   0.714   6.847  0.8278 -2.0033 -1.0994
16363TIP3   OH270579   3.472   3.199  15.265  0.8000 -0.6738  0.0809
16363TIP3    H170580   3.497   3.218  15.355  0.0470 -0.4809  0.2488
16363TIP3    H270581   3.533   3.251  15.212 -1.6897  2.9176  0.5519
16364TIP3   OH270582   0.254   1.490   2.438 -0.5191  0.2997 -0.6809
16364TIP3    H170583   0.223   1.501   2.528 -1.3100  2.8074 -1.2136
16364TIP3    H270584   0.200   1.420   2.402 -1.0353  0.1289  0.4349
16365TIP3   OH270585   3.048   3.205  11.185 -0.2107  0.4397  0.2430
16365TIP3    H170586   3.010   3.137  11.241 -0.1687 -0.6509 -1.0346
16365TIP3    H270587   2.985   3.277  11.189 -1.1723 -0.3861  0.1449
16366TIP3   OH270588   2.653   3.378  15.345 -0.2209  0.3961 -0.4962
16366TIP3    H170589   2.743   3.388  15.314 -0.3446  1.3237 -0.5870
16366TIP3    H270590   2.600   3.428  15.282 -0.8383 -0.4518 -0.6563
16367TIP3   OH270591   0.006   0.650   3.702 -0.4189 -0.0699 -0.3754
16367TIP3    H170592   0.012   0.730   3.650  0.7313  0.1018  0.0225
16367TIP3    H270593  -0.080   0.614   3.679 -0.4545  0.6578 -1.4441
16368TIP3   OH270594   5.052   6.392  11.994  0.1958 -0.0453 -0.1070
16368TIP3    H170595   4.978   6.381  11.935 -0.3989  1.5683  0.3108
16368TIP3    H270596   5.128   6.403  11.936 -0.1283 -0.1584 -0.5503
16369TIP3   OH270597   5.959   1.474   3.346  0.4589  0.3629  0.5781
16369TIP3    H170598   5.882   1.430   3.382  1.2686  1.2953  3.5933
16369TIP3    H270599   6.013   1.402   3.312  0.8767 -0.8960  3.6938
16370TIP3   OH270600   0.351   0.036  15.059  0.0303  0.4582  0.3207
16370TIP3    H170601   0.306  -0.048  15.064 -0.2489  0.5834 -0.0664
16370TIP3    H270602   0.310   0.090  15.127 -1.2204  0.9566 -0.8162
16371TIP3   OH270603   3.038   3.086   3.853 -0.8637 -0.5150 -0.1171
16371TIP3    H170604   3.044   2.991   3.842  0.0388 -0.2151 -2.4424
16371TIP3    H270605   3.109   3.120   3.800 -3.3819  1.6519 -2.2213
16372TIP3   OH270606   4.841   6.468  12.635  0.1849  0.2376  0.4004
16372TIP3    H170607   4.817   6.389  12.587  0.5510  0.4428 -0.1164
16372TIP3    H270608   4.777   6.472  12.706 -1.8800  1.2755 -1.4787
16373TIP3   OH270609   2.822   6.106   6.169 -0.0540 -0.5659  0.4957
16373TIP3    H170610   2.818   6.152   6.253 -1.6681 -0.8812  0.6117
16373TIP3    H270611   2.756   6.037   6.177  0.5267 -1.2582 -0.6457
16374TIP3   OH270612   2.828   2.908  17.001  1.1832 -0.5243  0.3527
16374TIP3    H170613   2.866   2.904  16.913  0.2400 -0.3441 -0.0725
16374TIP3    H270614   2.849   2.996  17.032  1.1816 -0.4560  0.1587
16375TIP3   OH270615   3.670   1.016  15.213 -0.1440 -0.1639  0.2026
16375TIP3    H170616   3.593   1.038  15.160  0.8798  1.7852 -0.4891
16375TIP3    H270617   3.745   1.043  15.161  1.0353 -1.7004  1.0432
16376TIP3   OH270618   2.124   1.633  11.339 -0.0328  0.3892  0.7317
16376TIP3    H170619   2.121   1.645  11.244  1.2067  0.0299  0.6483
16376TIP3    H270620   2.044   1.676  11.370 -1.3336 -0.9925 -0.6273
16377TIP3   OH270621   4.353   2.051  11.430 -0.0809  0.1199  0.0933
16377TIP3    H170622   4.343   1.958  11.412  0.6613 -0.2775  1.6151
16377TIP3    H270623   4.301   2.066  11.510  0.1935  0.9092  0.1335
16378TIP3   OH270624   4.016   5.249   3.951  0.4463  0.3573 -0.0343
16378TIP3    H170625   4.006   5.319   3.887  1.0625  0.5151  0.0375
16378TIP3    H270626   4.033   5.294   4.033 -2.2858  0.2181  0.6410
16379TIP3   OH270627   3.286   5.981  13.100  0.1115  0.0682 -0.1142
16379TIP3    H170628   3.204   5.932  13.109  0.4790 -0.8280 -1.4254
16379TIP3    H270629   3.354   5.919  13.128  0.3299  0.8838  1.1859
16380TIP3   OH270630   4.137   4.927  15.158  0.1041  0.2076  0.2619
16380TIP3    H170631   4.139   4.996  15.224 -2.6998  0.8159 -0.2265
16380TIP3    H270632   4.055   4.941  15.111  0.0929 -2.7005 -0.6782
16381TIP3   OH270633   0.324   0.841  15.091  0.3001  0.3260 -0.5131
16381TIP3    H170634   0.399   0.783  15.075 -0.3307 -0.1710 -1.6876
16381TIP3    H270635   0.299   0.873  15.004  1.3552  3.2939  0.2025
16382TIP3   OH270636   5.920   4.317   4.463  0.3490  0.2116  0.6529
16382TIP3    H170637   5.865   4.395   4.452 -0.0485 -0.2981 -1.1760
16382TIP3    H270638   5.872   4.263   4.526 -1.2489 -0.1681 -0.8247
16383TIP3   OH270639   5.284   2.658  13.086 -0.3205 -0.2043 -0.2925
16383TIP3    H170640   5.289   2.742  13.039 -0.3715 -0.5499 -0.9201
16383TIP3    H270641   5.216   2.609  13.040 -0.5330 -0.4608  0.2894
16384TIP3   OH270642   2.398   4.345   4.042 -0.2140 -0.2031 -0.6992
16384TIP3    H170643   2.403   4.328   4.137  0.8711  0.7252 -0.5775
16384TIP3    H270644   2.408   4.259   4.002 -0.6172 -0.5962  0.0337
16385TIP3   OH270645   1.157   6.442  16.607 -0.3996 -0.5465 -0.3698
16385TIP3    H170646   1.097   6.504  16.647 -1.2550 -1.7316  0.2327
16385TIP3    H270647   1.113   6.357  16.616  0.2226 -1.0858 -2.2065
16386TIP3   OH270648   2.064   1.328   2.141 -0.4699  0.5067 -0.1853
16386TIP3    H170649   1.994   1.264   2.129  0.0839 -0.0987 -0.2326
16386TIP3    H270650   2.129   1.304   2.075  0.1867  0.4933  0.4619
16387TIP3   OH270651   1.920   2.102   6.779  0.1535  0.2048 -0.8044
16387TIP3    H170652   1.848   2.065   6.830 -0.3707  0.0434 -1.6636
16387TIP3    H270653   1.886   2.185   6.745  0.8995  0.8833  0.0619
16388TIP3   OH270654   1.908   4.084  12.752 -1.0935  0.5362 -0.4540
16388TIP3    H170655   1.967   4.148  12.792  0.1621 -0.4833 -0.6319
16388TIP3    H270656   1.962   4.039  12.687 -2.2582  0.0471 -1.0862
16389TIP3   OH270657   4.223   0.397  15.780 -0.6557 -0.5868  0.2796
16389TIP3    H170658   4.308   0.420  15.817 -1.3561 -1.2997  2.3970
16389TIP3    H270659   4.243   0.366  15.692  1.2847 -0.7931  0.7659
16390TIP3   OH270660   6.596   2.311  16.174  0.2324 -0.0423 -0.3568
16390TIP3    H170661   6.573   2.404  16.164 -0.7827  0.0797  2.7785
16390TIP3    H270662   6.512   2.266  16.178  0.5648 -0.4924  3.1000
16391TIP3   OH270663   3.898   2.445  13.149 -0.4006  0.5127 -1.5681
16391TIP3    H170664   3.845   2.444  13.070 -1.4502  2.7781 -0.9364
16391TIP3    H270665   3.973   2.500  13.127 -0.8569  1.4126 -0.8971
16392TIP3   OH270666   2.229   5.134   3.841  0.1364  0.6834 -0.3242
16392TIP3    H170667   2.162   5.103   3.780 -0.4510  0.9293  0.1894
16392TIP3    H270668   2.183   5.146   3.923  0.7688  1.0736 -0.0202
16393TIP3   OH270669   6.594   3.672  17.222 -0.4438  0.2066  0.5943
16393TIP3    H170670   6.646   3.632  17.152 -1.4534 -0.6028  0.2976
16393TIP3    H270671   6.657   3.727  17.270  1.2976 -2.6048  1.7083
16394TIP3   OH270672   6.506   4.534   2.836  0.4693 -0.3885 -0.0122
16394TIP3    H170673   6.512   4.562   2.927 -1.4170 -1.4085  0.4505
16394TIP3    H270674   6.558   4.453   2.833  1.0646 -0.0083  0.0046
16395TIP3   OH270675   2.578   6.068   2.841 -0.0636  0.1019  0.0834
16395TIP3    H170676   2.648   6.007   2.817 -0.0846 -0.1078  0.5539
16395TIP3    H270677   2.541   6.097   2.757  2.2943  2.2333 -0.2794
16396TIP3   OH270678   2.293   4.459  16.762 -0.0938  0.9788 -0.8828
16396TIP3    H170679   2.247   4.523  16.817  2.0807  1.0739  0.8878
16396TIP3    H270680   2.381   4.494  16.753  0.3385 -0.4092 -2.2455
16397TIP3   OH270681   3.000   4.567  14.132 -0.1319 -0.7349 -0.4633
16397TIP3    H170682   3.060   4.555  14.059 -0.8778 -0.7502 -1.0774
16397TIP3    H270683   3.004   4.485  14.180  3.1860  0.5766  1.6526
16398TIP3   OH270684   3.324   2.907   3.004 -0.0502  0.4450 -0.0202
16398TIP3    H170685   3.388   2.979   3.009  1.4496 -0.9189  1.0344
16398TIP3    H270686   3.366   2.842   2.948 -0.2244 -0.7278  1.1962
16399TIP3   OH270687   4.236   2.173  12.865 -0.5901  0.1884 -0.2961
16399TIP3    H170688   4.288   2.253  12.862 -0.3051 -0.0325 -1.6324
16399TIP3    H270689   4.177   2.179  12.789 -0.9167 -0.6187 -0.1144
16400TIP3   OH270690   5.096   0.005  12.971 -0.0367 -0.7252 -0.2900
16400TIP3    H170691   5.023   0.020  12.911  0.0126 -0.0519 -0.1877
16400TIP3    H270692   5.142   0.089  12.975  0.0159 -0.7894  0.6156
16401TIP3   OH270693   4.175   1.120  11.358 -0.5565 -0.0031  0.0629
16401TIP3    H170694   4.160   1.025  11.351 -0.7026 -0.1338  1.9184
16401TIP3    H270695   4.245   1.128  11.422  1.0815  1.0542 -1.8159
16402TIP3   OH270696   0.283   2.535   6.297  0.0789 -0.2443 -0.1734
16402TIP3    H170697   0.344   2.597   6.335  0.4676 -1.4486  1.2048
16402TIP3    H270698   0.316   2.449   6.323 -0.9278 -1.0096 -1.3222
16403TIP3   OH270699   3.429   4.505   3.205 -0.2449 -0.1434 -0.2983
16403TIP3    H170700   3.382   4.428   3.236 -0.6141  0.6194  1.1350
16403TIP3    H270701   3.469   4.542   3.284  1.5213  0.0709 -1.2609
16404TIP3   OH270702   0.693   2.332   1.185  0.2303 -0.2232 -0.3243
16404TIP3    H170703   0.783   2.301   1.176  0.5244 -0.4163  2.7881
16404TIP3    H270704   0.701   2.418   1.226 -0.9771  0.0236 -0.5866
16405TIP3   OH270705   2.881   6.338  15.847 -0.0503 -0.0848  0.4776
16405TIP3    H170706   2.828   6.260  15.859 -0.2452 -0.0222 -0.0074
16405TIP3    H270707   2.937   6.319  15.772 -0.0979  0.2441  0.3590
16406TIP3   OH270708   2.510   1.123   3.981  0.1452 -0.5790 -0.0764
16406TIP3    H170709   2.455   1.120   4.060 -1.5856  2.0518 -1.1303
16406TIP3    H270710   2.448   1.139   3.909  2.0935  0.7473 -1.5131
16407TIP3   OH270711   2.573   1.027   3.294  0.4721 -0.1451  0.6247
16407TIP3    H170712   2.601   1.031   3.203  2.8262 -0.4700  1.3057
16407TIP3    H270713   2.596   1.112   3.330 -0.2043 -0.1158  0.9967
16408TIP3   OH270714   6.383   2.994  14.617  0.2683 -0.0614  0.3717
16408TIP3    H170715   6.300   2.953  14.642  0.6038 -0.4794  0.7897
16408TIP3    H270716   6.387   3.074  14.670  0.2335 -0.1466  0.5026
16409TIP3   OH270717   3.697   0.558  14.373 -0.8882 -0.6607 -0.8810
16409TIP3    H170718   3.780   0.603  14.356 -0.0747 -2.0622 -0.7605
16409TIP3    H270719   3.714   0.467  14.348 -1.9537 -1.2545  0.4887
16410TIP3   OH270720   0.516   5.728   2.516  0.4370 -0.3699 -0.1355
16410TIP3    H170721   0.568   5.767   2.586 -1.6342  1.6146  0.3611
16410TIP3    H270722   0.545   5.637   2.513  2.4603  0.1737  1.4832
16411TIP3   OH270723   1.878   6.629   3.435  0.3555 -0.0559 -0.3225
16411TIP3    H170724   1.786   6.605   3.441  0.4110 -0.7930 -1.9408
16411TIP3    H270725   1.912   6.618   3.523 -1.0935  0.1984  0.2823
16412TIP3   OH270726   6.166   6.160  15.085  0.3664 -0.1836  0.2502
16412TIP3    H170727   6.191   6.231  15.144  1.6357  0.3899 -0.9308
16412TIP3    H270728   6.212   6.083  15.119  0.1425 -0.1234  0.6931
16413TIP3   OH270729   5.736   5.763   2.393 -0.0505 -0.1969  0.3040
16413TIP3    H170730   5.644   5.755   2.418  0.4473  0.0822  2.2687
16413TIP3    H270731   5.734   5.780   2.299 -2.0190  0.1846  0.4037
16414TIP3   OH270732   1.384   3.172   1.634 -0.3664  0.0839  0.9042
16414TIP3    H170733   1.382   3.227   1.556 -2.2998  0.3064  1.1036
16414TIP3    H270734   1.429   3.092   1.605 -0.3104  0.5019 -0.1958
16415TIP3   OH270735   1.752   2.451   3.370  0.2012 -0.2232 -0.2283
16415TIP3    H170736   1.724   2.423   3.458  0.6731  1.3625  0.4343
16415TIP3    H270737   1.845   2.429   3.366 -0.3368 -2.5108 -1.2470
16416TIP3   OH270738   0.922   0.619  16.273  0.0272  0.1693  0.1316
16416TIP3    H170739   0.914   0.596  16.181 -0.2185 -1.9385  0.6545
16416TIP3    H270740   0.856   0.687  16.286 -0.1611  0.2562 -1.1760
16417TIP3   OH270741   5.543   6.062  15.965 -0.2396  0.1372  0.4226
16417TIP3    H170742   5.456   6.091  15.991  0.1298  1.3404  0.3584
16417TIP3    H270743   5.588   6.045  16.047 -0.5754 -0.6098  0.4518
16418TIP3   OH270744   3.167   2.083   1.347 -0.3771  0.4098 -0.2499
16418TIP3    H170745   3.127   2.035   1.275  0.3051 -0.2544 -0.2002
16418TIP3    H270746   3.114   2.161   1.357 -1.2809 -0.1580 -0.5855
16419TIP3   OH270747   1.353   3.467   1.560 -0.0320  0.3341 -0.3923
16419TIP3    H170748   1.339   3.550   1.515 -1.0523  0.4093  0.0454
16419TIP3    H270749   1.267   3.425   1.561  0.2887 -0.3231  0.1838
16420TIP3   OH270750   2.616   6.474  16.007 -0.3375  0.0778 -0.3854
16420TIP3    H170751   2.673   6.491  15.932 -0.6019  0.1597 -0.5722
16420TIP3    H270752   2.549   6.414  15.972 -1.6551  1.7266 -0.7656
16421TIP3   OH270753   1.932   5.493  13.543  0.3424 -0.0709  0.4973
16421TIP3    H170754   1.876   5.561  13.504  1.1105  1.1286  1.4485
16421TIP3    H270755   2.013   5.497  13.492  0.7371  0.3749  1.1590
16422TIP3   OH270756   5.833   3.669   2.263  0.1055  0.7350  0.3558
16422TIP3    H170757   5.784   3.599   2.220  1.1331 -0.9520  1.8761
16422TIP3    H270758   5.924   3.651   2.241  0.4479  1.1115  1.4582
16423TIP3   OH270759   2.623   4.795   1.257  0.1097 -0.1071  0.0634
16423TIP3    H170760   2.696   4.762   1.310  0.0236 -1.7732 -0.8128
16423TIP3    H270761   2.632   4.890   1.259  0.8513 -0.2063  2.0131
16424TIP3   OH270762   2.072   2.011  10.995  0.4078 -0.1058 -0.0731
16424TIP3    H170763   2.022   2.066  10.936 -0.3711 -1.9819 -1.2007
16424TIP3    H270764   2.065   2.055  11.080 -2.3534  0.1677 -0.4107
16425TIP3   OH270765   0.137   4.811   2.121 -0.0543 -0.1608  0.1724
16425TIP3    H170766   0.118   4.720   2.145  0.1677 -0.3446 -0.3379
16425TIP3    H270767   0.066   4.835   2.062 -1.3695  0.7414  2.0750
16426TIP3   OH270768   6.059   4.521   4.210 -0.1876  0.5375 -0.2217
16426TIP3    H170769   6.144   4.526   4.168  0.3751  1.2012  0.9851
16426TIP3    H270770   6.003   4.476   4.146  1.3366 -0.9292 -0.5519
16427TIP3   OH270771   5.231   5.058  13.029 -0.3407 -0.5484  0.4011
16427TIP3    H170772   5.208   4.976  13.073  0.5023 -0.2972  1.3115
16427TIP3    H270773   5.283   5.031  12.953 -0.6227 -0.8937  0.3284
16428TIP3   OH270774   3.014   2.659   5.360 -0.3937 -0.5504 -0.6249
16428TIP3    H170775   3.047   2.592   5.300 -0.8532 -0.6766 -0.7427
16428TIP3    H270776   2.940   2.698   5.313 -0.6081 -0.4875 -0.2385
16429TIP3   OH270777   2.938   2.060   5.470  0.0733 -0.2526 -0.2726
16429TIP3    H170778   2.854   2.106   5.463  0.5540  0.7990  0.7543
16429TIP3    H270779   2.990   2.114   5.528  1.0500 -1.5360  0.0651
16430TIP3   OH270780   4.201   2.067   1.278  0.4239  0.3341 -0.2016
16430TIP3    H170781   4.109   2.092   1.284  0.6238  1.5589 -1.9291
16430TIP3    H270782   4.230   2.060   1.369 -1.1370  0.8552  0.3478
16431TIP3   OH270783   6.049   5.432  14.707 -0.3499  0.4153  0.5984
16431TIP3    H170784   6.017   5.482  14.632 -0.6631 -0.2838  0.2607
16431TIP3    H270785   6.143   5.420  14.690 -0.9742 -2.3598 -1.2189
16432TIP3   OH270786   3.454   0.442  11.213 -0.5406 -0.4467 -0.1422
16432TIP3    H170787   3.530   0.456  11.156  0.5054  0.3364  1.3978
16432TIP3    H270788   3.379   0.452  11.155  0.5119 -0.2304 -1.4994
16433TIP3   OH270789   6.023   3.662  14.678  0.1834 -0.1449 -0.4054
16433TIP3    H170790   5.945   3.610  14.660  0.3273 -1.0355  1.3752
16433TIP3    H270791   5.990   3.750  14.696 -0.3755 -0.4203 -0.0697
16434TIP3   OH270792   1.872   5.387   3.465  0.3345 -0.0854  0.2917
16434TIP3    H170793   1.873   5.483   3.472 -1.8653  0.0955 -1.2760
16434TIP3    H270794   1.855   5.357   3.555  1.3452  0.9577  0.8474
16435TIP3   OH270795   0.509   5.820  13.658 -0.2145 -0.3752 -0.4617
16435TIP3    H170796   0.416   5.819  13.635 -0.0597  0.3469 -1.1707
16435TIP3    H270797   0.514   5.881  13.731 -0.3520 -0.7025 -0.1792
16436TIP3   OH270798   4.355   4.380  14.723 -0.1749  0.1692  0.6385
16436TIP3    H170799   4.310   4.320  14.664  0.2684 -0.2602  0.7281
16436TIP3    H270800   4.391   4.324  14.792  1.2966  0.3771  0.0690
16437TIP3   OH270801   5.604   2.694  12.630  0.1772  1.0465 -0.5856
16437TIP3    H170802   5.545   2.721  12.560  0.7708  0.1067 -1.4764
16437TIP3    H270803   5.614   2.600  12.617  0.3695  0.8861  0.7151
16438TIP3   OH270804   2.906   3.347   3.630  0.0321  0.1348  0.5010
16438TIP3    H170805   2.980   3.390   3.673  0.6377 -0.0013 -0.4100
16438TIP3    H270806   2.928   3.348   3.537 -1.3355  0.5319  0.1705
16439TIP3   OH270807   4.631   3.724  12.796 -0.0460  0.3110 -0.3027
16439TIP3    H170808   4.554   3.774  12.826  0.9085  1.0141  1.0268
16439TIP3    H270809   4.619   3.637  12.834  0.3092  0.7079  0.7180
16440TIP3   OH270810   0.210   4.416  15.279  0.5537  0.2423 -0.9069
16440TIP3    H170811   0.240   4.378  15.362  1.0857 -0.0730 -1.2451
16440TIP3    H270812   0.148   4.484  15.306  2.2529  1.5265 -0.1487
16441TIP3   OH270813   5.745   4.353   4.901 -0.2133  0.3069 -0.1290
16441TIP3    H170814   5.733   4.427   4.960  0.9866  0.1395  0.3570
16441TIP3    H270815   5.839   4.334   4.906  0.0637  0.8506 -2.8002
16442TIP3   OH270816   5.924   6.646   3.075 -0.0218  0.2236 -0.5082
16442TIP3    H170817   5.948   6.707   3.145 -0.1512  0.0837 -0.3400
16442TIP3    H270818   5.880   6.701   3.010 -2.2059 -0.0477  0.6808
16443TIP3   OH270819   3.132   4.531   4.209 -0.8861 -0.1311 -0.1234
16443TIP3    H170820   3.076   4.588   4.157 -1.3915 -0.4824  0.0324
16443TIP3    H270821   3.221   4.549   4.177 -1.0072  0.9243  0.1012
16444TIP3   OH270822   4.424   0.425   2.572 -0.4122 -0.2537 -0.5342
16444TIP3    H170823   4.332   0.418   2.548 -0.6163  0.7792 -0.0988
16444TIP3    H270824   4.424   0.429   2.668  0.0798 -0.2357 -0.5336
16445TIP3   OH270825   4.735   2.536   0.282 -0.3356  0.2348  0.0423
16445TIP3    H170826   4.666   2.521   0.346 -1.0022  0.6797 -0.5660
16445TIP3    H270827   4.797   2.593   0.327  0.1853 -1.0301  0.9605
16446TIP3   OH270828   2.990   3.840   3.874 -0.1166  0.1653 -0.5505
16446TIP3    H170829   2.902   3.839   3.834 -0.3237 -1.2604 -0.0867
16446TIP3    H270830   2.976   3.875   3.962  0.2852  2.9720 -1.5738
16447TIP3   OH270831   4.339   3.594   4.751  0.3750 -0.0539  0.5767
16447TIP3    H170832   4.394   3.609   4.674  0.6623 -0.6756  0.6543
16447TIP3    H270833   4.253   3.572   4.715  0.6067 -0.7249  0.4182
16448TIP3   OH270834   4.623   5.269  15.703  0.2184 -0.3482  0.5922
16448TIP3    H170835   4.610   5.364  15.702  1.5815 -0.1519  0.4329
16448TIP3    H270836   4.629   5.245  15.610 -0.3125 -0.6175  0.6293
16449TIP3   OH270837   0.734   5.404   4.147 -0.5755 -0.4100 -0.1125
16449TIP3    H170838   0.788   5.376   4.221 -0.3355  1.7621  0.5712
16449TIP3    H270839   0.772   5.487   4.120 -4.5508  2.0226  1.4221
16450TIP3   OH270840   1.821   5.240   5.770 -0.1933  0.4154  0.6505
16450TIP3    H170841   1.862   5.290   5.841  0.1548  0.3439  0.4983
16450TIP3    H270842   1.829   5.149   5.798  1.1592  0.2938 -0.1200
16451TIP3   OH270843   0.123   3.275   4.495 -0.2474 -0.4806  0.5084
16451TIP3    H170844   0.123   3.227   4.578  1.9463 -2.1602 -0.3954
16451TIP3    H270845   0.152   3.363   4.519 -1.9225 -0.2677  1.8424
16452TIP3   OH270846   3.757   4.310   0.591 -0.1367  0.0703  0.2169
16452TIP3    H170847   3.841   4.298   0.547  0.1697  0.2428  0.7617
16452TIP3    H270848   3.763   4.396   0.632 -1.2253  0.8436 -1.1959
16453TIP3   OH270849   4.712   3.078  11.923 -0.4786  0.3948  0.0599
16453TIP3    H170850   4.738   2.986  11.917  1.1853  0.9825 -2.0698
16453TIP3    H270851   4.636   3.077  11.981  0.0506 -2.2116  0.7794
16454TIP3   OH270852   0.256   6.627   0.223  0.3559  0.2944 -0.5183
16454TIP3    H170853   0.286   6.541   0.253 -1.5013 -0.4993 -0.8608
16454TIP3    H270854   0.166   6.612   0.196 -0.1097  2.4539 -0.2133
16455TIP3   OH270855   0.202   5.820  11.242  0.4913 -0.0867  0.1657
16455TIP3    H170856   0.285   5.858  11.271  0.4452  1.1392 -1.2460
16455TIP3    H270857   0.203   5.830  11.147 -0.1930 -2.3027 -0.0972
16456TIP3   OH270858   5.209   0.437  12.733  0.0388 -0.3454 -0.8870
16456TIP3    H170859   5.226   0.464  12.642  2.3154  0.0888 -0.3849
16456TIP3    H270860   5.269   0.492  12.785 -0.8467 -0.9697  0.8262
16457TIP3   OH270861   6.328   0.086  16.072 -0.1429 -0.3140  0.0768
16457TIP3    H170862   6.273   0.052  16.143  0.6188  0.4616  1.0529
16457TIP3    H270863   6.403   0.125  16.117 -1.1798  3.0434 -0.9753
16458TIP3   OH270864   1.498   5.485   3.304  0.0738  0.1200  0.1691
16458TIP3    H170865   1.446   5.497   3.384  0.5454  1.7670  0.2472
16458TIP3    H270866   1.588   5.486   3.334  0.3345  2.4895 -0.5437
16459TIP3   OH270867   4.610   4.855   1.120 -0.5174  0.1398  0.2347
16459TIP3    H170868   4.591   4.880   1.030 -0.6934  0.7662  0.4425
16459TIP3    H270869   4.697   4.815   1.116 -0.8430 -0.5121 -0.3253
16460TIP3   OH270870   3.789   4.315  16.964  0.4159 -0.1835 -0.0735
16460TIP3    H170871   3.830   4.228  16.958 -1.2779 -1.0573  0.5922
16460TIP3    H270872   3.769   4.326  17.058 -2.4357 -0.5694 -0.5799
16461TIP3   OH270873   4.904   0.885  14.127 -0.3366 -0.6418  0.1535
16461TIP3    H170874   4.847   0.810  14.110 -0.4363 -0.4763 -0.2389
16461TIP3    H270875   4.870   0.955  14.071  1.1049 -0.9586 -1.1436
16462TIP3   OH270876   5.655   3.630   0.572  0.3190  0.1695  0.4491
16462TIP3    H170877   5.637   3.599   0.483 -1.6565  1.6856  0.3000
16462TIP3    H270878   5.579   3.602   0.623  0.8104  0.4908  1.3658
16463TIP3   OH270879   3.605   2.025  12.524 -0.2990  0.3140 -0.1091
16463TIP3    H170880   3.561   2.062  12.447 -2.3867 -0.3387  0.7450
16463TIP3    H270881   3.552   2.054  12.598  2.2689  1.7644  1.1954
16464TIP3   OH270882   5.998   1.070   0.866  0.0332  0.4584 -0.3367
16464TIP3    H170883   5.924   1.011   0.883 -0.9361  1.9541  0.8254
16464TIP3    H270884   6.075   1.013   0.865 -0.8943 -0.8465  0.6443
16465TIP3   OH270885   1.959   2.746   2.220 -0.1045 -0.4611 -0.0014
16465TIP3    H170886   1.882   2.692   2.200  0.0244 -0.0450 -1.6644
16465TIP3    H270887   1.980   2.790   2.138  0.3404  1.4498  1.0947
16466TIP3   OH270888   3.170   0.065  17.101 -0.0331  0.7210 -0.4345
16466TIP3    H170889   3.220   0.102  17.174  0.1140 -0.2434 -0.0472
16466TIP3    H270890   3.105   0.009  17.142  0.6174 -0.5144 -1.0823
16467TIP3   OH270891   5.503   3.299  16.119 -0.1290 -0.4214 -0.1323
16467TIP3    H170892   5.465   3.238  16.056 -2.2241  0.6284  0.0599
16467TIP3    H270893   5.517   3.247  16.197  0.4348 -1.2252 -0.7603
16468TIP3   OH270894   3.560   4.785  11.967 -0.2013  0.2033  0.1516
16468TIP3    H170895   3.614   4.781  12.045 -1.0296 -0.5601  0.6933
16468TIP3    H270896   3.581   4.705  11.919 -1.7040 -0.6909  0.9451
16469TIP3   OH270897   0.335   0.862   4.514 -1.0044 -0.1935  0.5999
16469TIP3    H170898   0.385   0.877   4.595 -1.8951  1.4160  0.8587
16469TIP3    H270899   0.287   0.943   4.500 -0.7052 -0.3821 -1.6769
16470TIP3   OH270900   2.458   1.578   4.908  0.2939  0.0465  0.1595
16470TIP3    H170901   2.439   1.503   4.852 -1.3677  0.4503  0.1718
16470TIP3    H270902   2.486   1.646   4.846 -0.0555  0.0169 -0.0321
16471TIP3   OH270903   5.437   1.532   2.092 -0.2061  1.0849  0.9225
16471TIP3    H170904   5.386   1.452   2.101  3.2412 -1.4204 -0.6124
16471TIP3    H270905   5.384   1.588   2.035 -1.0011 -1.6828 -1.1580
16472TIP3   OH270906   1.175   3.935  17.056 -0.8443  0.2251  0.2175
16472TIP3    H170907   1.119   3.952  17.132  1.2352  1.9064  1.4100
16472TIP3    H270908   1.258   3.979  17.076  0.5986 -1.3955 -1.9429
16473TIP3   OH270909   6.232   4.226   1.920 -0.3344  0.3099 -0.0859
16473TIP3    H170910   6.179   4.253   1.845 -3.1305  0.6288  1.9037
16473TIP3    H270911   6.206   4.286   1.991  2.7698  0.5044  0.9709
16474TIP3   OH270912   3.583   2.245  10.838 -0.5727  0.0300 -0.0743
16474TIP3    H170913   3.590   2.337  10.860  1.2893 -0.2265  0.5414
16474TIP3    H270914   3.556   2.202  10.919 -0.3471 -0.0948 -0.0629
16475TIP3   OH270915   2.011   0.186   1.218  0.2000  0.7615 -0.0789
16475TIP3    H170916   2.032   0.111   1.162 -0.0623  1.4531 -1.1198
16475TIP3    H270917   2.011   0.261   1.159 -1.1546  1.3642  0.6517
16476TIP3   OH270918   2.268   4.806   3.742  0.0072  0.0605 -0.4055
16476TIP3    H170919   2.332   4.844   3.682 -0.6034 -1.3434 -1.9571
16476TIP3    H270920   2.191   4.862   3.734  0.6325  1.1112  0.6643
16477TIP3   OH270921   1.132   3.062  14.955 -0.1915 -0.0454  0.1068
16477TIP3    H170922   1.118   3.148  14.913 -0.2183  0.8427  1.8903
16477TIP3    H270923   1.196   3.018  14.898 -2.1266  0.1059 -2.2623
16478TIP3   OH270924   1.720   6.128  10.481 -0.2056 -0.1212 -0.3306
16478TIP3    H170925   1.672   6.091  10.555 -0.6405  0.9766 -0.0547
16478TIP3    H270926   1.653   6.171  10.427  0.2808  0.2141 -0.6772
16479TIP3   OH270927   4.471   3.868   4.883  0.1575 -0.4696  0.2592
16479TIP3    H170928   4.543   3.830   4.933  1.2776 -0.9407 -1.6733
16479TIP3    H270929   4.416   3.793   4.860  0.3077 -0.4206 -0.2632
16480TIP3   OH270930   3.278   2.968  11.291  0.2968  0.5962 -0.6652
16480TIP3    H170931   3.324   3.046  11.260  1.2457  0.1504 -0.3676
16480TIP3    H270932   3.344   2.916  11.335 -0.3803 -0.2877 -0.6720
16481TIP3   OH270933   6.745   2.460   6.644  0.2621 -0.6655 -0.0563
16481TIP3    H170934   6.758   2.555   6.646  2.2746 -0.8759 -1.3949
16481TIP3    H270935   6.833   2.424   6.628 -0.5372 -2.7437  0.0062
16482TIP3   OH270936   5.645   3.849   0.331  0.0952 -0.2006  0.2842
16482TIP3    H170937   5.630   3.881   0.420 -0.0352  0.1534  0.1384
16482TIP3    H270938   5.573   3.886   0.280  0.4299 -0.0141 -0.0569
16483TIP3   OH270939   0.536   0.043   1.131  0.2806 -0.2639  0.1070
16483TIP3    H170940   0.502  -0.046   1.122 -1.7594  0.2500  2.2041
16483TIP3    H270941   0.485   0.081   1.202  0.1194  3.0703 -1.6986
16484TIP3   OH270942   0.168   0.417  13.639  0.2806 -0.0357 -0.4217
16484TIP3    H170943   0.101   0.350  13.633  0.8339 -0.6652  0.3781
16484TIP3    H270944   0.169   0.458  13.552  1.6907 -2.7503 -1.7498
16485TIP3   OH270945   1.653   5.598   4.461 -0.5745  0.1266 -0.4737
16485TIP3    H170946   1.670   5.682   4.418 -3.1489  0.5150 -0.7903
16485TIP3    H270947   1.558   5.594   4.471 -0.4696 -2.5890 -0.0930
16486TIP3   OH270948   0.247   3.890   5.209 -0.2175 -0.4370  0.2820
16486TIP3    H170949   0.277   3.820   5.267  0.5774  1.1756  1.8730
16486TIP3    H270950   0.159   3.911   5.240  0.2802  0.5539  1.0340
16487TIP3   OH270951   6.624   0.666  16.917  0.3011  0.5830  0.3844
16487TIP3    H170952   6.711   0.668  16.957 -0.9616 -0.0312  3.2399
16487TIP3    H270953   6.568   0.716  16.976 -2.0139 -1.9009  0.4006
16488TIP3   OH270954   1.608   4.850  11.604  0.1658  0.4011 -0.0679
16488TIP3    H170955   1.633   4.811  11.520 -0.2079 -1.2283  0.5452
16488TIP3    H270956   1.659   4.930  11.610  0.7538  0.1517 -1.5148
16489TIP3   OH270957   6.189   4.366  12.946  0.0068 -0.3222 -0.1926
16489TIP3    H170958   6.266   4.422  12.959  0.7919 -1.0043 -1.8131
16489TIP3    H270959   6.212   4.283  12.988 -1.0573  0.4153  1.9766
16490TIP3   OH270960   0.322   1.662  11.909  0.1223  0.1336 -0.0670
16490TIP3    H170961   0.266   1.725  11.864  0.8045  0.5079 -0.4011
16490TIP3    H270962   0.261   1.606  11.957 -0.4960  1.0704  0.2665
16491TIP3   OH270963   1.347   4.579   3.173  0.1373  0.1418 -0.4147
16491TIP3    H170964   1.295   4.502   3.150  0.5993 -0.0198 -0.9148
16491TIP3    H270965   1.314   4.605   3.259 -0.1981 -0.4557 -0.3614
16492TIP3   OH270966   1.543   2.334  14.466 -0.0976  0.3232  0.5743
16492TIP3    H170967   1.601   2.401  14.503 -0.0758  0.6086  0.0356
16492TIP3    H270968   1.548   2.261  14.528  3.6737 -1.1052 -1.2762
16493TIP3   OH270969   6.467   4.824   0.234  0.3959  0.0964  0.0763
16493TIP3    H170970   6.536   4.867   0.184 -0.5554  0.1816 -1.1897
16493TIP3    H270971   6.423   4.767   0.170 -1.4233  0.9129  0.5795
16494TIP3   OH270972   5.026   6.378  13.887 -0.5350  0.2282 -0.9156
16494TIP3    H170973   5.065   6.459  13.853 -1.0269  0.4064 -1.0617
16494TIP3    H270974   4.932   6.388  13.870 -0.9624  0.9188  1.7259
16495TIP3   OH270975   3.351   3.803   3.464 -0.6050 -1.2996  0.3536
16495TIP3    H170976   3.320   3.767   3.547  0.1238 -0.0927  1.1722
16495TIP3    H270977   3.296   3.879   3.448 -0.3755 -1.2006  0.0249
16496TIP3   OH270978   4.984   0.474  14.428  0.0606 -0.3011  0.1319
16496TIP3    H170979   5.065   0.440  14.466 -0.7572 -1.0275  1.2198
16496TIP3    H270980   4.924   0.400  14.428 -0.3142 -0.0257 -1.5696
16497TIP3   OH270981   1.654   2.978  16.196  0.2913  0.2600  0.7286
16497TIP3    H170982   1.713   3.037  16.149 -0.7118  0.6308 -0.1208
16497TIP3    H270983   1.613   2.926  16.127  1.1661 -1.4437  1.4760
16498TIP3   OH270984   0.982   5.904  16.625 -0.1805  0.2990 -0.4902
16498TIP3    H170985   0.951   5.822  16.587  4.8525 -2.2998  0.5486
16498TIP3    H270986   0.941   5.908  16.711 -1.2912 -0.5787 -0.9787
16499TIP3   OH270987   2.324   2.881   4.068 -0.2201  0.3182  0.2612
16499TIP3    H170988   2.398   2.906   4.123 -0.1406  0.6748 -0.0067
16499TIP3    H270989   2.317   2.951   4.003  0.9097 -1.0386 -1.3845
16500TIP3   OH270990   0.390   3.288  17.263  0.0656  0.0036 -0.1353
16500TIP3    H170991   0.362   3.349  17.331  0.2795 -0.6149  0.5178
16500TIP3    H270992   0.472   3.250  17.297 -1.0362 -2.0353  0.3431
16501TIP3   OH270993   4.151   3.744   3.574 -1.1739  0.2491 -0.2352
16501TIP3    H170994   4.107   3.687   3.636 -1.5085  1.6348  0.8236
16501TIP3    H270995   4.241   3.749   3.606 -0.6891 -1.0869 -1.3398
16502TIP3   OH270996   5.061   0.151  16.288  0.3811 -0.2280 -0.3009
16502TIP3    H170997   4.987   0.094  16.309  0.7481 -1.0801 -1.2743
16502TIP3    H270998   5.052   0.168  16.194  1.0351  0.2296 -0.2809
16503TIP3   OH270999   6.538   3.962   6.063  0.0261  0.1127  0.1031
16503TIP3    H171000   6.548   4.034   6.126  1.2119  1.6875 -1.8692
16503TIP3    H271001   6.517   4.005   5.980  0.3397 -1.8523 -1.0164
16504TIP3   OH271002   4.633   6.645   0.327 -0.7083  0.6927 -0.2558
16504TIP3    H171003   4.582   6.566   0.312 -1.6473  0.9370  1.4323
16504TIP3    H271004   4.667   6.669   0.241 -1.3109 -0.9273 -0.9640
16505TIP3   OH271005   0.963   0.637  12.805 -0.4590  1.0081 -0.0334
16505TIP3    H171006   0.932   0.625  12.715 -1.6024 -0.4000  0.5202
16505TIP3    H271007   0.958   0.731  12.820 -0.8613  1.1838 -1.2391
16506TIP3   OH271008   1.494   1.687  11.668  0.7513 -0.2028 -0.2535
16506TIP3    H171009   1.438   1.621  11.710  1.4575 -1.7480 -1.6632
16506TIP3    H271010   1.462   1.690  11.577  0.1413  2.0777  0.0172
16507TIP3   OH271011   2.224   2.998  12.405  0.4360  0.9445  0.8196
16507TIP3    H171012   2.295   2.936  12.388 -1.9142 -1.3616 -0.8665
16507TIP3    H271013   2.209   2.991  12.499  0.8142 -0.3708  0.7950
16508TIP3   OH271014   0.223   4.687   5.872 -0.3696  0.2312  0.0105
16508TIP3    H171015   0.270   4.728   5.799 -0.4333  1.7766  0.8068
16508TIP3    H271016   0.130   4.705   5.854 -0.5343 -1.0916 -0.5293
16509TIP3   OH271017   3.569   1.574   1.735  0.6491 -0.3502  0.0413
16509TIP3    H171018   3.660   1.591   1.756  0.0770  2.2283  0.5048
16509TIP3    H271019   3.561   1.597   1.642  0.1651  0.6707  0.3378
16510TIP3   OH271020   1.370   5.549   4.938  0.4761 -0.0603 -0.1023
16510TIP3    H171021   1.394   5.532   5.029 -1.6958  1.2336  0.7306
16510TIP3    H271022   1.433   5.615   4.909  1.4060 -0.7456  0.3352
16511TIP3   OH271023   0.868   5.183  15.173 -0.2170 -0.0992 -0.3153
16511TIP3    H171024   0.856   5.091  15.149 -0.0337  0.1569 -1.3917
16511TIP3    H271025   0.924   5.179  15.251  0.5333 -0.8633 -0.8816
16512TIP3   OH271026   5.242   1.466  11.565 -0.1478  0.0351 -0.0240
16512TIP3    H171027   5.256   1.394  11.504  3.0699 -0.8351  1.6584
16512TIP3    H271028   5.257   1.546  11.514  1.7283 -0.6604 -0.5829
16513TIP3   OH271029   2.661   2.401  16.739  0.0274  0.5707 -0.3919
16513TIP3    H171030   2.650   2.438  16.827 -2.7074 -2.2951  0.5649
16513TIP3    H271031   2.590   2.439  16.688 -1.4658 -1.5723  0.0243
16514TIP3   OH271032   6.283   5.058   0.072 -0.0654 -0.0904 -0.1967
16514TIP3    H171033   6.255   4.970   0.100  2.0078 -0.6212  0.3153
16514TIP3    H271034   6.310   5.046  -0.019  1.1810 -0.2258  0.1803
16515TIP3   OH271035   0.941   4.601   1.220 -0.5160 -1.4526 -0.1614
16515TIP3    H171036   0.973   4.514   1.244  0.8548 -0.7363  0.6559
16515TIP3    H271037   0.929   4.647   1.304 -0.2745 -0.5238 -0.6245
16516TIP3   OH271038   4.411   2.452   0.240 -0.2332 -0.0351  0.3712
16516TIP3    H171039   4.347   2.399   0.192 -0.4093  0.3037  0.2282
16516TIP3    H271040   4.433   2.399   0.317 -0.1740 -0.4476  0.0711
16517TIP3   OH271041   6.350   3.930  11.502  0.2032  0.3671 -0.1794
16517TIP3    H171042   6.387   3.843  11.485 -0.4973  0.4843 -2.4469
16517TIP3    H271043   6.390   3.957  11.585  2.2098 -1.1416 -0.6069
16518TIP3   OH271044   3.534   2.311  15.902  0.5086 -0.3376  0.3668
16518TIP3    H171045   3.600   2.367  15.944 -0.0839  0.3562  0.3722
16518TIP3    H271046   3.457   2.316  15.958  0.1913 -0.5503 -0.0410
16519TIP3   OH271047   5.547   4.385   3.479 -0.4440 -0.5549 -0.1086
16519TIP3    H171048   5.491   4.460   3.500 -0.8644 -1.1243  0.8514
16519TIP3    H271049   5.486   4.316   3.455 -0.0688 -0.6673 -0.7397
16520TIP3   OH271050   2.668   1.402   5.558  0.0717  0.1188 -0.3011
16520TIP3    H171051   2.697   1.318   5.593  1.6798  0.6918 -0.2430
16520TIP3    H271052   2.748   1.451   5.543 -0.8478  1.5983 -0.4716
16521TIP3   OH271053   2.443   0.941  11.693 -0.0512 -0.2063  0.8432
16521TIP3    H171054   2.489   0.859  11.707 -0.1971 -0.2944  0.8113
16521TIP3    H271055   2.387   0.924  11.617 -0.4916 -0.2491  1.1749
16522TIP3   OH271056   6.373   5.647   2.338  0.2167  0.4799 -0.4882
16522TIP3    H171057   6.403   5.705   2.409 -0.2652  0.7980 -0.5427
16522TIP3    H271058   6.449   5.639   2.281  0.9556 -0.6438  0.6183
16523TIP3   OH271059   6.150   0.627   3.534 -0.0266  0.1222  1.0217
16523TIP3    H171060   6.096   0.586   3.467 -0.2406 -0.7971  1.7480
16523TIP3    H271061   6.154   0.563   3.605 -1.8468  2.0271  2.9433
16524TIP3   OH271062   5.398   2.175  16.156  0.5475 -0.2741 -0.0504
16524TIP3    H171063   5.413   2.265  16.184  0.8165 -0.3466  0.0434
16524TIP3    H271064   5.309   2.156  16.183  0.8639 -0.3961  0.9060
16525TIP3   OH271065   3.077   4.226   0.545 -0.0826 -0.0310 -0.4083
16525TIP3    H171066   3.089   4.132   0.557 -0.8567 -0.1366 -0.4265
16525TIP3    H271067   3.081   4.263   0.633  1.6913  0.1042 -0.5298
16526TIP3   OH271068   6.492   6.797   5.885  0.3845 -0.4271 -0.5389
16526TIP3    H171069   6.585   6.806   5.908  0.7042 -1.1603 -1.4847
16526TIP3    H271070   6.487   6.713   5.840 -1.4828 -2.3285  3.0060
16527TIP3   OH271071   3.480   3.806   2.072 -0.4551  0.1276 -0.0677
16527TIP3    H171072   3.486   3.902   2.075 -0.0833  0.1337 -0.8136
16527TIP3    H271073   3.432   3.788   1.991 -0.8490 -0.3045  0.2666
16528TIP3   OH271074   3.546   3.099  15.507 -0.3305  0.4470 -0.0110
16528TIP3    H171075   3.494   3.021  15.525 -0.9250  0.4295 -1.7133
16528TIP3    H271076   3.623   3.091  15.564 -1.8131  0.1259  2.0136
16529TIP3   OH271077   2.601   6.496   1.680  0.0844  0.0938  0.1038
16529TIP3    H171078   2.633   6.437   1.748  0.2250  0.0198 -0.0278
16529TIP3    H271079   2.670   6.562   1.671 -0.9086  1.3960  1.6196
16530TIP3   OH271080   3.124   3.513   6.190 -0.1224  0.7457 -0.5487
16530TIP3    H171081   3.121   3.442   6.127  0.1689 -1.0875  1.4493
16530TIP3    H271082   3.035   3.549   6.190 -0.4776 -0.1225 -1.0117
16531TIP3   OH271083   1.504   1.120  14.673 -0.6552 -1.4670 -0.1861
16531TIP3    H171084   1.520   1.208  14.708  1.9925 -1.7678 -0.5977
16531TIP3    H271085   1.496   1.134  14.578 -0.6338 -1.6336 -0.2122
16532TIP3   OH271086   3.688   0.646  15.913  0.0586 -0.7623 -0.3314
16532TIP3    H171087   3.778   0.613  15.920  0.0054 -0.8857 -0.2370
16532TIP3    H271088   3.699   0.739  15.895  0.1974 -0.2817  2.0652
16533TIP3   OH271089   4.170   6.158  12.917  0.0738 -0.0786 -0.5139
16533TIP3    H171090   4.225   6.210  12.975 -0.2269  0.1036 -0.3866
16533TIP3    H271091   4.092   6.138  12.970 -0.7151  1.0508 -1.2092
16534TIP3   OH271092   4.921   3.314   2.418  0.2590  0.4236  0.6658
16534TIP3    H171093   5.016   3.309   2.428  0.2557 -0.6221  0.2963
16534TIP3    H271094   4.892   3.224   2.433 -0.3258 -0.0358 -2.9502
16535TIP3   OH271095   1.451   6.423  13.169 -0.1363 -0.3108  0.0137
16535TIP3    H171096   1.369   6.471  13.151  0.5639  1.6414  1.8409
16535TIP3    H271097   1.517   6.491  13.178  1.2846 -1.7472  0.7078
16536TIP3   OH271098   6.799   1.756   0.465  0.2503 -0.0502 -0.1404
16536TIP3    H171099   6.761   1.810   0.534 -0.3385  0.5249 -0.9142
16536TIP3    H271100   6.740   1.681   0.456  0.5210 -0.3103  0.2241
16537TIP3   OH271101   5.233   3.840   5.640 -0.0440  0.3331  0.1097
16537TIP3    H171102   5.284   3.917   5.614 -0.1728 -0.0842 -1.4398
16537TIP3    H271103   5.161   3.875   5.691  0.8971  1.0800  0.9628
16538TIP3   OH271104   3.437   3.560  15.160 -0.2704  0.1421 -0.3164
16538TIP3    H171105   3.483   3.545  15.243  0.2826  0.2489 -0.6029
16538TIP3    H271106   3.441   3.655  15.148  0.7123  0.0189 -1.0655
16539TIP3   OH271107   4.066   5.020  15.659 -0.1347 -0.1412  0.4692
16539TIP3    H171108   4.097   4.934  15.689 -0.7916 -1.0541 -1.3834
16539TIP3    H271109   4.143   5.059  15.617 -0.7111 -1.2971 -1.7544
16540TIP3   OH271110   5.720   1.031   0.422  0.3085 -0.0563 -0.3621
16540TIP3    H171111   5.732   0.958   0.361 -1.0325  0.8558 -1.7604
16540TIP3    H271112   5.652   1.085   0.381 -0.4066  0.7321  1.8092
16541TIP3   OH271113   6.289   0.103  17.173  0.0999  0.0093 -0.3603
16541TIP3    H171114   6.342   0.031  17.206 -0.3035 -0.1803 -0.1280
16541TIP3    H271115   6.335   0.132  17.094 -0.0098 -0.8391 -0.7414
16542TIP3   OH271116   0.522   1.020   4.011 -0.7186 -0.2359 -0.1084
16542TIP3    H171117   0.511   0.931   4.046 -0.8414 -1.0205 -2.0723
16542TIP3    H271118   0.541   1.074   4.088 -1.4835 -1.8115  1.2245
16543TIP3   OH271119   2.986   3.758   1.263 -0.4931  0.2937 -0.3489
16543TIP3    H171120   3.002   3.702   1.340 -1.4532 -0.0853 -0.4122
16543TIP3    H271121   3.025   3.710   1.190 -1.3030 -0.3052 -0.3998
16544TIP3   OH271122   3.947   0.022  15.149  1.0585  0.1053  0.1214
16544TIP3    H171123   3.937  -0.034  15.072  3.0062 -1.7341  1.1804
16544TIP3    H271124   3.909  -0.028  15.221  1.0514  0.9740  0.7313
16545TIP3   OH271125   0.472   2.431  12.790  0.0249  0.4974 -0.1230
16545TIP3    H171126   0.480   2.525  12.801  0.0613  0.4058  0.6912
16545TIP3    H271127   0.495   2.415  12.698 -2.3163  1.5257 -0.9339
16546TIP3   OH271128   4.421   2.165  16.649  0.1197 -0.2784 -0.0592
16546TIP3    H171129   4.353   2.121  16.600  1.3816 -0.0307 -2.0849
16546TIP3    H271130   4.432   2.112  16.728 -0.6632 -1.7208 -0.8983
16547TIP3   OH271131   5.376   1.122   2.467 -0.0660 -0.3826  0.3557
16547TIP3    H171132   5.394   1.208   2.428  0.0572 -1.1125 -1.1967
16547TIP3    H271133   5.462   1.087   2.490 -0.0772 -0.3258  0.4828
16548TIP3   OH271134   3.942   0.781   0.423 -0.6143 -0.8478 -0.2193
16548TIP3    H171135   3.973   0.842   0.490 -0.9992 -0.8167 -0.0634
16548TIP3    H271136   3.867   0.826   0.383 -0.0381 -0.6294 -1.0533
16549TIP3   OH271137   2.640   1.738  17.168  0.1715  0.1433  0.1826
16549TIP3    H171138   2.735   1.739  17.176  0.4557 -0.2699 -2.6001
16549TIP3    H271139   2.616   1.830  17.154  0.4490 -0.0306 -1.5893
16550TIP3   OH271140   2.479   0.154   3.686  0.3519  0.4899  0.2206
16550TIP3    H171141   2.456   0.204   3.764 -0.1500  0.2643  0.2198
16550TIP3    H271142   2.458   0.063   3.709  0.3847  0.4001 -0.1073
16551TIP3   OH271143   0.300   6.143   1.322  0.4972 -0.1704  0.2356
16551TIP3    H171144   0.357   6.095   1.263  1.1486 -1.1273  1.6187
16551TIP3    H271145   0.328   6.234   1.313  1.1366 -0.4141 -0.3127
16552TIP3   OH271146   5.022   2.070   6.700 -0.5391 -0.1983 -0.1503
16552TIP3    H171147   5.094   2.120   6.661  0.1729  0.5768  2.1212
16552TIP3    H271148   4.963   2.136   6.736  0.2414 -0.9503  2.5828
16553TIP3   OH271149   5.489   4.715   2.113 -0.3813 -0.3063 -0.2825
16553TIP3    H171150   5.470   4.652   2.044 -1.0607 -0.7413  0.2942
16553TIP3    H271151   5.499   4.661   2.192  0.9154  0.1335 -0.1287
16554TIP3   OH271152   6.086   3.885  16.720  0.2890 -0.2378  0.0111
16554TIP3    H171153   6.116   3.804  16.760  1.2341  0.7357  1.3260
16554TIP3    H271154   6.147   3.900  16.647  1.1551  0.1402  0.7948
16555TIP3   OH271155   0.616   1.582   2.344  0.6834 -0.1199 -0.4127
16555TIP3    H171156   0.556   1.629   2.402 -0.5721 -0.7821 -1.1499
16555TIP3    H271157   0.700   1.626   2.355 -0.3312  1.9191 -0.6235
16556TIP3   OH271158   0.975   4.793  14.405  0.5884 -0.1276  0.2155
16556TIP3    H171159   0.900   4.739  14.432  0.9906 -0.5142  0.5658
16556TIP3    H271160   0.946   4.836  14.324  0.8646 -2.1473 -0.9882
16557TIP3   OH271161   5.080   4.839  12.254  0.8454  0.1993  0.5727
16557TIP3    H171162   4.985   4.833  12.264  0.7986 -1.6838 -0.8558
16557TIP3    H271163   5.107   4.902  12.321 -1.5296  1.6407  0.2321
16558TIP3   OH271164   2.498   5.850   2.984  0.9135  0.1286 -0.0523
16558TIP3    H171165   2.486   5.933   2.939  0.8702  1.2375  1.9379
16558TIP3    H271166   2.583   5.858   3.028 -0.1049  0.0456  2.0091
16559TIP3   OH271167   5.993   3.031  14.907  0.2551  0.2845  0.4381
16559TIP3    H171168   6.073   2.980  14.921  0.3984  0.2182 -0.5336
16559TIP3    H271169   5.940   2.976  14.850  0.3929  1.1916 -0.5859
16560TIP3   OH271170   3.198   3.251  14.767  0.4479 -0.2257 -0.0724
16560TIP3    H171171   3.248   3.326  14.798 -1.1817 -0.3323  3.0599
16560TIP3    H271172   3.143   3.286  14.697  2.0139  0.7473 -0.8469
16561TIP3   OH271173   3.039   0.099  16.863  0.4054  0.0230 -0.5842
16561TIP3    H171174   3.094   0.083  16.939  0.6239 -2.3402 -1.1956
16561TIP3    H271175   2.950   0.108  16.899  0.6702  0.1159  0.0509
16562TIP3   OH271176   4.245   4.659  10.042  0.1086  0.3801 -0.2165
16562TIP3    H171177   4.258   4.565  10.030 -1.0025  0.3788 -1.6826
16562TIP3    H271178   4.331   4.693  10.064  0.3642 -1.0968  1.1990
16563TIP3   OH271179   5.150   2.495   5.590  0.0999  0.0929 -0.0739
16563TIP3    H171180   5.082   2.539   5.538 -0.0967  0.0747  0.1686
16563TIP3    H271181   5.158   2.409   5.550 -0.2808 -0.0355  0.1256
16564TIP3   OH271182   6.651   4.399  14.199 -0.0216  0.5781  0.0123
16564TIP3    H171183   6.719   4.334  14.218 -0.3485  0.1867 -0.1396
16564TIP3    H271184   6.692   4.483  14.216  0.6882  0.3710 -0.6278
16565TIP3   OH271185   2.012   4.336   1.003 -0.0741 -0.4309  0.8302
16565TIP3    H171186   2.044   4.289   0.926 -0.4320 -1.2719  1.1873
16565TIP3    H271187   2.035   4.427   0.986  0.7813 -0.7523  0.2024
16566TIP3   OH271188   4.011   0.179   2.316 -0.2657 -0.2387  0.0800
16566TIP3    H171189   4.047   0.118   2.380 -0.2118 -0.4046 -0.1067
16566TIP3    H271190   4.087   0.216   2.272 -0.3269 -0.7211 -0.4358
16567TIP3   OH271191   6.057   1.539  15.018  0.2515  0.0992  0.3552
16567TIP3    H171192   6.014   1.456  15.038 -1.8406  0.5196 -2.1924
16567TIP3    H271193   5.988   1.605  15.030  1.3482  1.2564  0.3534
16568TIP3   OH271194   2.074   0.096  17.162 -0.2586  0.0230  0.0456
16568TIP3    H171195   2.114   0.180  17.186 -0.0087 -0.4030  1.1874
16568TIP3    H271196   2.066   0.099  17.067 -0.0930  1.2703  0.0561
16569TIP3   OH271197   3.098   5.817  14.219  0.6126 -0.7070 -0.3111
16569TIP3    H171198   3.164   5.776  14.163  2.1211 -1.1181  1.7080
16569TIP3    H271199   3.148   5.859  14.288 -1.2341 -0.6209  1.0120
16570TIP3   OH271200   5.380   1.200  17.210 -0.1692 -0.7415  0.4185
16570TIP3    H171201   5.474   1.194  17.226 -0.2573  0.2882  1.3586
16570TIP3    H271202   5.371   1.186  17.116  1.2217  2.1028 -0.1845
16571TIP3   OH271203   2.995   5.656  17.050  0.5360  0.2183 -0.2453
16571TIP3    H171204   2.953   5.572  17.069  1.0145  0.3374  1.3742
16571TIP3    H271205   2.988   5.665  16.955  0.2439 -1.5248 -0.4008
16572TIP3   OH271206   5.430   3.138   2.346  0.1330 -0.0289  0.5548
16572TIP3    H171207   5.487   3.183   2.284 -2.4110  1.7549 -0.5784
16572TIP3    H271208   5.398   3.062   2.298 -1.3447  1.0123 -0.1465
16573TIP3   OH271209   5.971   5.612  15.030  0.2587 -1.2507  0.8126
16573TIP3    H171210   5.881   5.633  15.056  0.3193 -0.3799  0.3215
16573TIP3    H271211   5.983   5.657  14.947  0.2975 -3.4665 -0.4287
16574TIP3   OH271212   3.967   2.358   3.796 -0.0535 -0.1578 -0.3462
16574TIP3    H171213   3.911   2.403   3.859  0.2716  0.4999 -0.5225
16574TIP3    H271214   4.053   2.357   3.837 -0.1743 -1.1141 -0.1010
16575TIP3   OH271215   0.923   5.130   3.052 -0.8632  0.6718  0.3751
16575TIP3    H171216   0.867   5.066   3.095  0.5370 -0.8988 -0.1119
16575TIP3    H271217   1.012   5.099   3.068 -0.1225  2.8036  0.6333
16576TIP3   OH271218   2.692   6.336   1.223 -0.0778  0.4892 -0.2994
16576TIP3    H171219   2.787   6.336   1.208  0.0824 -2.1086  0.3336
16576TIP3    H271220   2.684   6.333   1.318 -0.7317 -1.7457 -0.4082
16577TIP3   OH271221   2.601   4.726  16.082 -0.6320 -0.3068  0.5752
16577TIP3    H171222   2.584   4.807  16.034  0.4723 -0.0798  0.5492
16577TIP3    H271223   2.645   4.669  16.018  0.2531 -0.2428  1.1147
16578TIP3   OH271224   3.274   3.322  11.123 -0.1161  0.0971 -1.0759
16578TIP3    H171225   3.205   3.277  11.171  0.6420 -1.0963 -1.1027
16578TIP3    H271226   3.227   3.381  11.064 -1.0704  0.8901  0.4245
16579TIP3   OH271227   6.386   3.457  15.894  0.1770 -0.3792 -0.3266
16579TIP3    H171228   6.389   3.512  15.817 -0.3443 -2.7971 -2.1330
16579TIP3    H271229   6.299   3.472  15.931  0.8888  1.7261  0.5329
16580TIP3   OH271230   1.478   4.874   0.151 -0.0641  0.3277  0.0580
16580TIP3    H171231   1.466   4.949   0.210 -0.9393  0.9505 -0.8904
16580TIP3    H271232   1.501   4.914   0.067 -1.9013 -0.3891 -0.8111
16581TIP3   OH271233   5.646   4.936  16.608 -0.2910  0.3216  0.5029
16581TIP3    H171234   5.610   5.021  16.633 -0.8067  0.0089  0.8642
16581TIP3    H271235   5.739   4.951  16.597 -0.4772  1.0759 -0.0750
16582TIP3   OH271236   5.298   4.948   4.253  0.1018 -0.2032  0.2149
16582TIP3    H171237   5.312   4.885   4.182  1.2911  0.1416  0.1431
16582TIP3    H271238   5.215   4.921   4.293 -1.2568  0.3490 -2.1190
16583TIP3   OH271239   0.204   1.536  12.122 -0.2877  0.0419 -0.0624
16583TIP3    H171240   0.237   1.588  12.195 -0.1711  1.1663 -0.9113
16583TIP3    H271241   0.208   1.446  12.154 -0.6581  0.5479  1.4831
16584TIP3   OH271242   2.531   1.577  15.444  0.6985 -0.0190  0.8449
16584TIP3    H171243   2.576   1.529  15.514  1.5258  0.4885  0.6659
16584TIP3    H271244   2.601   1.619  15.394 -0.0554  2.2505  1.6321
16585TIP3   OH271245   6.790   3.408   2.199 -0.0774  0.2171 -0.5908
16585TIP3    H171246   6.878   3.393   2.234 -1.3538 -1.7387  1.9697
16585TIP3    H271247   6.778   3.340   2.133 -0.3611 -0.7768  0.4625
16586TIP3   OH271248   3.375   0.305   1.513 -0.2859  0.0251  0.2605
16586TIP3    H171249   3.300   0.245   1.524 -1.0898  0.8310 -0.6952
16586TIP3    H271250   3.433   0.284   1.585 -1.6397 -0.3359  1.2712
16587TIP3   OH271251   2.732   6.086   3.823 -0.7317 -0.4575 -1.0474
16587TIP3    H171252   2.732   6.055   3.913 -0.8208  1.0267 -0.5119
16587TIP3    H271253   2.753   6.180   3.830  0.3496 -0.5548 -2.6452
16588TIP3   OH271254   0.990   0.037   1.809  0.6015  0.6038  0.3649
16588TIP3    H171255   0.980   0.020   1.715 -1.0634  0.7576  0.5147
16588TIP3    H271256   1.075  -0.002   1.830 -0.4721 -2.3633 -0.5250
16589TIP3   OH271257   4.618   3.878  15.936  0.4158 -0.2361 -0.2227
16589TIP3    H171258   4.661   3.841  16.013 -0.1698 -1.2030 -0.3412
16589TIP3    H271259   4.661   3.835  15.861  0.3327 -0.0207 -0.3949
16590TIP3   OH271260   0.048   1.792  13.180 -0.2060 -0.7761  0.0616
16590TIP3    H171261   0.065   1.870  13.126  2.0175  0.0996  1.9271
16590TIP3    H271262  -0.035   1.811  13.224  1.0560  1.3048  1.6754
16591TIP3   OH271263   5.417   5.270   3.607 -0.1412  0.2630 -0.3976
16591TIP3    H171264   5.331   5.238   3.579  0.2402 -0.8169 -0.3831
16591TIP3    H271265   5.401   5.358   3.639 -1.2035  0.1626 -0.6281
16592TIP3   OH271266   6.249   1.170   1.642  0.0203  0.1903 -0.2818
16592TIP3    H171267   6.312   1.240   1.660 -0.0694  0.2337 -0.1360
16592TIP3    H271268   6.179   1.212   1.593  0.2398  0.0832 -0.6851
16593TIP3   OH271269   3.540   5.702   4.197  0.0545  0.4140  0.3334
16593TIP3    H171270   3.584   5.690   4.114  1.8979 -0.4545  1.4122
16593TIP3    H271271   3.537   5.797   4.209 -0.4334  0.5499 -0.8198
16594TIP3   OH271272   5.207   6.103  11.981 -0.2543 -0.6120  1.0090
16594TIP3    H171273   5.227   6.130  11.892  0.7067 -0.6464  1.2085
16594TIP3    H271274   5.124   6.147  12.002  0.1814  0.4372  0.5661
16595TIP3   OH271275   5.870   3.339  17.233 -0.0359 -0.0868  0.1904
16595TIP3    H171276   5.901   3.279  17.164 -2.1818 -1.4654  0.3601
16595TIP3    H271277   5.920   3.419  17.219  0.4813 -0.7697 -2.1924
16596TIP3   OH271278   6.756   6.213   4.084 -0.2080  0.1399 -0.0973
16596TIP3    H171279   6.713   6.129   4.103  0.5569  0.0945  1.5148
16596TIP3    H271280   6.704   6.252   4.014 -0.0662 -2.0851 -1.4923
16597TIP3   OH271281   6.271   0.144  11.426  0.3320 -0.3735  0.2094
16597TIP3    H171282   6.210   0.105  11.488 -1.3064 -0.6829 -1.5449
16597TIP3    H271283   6.289   0.075  11.362  1.3625  0.1874 -0.1292
16598TIP3   OH271284   5.880   0.809  10.447  0.0205 -0.8261  0.4368
16598TIP3    H171285   5.975   0.818  10.457  0.1055  0.7446 -1.3673
16598TIP3    H271286   5.845   0.893  10.477 -0.7189 -1.0859  0.3171
16599TIP3   OH271287   5.336   5.151  10.748 -0.1076  0.1011 -0.1697
16599TIP3    H171288   5.260   5.126  10.801  1.6574  1.6464  3.2582
16599TIP3    H271289   5.303   5.221  10.691 -1.7276 -0.6229 -0.1503
16600TIP3   OH271290   4.325   0.781  13.962  0.5375  0.1562  0.4592
16600TIP3    H171291   4.289   0.693  13.954  0.4411  0.0346  2.1412
16600TIP3    H271292   4.417   0.771  13.937  0.4705 -0.3696  0.4168
16601TIP3   OH271293   0.478   0.067  14.060  0.1962 -0.2262  0.1127
16601TIP3    H171294   0.463  -0.008  14.002 -1.5705 -0.3584  0.7189
16601TIP3    H271295   0.391   0.092  14.090  0.7437  2.1688 -0.1847
16602TIP3   OH271296   1.444   0.434   1.630  0.1731 -0.5523  0.7228
16602TIP3    H171297   1.355   0.423   1.663 -0.1773  0.3321  0.0857
16602TIP3    H271298   1.439   0.413   1.537  0.8172 -1.4030  0.8792
16603TIP3   OH271299   3.983   4.777  14.755 -0.1060 -0.3475 -0.4987
16603TIP3    H171300   3.904   4.726  14.773 -0.7648  1.1235  0.8867
16603TIP3    H271301   4.047   4.745  14.818 -0.2628 -0.0376 -0.1828
16604TIP3   OH271302   0.502   5.092  11.739  0.4763 -0.4268  0.2123
16604TIP3    H171303   0.438   5.105  11.669 -0.2541  0.5732  1.0464
16604TIP3    H271304   0.564   5.029  11.704 -0.5170 -0.7882 -0.9144
16605TIP3   OH271305   1.597   4.449   5.794 -0.6453  0.1459 -0.0207
16605TIP3    H171306   1.510   4.435   5.757  0.0903 -1.7456 -1.1147
16605TIP3    H271307   1.646   4.495   5.725 -0.9897  1.9589  0.9061
16606TIP3   OH271308   5.852   1.732  15.052  1.0050 -0.2826 -0.6211
16606TIP3    H171309   5.876   1.746  15.144 -2.9392  3.1272  0.0419
16606TIP3    H271310   5.768   1.686  15.056  0.3582  0.7008 -2.5085
16607TIP3   OH271311   2.108   5.251   4.073 -0.2220 -0.2280 -0.0569
16607TIP3    H171312   2.034   5.263   4.132 -1.0957 -0.0172 -1.1769
16607TIP3    H271313   2.127   5.339   4.040  0.6529 -0.2528  0.3697
16608TIP3   OH271314   2.532   0.484  15.136  0.1695  0.0873 -0.2121
16608TIP3    H171315   2.457   0.521  15.182 -0.4931  0.1827 -1.3682
16608TIP3    H271316   2.504   0.395  15.113  0.9435 -0.3807  0.6141
16609TIP3   OH271317   6.057   4.268  12.574 -0.1570 -0.1568  0.2766
16609TIP3    H171318   6.123   4.206  12.544  0.5036 -0.2260  1.8201
16609TIP3    H271319   5.995   4.215  12.624  0.3805  0.3970  1.5601
16610TIP3   OH271320   6.561   3.954   2.414 -0.1671  0.0057 -0.2171
16610TIP3    H171321   6.597   3.951   2.503  2.8521  1.0050 -1.3393
16610TIP3    H271322   6.555   3.863   2.388 -1.0194 -0.2971  0.9622
16611TIP3   OH271323   0.907   4.065   0.810 -0.3910  0.0452  0.0063
16611TIP3    H171324   0.935   4.136   0.868 -0.4061  1.9107 -2.2356
16611TIP3    H271325   0.870   3.999   0.869  0.2853  1.5670  2.1727
16612TIP3   OH271326   6.016   0.257   6.275  0.2301  0.4380 -0.6243
16612TIP3    H171327   5.948   0.191   6.265  1.4456 -0.8465 -0.6522
16612TIP3    H271328   5.970   0.336   6.302 -1.2435 -0.4466 -0.5053
16613TIP3   OH271329   0.029   0.459   1.009 -0.2266 -0.6276 -0.0474
16613TIP3    H171330   0.039   0.449   0.915  2.4008 -1.6944  0.2893
16613TIP3    H271331   0.050   0.372   1.045  1.0621  0.3457  1.6364
16614TIP3   OH271332   0.091   4.494   3.349 -0.0384 -0.3349  0.4216
16614TIP3    H171333   0.062   4.427   3.286  0.2192 -1.9533  1.9875
16614TIP3    H271334   0.109   4.571   3.295 -1.6167 -1.1038 -1.2751
16615TIP3   OH271335   5.739   3.790   4.650  0.0930 -0.5702  0.3743
16615TIP3    H171336   5.691   3.710   4.673 -0.2478 -0.2964  0.6257
16615TIP3    H271337   5.740   3.791   4.554  0.6260 -1.1884  0.3680
16616TIP3   OH271338   5.679   2.624   2.784 -0.1072  0.4801  0.0881
16616TIP3    H171339   5.609   2.612   2.720 -0.5836  1.9401  0.3202
16616TIP3    H271340   5.647   2.578   2.862 -0.1057 -0.1726 -0.2867
16617TIP3   OH271341   1.402   1.842  12.618  0.0069  0.1571 -0.0190
16617TIP3    H171342   1.491   1.853  12.584 -0.9497 -0.1428 -2.7727
16617TIP3    H271343   1.362   1.929  12.609 -0.2975  0.0442  0.2151
16618TIP3   OH271344   5.208   6.682   4.531 -0.3555  0.0855  0.5214
16618TIP3    H171345   5.197   6.757   4.472  2.5203  0.4066  0.3552
16618TIP3    H271346   5.230   6.721   4.615  1.3197 -0.5671  0.3943
16619TIP3   OH271347   6.323   3.800  14.366  0.9091  0.2294 -0.5802
16619TIP3    H171348   6.304   3.735  14.434 -0.0279  1.1517  0.0500
16619TIP3    H271349   6.237   3.832  14.339  1.2445 -0.3926 -2.4810
16620TIP3   OH271350   0.706   2.183   0.829 -0.5443  0.0026  0.4572
16620TIP3    H171351   0.697   2.260   0.885 -0.0761 -0.2642  0.8967
16620TIP3    H271352   0.791   2.147   0.851  0.2537  0.6650 -1.3694
16621TIP3   OH271353   1.623   3.099  12.794  0.1032 -0.1817 -0.4884
16621TIP3    H171354   1.560   3.068  12.729 -0.7264  0.6678 -0.1114
16621TIP3    H271355   1.703   3.114  12.745 -0.0402 -1.1092 -1.0120
16622TIP3   OH271356   3.194   3.701  12.053  0.6045  0.0907  0.3244
16622TIP3    H171357   3.255   3.764  12.091  3.1612 -1.3723 -1.1992
16622TIP3    H271358   3.130   3.754  12.007  1.5286  1.6281  0.7767
16623TIP3   OH271359   5.021   3.821  13.464  0.0268  0.1661  0.7726
16623TIP3    H171360   4.956   3.753  13.447  0.6903 -0.3357  0.2140
16623TIP3    H271361   5.105   3.777  13.453  0.4813  1.4672 -1.3089
16624TIP3   OH271362   0.787   2.579   3.420  0.4292 -0.8926  0.6892
16624TIP3    H171363   0.712   2.596   3.363 -0.0456 -1.7687  1.0491
16624TIP3    H271364   0.756   2.599   3.508 -0.0156 -3.1445  1.0786
16625TIP3   OH271365   2.766   5.875   2.232 -0.1033  0.9982 -0.1295
16625TIP3    H171366   2.675   5.876   2.263  0.0556  1.1760  0.3208
16625TIP3    H271367   2.758   5.856   2.138 -0.4358 -2.2271  0.4856
16626TIP3   OH271368   0.353   4.634   5.300  0.1310  0.2497  0.7155
16626TIP3    H171369   0.436   4.673   5.271 -0.3203 -0.4336 -1.5943
16626TIP3    H271370   0.286   4.681   5.251 -0.7234 -0.5541  1.1082
16627TIP3   OH271371   0.789   4.271  16.808  0.2304 -0.0818  0.2169
16627TIP3    H171372   0.808   4.303  16.720 -0.2366 -0.0515  0.1255
16627TIP3    H271373   0.767   4.349  16.858  2.4327  0.1567  0.8819
16628TIP3   OH271374   6.594   4.163  13.784  0.2085 -0.2816 -0.3489
16628TIP3    H171375   6.660   4.114  13.734  0.2904  0.3669 -0.8916
16628TIP3    H271376   6.530   4.189  13.718 -0.9990 -1.5602  0.3048
16629TIP3   OH271377   5.159   4.998  17.266 -0.0696 -0.3995 -0.2144
16629TIP3    H171378   5.173   5.025  17.175  1.3859  0.0434  0.1365
16629TIP3    H271379   5.087   4.934  17.261 -0.8919  0.6117 -1.5114
16630TIP3   OH271380   4.737   0.169  12.113  0.2948 -0.2316 -0.7921
16630TIP3    H171381   4.728   0.074  12.125  0.5297 -0.2688 -0.9133
16630TIP3    H271382   4.695   0.187  12.029 -0.4330 -0.1178 -0.4054
16631TIP3   OH271383   4.635   2.116  15.403 -0.1801 -0.0773  0.2363
16631TIP3    H171384   4.694   2.156  15.338 -0.4711  0.5883  0.3783
16631TIP3    H271385   4.551   2.160  15.389 -0.8752 -1.5968 -0.5115
16632TIP3   OH271386   5.342   4.933  12.797 -0.0405 -0.7777  0.6504
16632TIP3    H171387   5.393   4.859  12.831 -0.5250 -0.4252  2.2173
16632TIP3    H271388   5.258   4.894  12.772 -0.2240 -0.7911  1.2864
16633TIP3   OH271389   1.775   6.218  16.479 -0.5276 -0.2225  0.3787
16633TIP3    H171390   1.756   6.311  16.465 -0.3885  0.0644  2.0329
16633TIP3    H271391   1.866   6.217  16.506  0.2425 -1.0952 -2.1194
16634TIP3   OH271392   4.677   1.459  15.517  0.1317  0.8712 -0.4402
16634TIP3    H171393   4.717   1.376  15.543 -2.7143 -0.8914 -1.4753
16634TIP3    H271394   4.686   1.515  15.594  2.1575 -0.3598  0.2489
16635TIP3   OH271395   3.825   3.527   3.658 -0.4961  0.2936  0.1848
16635TIP3    H171396   3.817   3.435   3.635 -0.9277  0.6187 -1.0109
16635TIP3    H271397   3.887   3.528   3.731  0.3213 -0.8452 -0.4682
16636TIP3   OH271398   3.999   3.035   6.270 -0.0512  0.5204  0.3862
16636TIP3    H171399   4.047   3.012   6.190 -1.2472  0.8196 -0.4292
16636TIP3    H271400   3.925   3.087   6.240 -2.8875 -2.8017  1.2107
16637TIP3   OH271401   0.138   6.489   4.397  0.4984 -0.4625 -0.2284
16637TIP3    H171402   0.117   6.443   4.315 -0.0491  0.5168 -0.6516
16637TIP3    H271403   0.089   6.441   4.464  0.5952 -1.0037 -0.5407
16638TIP3   OH271404   1.461   0.723   6.066  0.1939  0.0241 -0.1444
16638TIP3    H171405   1.423   0.780   5.999 -1.1458  0.7924  1.2395
16638TIP3    H271406   1.403   0.733   6.141  0.6974 -2.1738  0.5563
16639TIP3   OH271407   4.246   6.185  14.044  0.0187  0.1761  0.2988
16639TIP3    H171408   4.261   6.100  14.001  2.3196  1.3860 -1.3621
16639TIP3    H271409   4.172   6.223  13.997  0.6643  0.2192 -0.6849
16640TIP3   OH271410   6.405   1.986  12.114  0.0239  0.1831 -0.9623
16640TIP3    H171411   6.325   1.969  12.164  0.6887 -1.0565 -0.2659
16640TIP3    H271412   6.466   2.024  12.178  0.7083 -0.9287 -0.9354
16641TIP3   OH271413   2.162   6.487  14.474  0.6789  0.3759 -0.0835
16641TIP3    H171414   2.225   6.477  14.402  0.3553  0.3155 -0.3609
16641TIP3    H271415   2.215   6.513  14.549  1.1601 -0.5992 -0.0801
16642TIP3   OH271416   5.672   0.656  13.254  0.6582 -0.2492 -0.4060
16642TIP3    H171417   5.751   0.603  13.267  0.4345 -0.6775 -0.7748
16642TIP3    H271418   5.698   0.744  13.280  1.8312  0.0129 -2.3494
16643TIP3   OH271419   0.698   5.425  12.558  0.1190 -0.0251 -0.0372
16643TIP3    H171420   0.776   5.381  12.590  0.6540  2.3444  2.0471
16643TIP3    H271421   0.730   5.504  12.515 -0.9151 -0.8927 -2.5250
16644TIP3   OH271422   0.709   1.268   6.743  0.1329  0.0269 -0.2447
16644TIP3    H171423   0.740   1.291   6.831 -0.8252 -0.4275  0.2188
16644TIP3    H271424   0.743   1.180   6.728 -0.2379 -0.1516 -0.0600
16645TIP3   OH271425   3.655   3.213  16.273  0.0314 -0.5593 -0.0406
16645TIP3    H171426   3.594   3.143  16.297  0.3930 -1.1188 -0.7221
16645TIP3    H271427   3.698   3.181  16.194  1.8107 -0.5279  0.9005
16646TIP3   OH271428   1.136   1.884  13.514 -0.3059  0.4073 -0.0388
16646TIP3    H171429   1.168   1.863  13.602  2.5178  1.5557 -0.7302
16646TIP3    H271430   1.081   1.810  13.490 -0.5539 -0.2442  2.4154
16647TIP3   OH271431   2.853   1.553   0.004  0.4153 -0.1039  0.4069
16647TIP3    H171432   2.858   1.463   0.034  0.1048  0.0865  1.0441
16647TIP3    H271433   2.925   1.562  -0.058  0.0653 -0.9604 -0.1273
16648TIP3   OH271434   3.596   3.659  13.649 -0.1147 -0.2676 -0.2344
16648TIP3    H171435   3.630   3.746  13.672  1.0955 -0.1657 -2.3045
16648TIP3    H271436   3.674   3.607  13.628 -0.8631 -1.7075  0.4461
16649TIP3   OH271437   5.201   2.974  13.029  0.1094 -0.2412 -0.5440
16649TIP3    H171438   5.248   3.029  12.966  2.8328  0.2642  1.7975
16649TIP3    H271439   5.230   3.005  13.115 -2.9579 -1.3732  0.9822
16650TIP3   OH271440   4.832   4.944   4.775  0.0228 -0.0625 -0.0914
16650TIP3    H171441   4.814   5.036   4.790  0.0254  0.2995 -2.1852
16650TIP3    H271442   4.907   4.925   4.831  0.3755  1.3529 -0.0690
16651TIP3   OH271443   5.491   0.562  11.979 -0.5324 -0.3805  0.0473
16651TIP3    H171444   5.492   0.588  12.071 -0.0444 -0.7342  0.1456
16651TIP3    H271445   5.402   0.580  11.950 -0.5505  0.1918  0.4574
16652TIP3   OH271446   0.468   4.725   2.648  0.0505 -0.5334  0.2994
16652TIP3    H171447   0.441   4.812   2.619 -2.1184 -1.1449  0.4133
16652TIP3    H271448   0.389   4.672   2.643  1.1294 -2.2816  1.1313
16653TIP3   OH271449   0.629   5.355  11.688 -0.0878  0.2780 -0.0806
16653TIP3    H171450   0.584   5.275  11.717  0.4809 -0.1765 -0.4385
16653TIP3    H271451   0.626   5.351  11.593 -3.1034  2.4329 -0.1267
16654TIP3   OH271452   5.665   0.651   1.629 -0.0434  0.3176  0.1830
16654TIP3    H171453   5.745   0.609   1.596  0.1907  0.7136  0.2393
16654TIP3    H271454   5.598   0.629   1.564 -0.1525 -0.9529  0.6995
16655TIP3   OH271455   0.610   4.504  11.092 -0.4504 -0.1986 -0.0419
16655TIP3    H171456   0.554   4.520  11.017  0.8498  0.3021 -0.9304
16655TIP3    H271457   0.571   4.555  11.163 -2.1289 -1.3087 -0.1631
16656TIP3   OH271458   5.448   2.851  10.709 -0.2348 -0.2070  0.7883
16656TIP3    H171459   5.428   2.943  10.693 -3.4052 -0.9138  0.2798
16656TIP3    H271460   5.470   2.816  10.622  0.6940  0.0184  0.9372
16657TIP3   OH271461   3.694   4.979  16.727  0.2612 -0.2116  0.3170
16657TIP3    H171462   3.615   4.952  16.681 -1.6915  2.4475  1.9630
16657TIP3    H271463   3.681   4.951  16.818  0.9229  0.7629  0.7305
16658TIP3   OH271464   3.611   3.605  10.893  0.4598 -0.6452  0.0715
16658TIP3    H171465   3.515   3.609  10.895  0.4750 -0.1687 -0.2351
16658TIP3    H271466   3.631   3.512  10.882  0.0412 -0.8271  0.8236
16659TIP3   OH271467   2.996   2.271   4.031 -0.2908  0.3792 -0.5156
16659TIP3    H171468   2.981   2.268   3.937  0.0624 -2.9959 -0.5274
16659TIP3    H271469   2.954   2.192   4.065  0.0581  1.2607  2.0876
16660TIP3   OH271470   0.230   2.715   6.053 -0.2409  0.0362  0.1536
16660TIP3    H171471   0.258   2.655   6.122  0.2732 -0.2419 -0.2952
16660TIP3    H271472   0.158   2.765   6.093  1.5253  1.4544  1.6668
16661TIP3   OH271473   3.384   4.167   0.493 -0.3767  0.5277  0.7053
16661TIP3    H171474   3.472   4.177   0.456 -0.2803  1.7007  1.2415
16661TIP3    H271475   3.389   4.086   0.544  0.4901  0.7582  0.9954
16662TIP3   OH271476   3.223   5.969   1.270  0.1324 -0.0644 -0.0751
16662TIP3    H171477   3.211   5.874   1.263  1.7667 -0.3712  1.1716
16662TIP3    H271478   3.315   5.980   1.291 -0.4859  1.7040  1.7980
16663TIP3   OH271479   6.179   1.787  17.009 -0.4523 -0.4905  0.7281
16663TIP3    H171480   6.202   1.780  17.101 -0.0263 -1.1998  0.5817
16663TIP3    H271481   6.192   1.698  16.975 -0.6803 -0.2526  0.0084
16664TIP3   OH271482   3.981   1.773  13.684 -0.0960 -0.3241  0.4050
16664TIP3    H171483   4.048   1.833  13.649  0.6740 -1.2994  0.1651
16664TIP3    H271484   4.032   1.705  13.729 -0.8662 -1.7468 -0.8426
16665TIP3   OH271485   3.514   5.171  14.687 -0.0722 -0.1528  0.5590
16665TIP3    H171486   3.540   5.081  14.669  0.6412  0.0693  0.4656
16665TIP3    H271487   3.426   5.178  14.650  0.1611 -0.5957 -0.0906
16666TIP3   OH271488   0.639   0.957   3.774 -0.4384  0.3100 -0.8309
16666TIP3    H171489   0.628   0.996   3.861  0.6927 -0.2127 -0.4292
16666TIP3    H271490   0.577   0.884   3.773  0.4552 -0.4896  0.0559
16667TIP3   OH271491   5.105   0.641   1.077  0.0818 -0.2116  0.1116
16667TIP3    H171492   5.154   0.664   1.156 -0.3275 -0.1581  0.3537
16667TIP3    H271493   5.112   0.719   1.021  2.3085 -1.0965 -0.8874
16668TIP3   OH271494   3.637   6.203  14.269  0.5100 -0.3026  0.0219
16668TIP3    H171495   3.565   6.209  14.206  0.7541  2.8401 -0.0597
16668TIP3    H271496   3.715   6.186  14.215  0.4381  0.4890 -0.3388
16669TIP3   OH271497   3.640   5.794  11.808  0.5967 -0.1356  0.2187
16669TIP3    H171498   3.722   5.811  11.855  1.6445  0.3493 -1.7475
16669TIP3    H271499   3.609   5.880  11.780 -0.2787 -0.3751  0.4181
16670TIP3   OH271500   0.312   3.852  11.653 -0.3361  0.5641  0.4088
16670TIP3    H171501   0.283   3.935  11.691 -0.0444  0.6047  0.5448
16670TIP3    H271502   0.333   3.872  11.562  1.6180  1.0600  0.9663
16671TIP3   OH271503   2.400   5.764   4.759 -0.1300  0.1505 -0.2370
16671TIP3    H171504   2.308   5.753   4.783 -0.0393  0.3390  0.1908
16671TIP3    H271505   2.404   5.737   4.667 -0.1724 -2.1691  0.4116
16672TIP3   OH271506   1.495   4.668  12.493  0.6165 -0.3546 -0.2127
16672TIP3    H171507   1.536   4.597  12.541  0.4060 -0.5877 -0.3762
16672TIP3    H271508   1.480   4.737  12.558  0.6740 -0.5231 -0.0234
16673TIP3   OH271509   2.173   3.613   2.080  0.1180  0.8241  0.1533
16673TIP3    H171510   2.203   3.562   2.005 -0.7951 -0.1678  0.4488
16673TIP3    H271511   2.116   3.680   2.043 -1.6035 -0.6553  0.1059
16674TIP3   OH271512   5.030   5.973  15.437  0.8553  0.1626  0.0174
16674TIP3    H171513   5.018   6.033  15.363  1.9977  0.4549  0.0465
16674TIP3    H271514   4.998   5.889  15.406  0.3058  0.5337 -0.4254
16675TIP3   OH271515   0.220   5.836  11.787  0.5131  0.2030  0.1076
16675TIP3    H171516   0.279   5.885  11.844  0.0806  0.4702  0.3281
16675TIP3    H271517   0.241   5.867  11.699 -0.8978  2.0318  0.3813
16676TIP3   OH271518   4.299   4.913  11.408 -0.6129  0.3269 -0.1202
16676TIP3    H171519   4.347   4.866  11.476 -0.0786  1.5479  0.3681
16676TIP3    H271520   4.207   4.905  11.433 -0.5192 -0.2928  0.0513
16677TIP3   OH271521   5.297   4.927   1.437  0.2557 -0.2891 -0.2575
16677TIP3    H171522   5.315   4.893   1.525  1.2798  0.7835 -0.0348
16677TIP3    H271523   5.376   4.909   1.387  0.6381  1.2665 -0.2634
16678TIP3   OH271524   3.027   1.728  13.976 -0.0064 -0.1736 -0.4431
16678TIP3    H171525   3.120   1.734  13.995  0.0937 -1.2719 -0.6078
16678TIP3    H271526   3.020   1.665  13.904 -0.9484 -0.8127  0.1980
16679TIP3   OH271527   0.354   3.815   0.424 -0.4815 -0.4636  0.1716
16679TIP3    H171528   0.302   3.762   0.484 -2.5433  1.4417  0.1248
16679TIP3    H271529   0.350   3.903   0.460  1.7584 -0.0580 -0.4991
16680TIP3   OH271530   0.981   0.925  15.314  0.3284  0.0903  0.0790
16680TIP3    H171531   0.901   0.927  15.261  0.6967  2.6319 -0.4659
16680TIP3    H271532   0.979   1.007  15.363  3.7610  1.4044 -1.7652
16681TIP3   OH271533   6.759   5.925  15.396 -0.2230  0.0121  0.0659
16681TIP3    H171534   6.728   5.848  15.443  0.2395 -0.9706 -1.1933
16681TIP3    H271535   6.831   5.958  15.449 -0.1359 -0.6868  0.3915
16682TIP3   OH271536   6.143   6.462  13.515  0.4695  0.0420 -0.2540
16682TIP3    H171537   6.140   6.506  13.430  0.7675  1.8870  0.6781
16682TIP3    H271538   6.052   6.459  13.544  0.3284 -0.8748 -0.7666
16683TIP3   OH271539   1.332   1.876   0.675  0.5718 -0.5573 -0.2461
16683TIP3    H171540   1.384   1.801   0.647  1.0829 -0.5553  0.6898
16683TIP3    H271541   1.374   1.906   0.756 -0.8784 -0.5860  0.5481
16684TIP3   OH271542   4.374   4.496   2.254  0.0351 -0.7261 -0.4115
16684TIP3    H171543   4.350   4.589   2.249 -0.9934 -0.9057  0.7331
16684TIP3    H271544   4.452   4.488   2.199  0.1188  0.8065 -0.5497
16685TIP3   OH271545   6.113   3.811  17.237 -0.0846  0.3557  0.3586
16685TIP3    H171546   6.195   3.765  17.221 -1.7035 -2.1908 -0.7557
16685TIP3    H271547   6.121   3.892  17.186  1.1096 -0.5591 -0.9229
16686TIP3   OH271548   3.204   1.994   0.636 -0.3407 -0.2497  0.1070
16686TIP3    H171549   3.284   2.026   0.679 -0.6110 -0.6298  0.9066
16686TIP3    H271550   3.172   1.925   0.694  0.6599 -2.5254 -1.9799
16687TIP3   OH271551   0.057   3.508  12.004  0.6768 -0.0552 -0.3243
16687TIP3    H171552   0.097   3.575  12.059  0.8920  1.3405 -2.1343
16687TIP3    H271553   0.042   3.552  11.920  0.7861 -2.2559 -1.5244
16688TIP3   OH271554   3.153   3.764   0.178 -0.5217 -0.4304 -0.4194
16688TIP3    H171555   3.087   3.698   0.158 -0.4853 -0.5368 -0.1895
16688TIP3    H271556   3.105   3.832   0.227 -0.4693 -0.4855 -0.2927
16689TIP3   OH271557   1.868   3.237  11.253  0.4332 -0.5010 -0.0906
16689TIP3    H171558   1.832   3.172  11.193 -0.6665  0.1127 -0.1284
16689TIP3    H271559   1.889   3.312  11.197  0.7809 -0.4731  0.0808
16690TIP3   OH271560   4.061   1.295  15.058  0.2991 -0.1232 -0.2519
16690TIP3    H171561   4.027   1.359  14.997 -0.0835 -0.2317 -0.1517
16690TIP3    H271562   4.018   1.315  15.141 -0.8891 -1.3771 -0.5474
16691TIP3   OH271563   4.092   3.947   3.972  0.9651  0.2322  0.2691
16691TIP3    H171564   4.159   4.014   3.960  0.0150  1.3197  0.9098
16691TIP3    H271565   4.113   3.879   3.907  2.7058  0.5269  0.5213
16692TIP3   OH271566   5.773   2.818  14.815 -0.6878 -0.2265 -0.2530
16692TIP3    H171567   5.731   2.788  14.734 -0.6581  1.7463 -1.0065
16692TIP3    H271568   5.700   2.847  14.870 -0.5187  0.7724 -0.5519
16693TIP3   OH271569   6.730   0.146   1.313  0.6539 -0.0176 -1.1620
16693TIP3    H171570   6.637   0.144   1.293  0.7166 -1.3023 -1.4021
16693TIP3    H271571   6.759   0.055   1.301  1.2502 -0.3234  2.1325
16694TIP3   OH271572   3.351   5.248   3.534  0.0989 -0.7440  0.1686
16694TIP3    H171573   3.306   5.191   3.471  0.1195 -0.0242 -0.5181
16694TIP3    H271574   3.432   5.272   3.490  0.0870 -0.1861  0.4415
16695TIP3   OH271575   4.407   2.118   5.759  0.3337  0.4169 -0.0111
16695TIP3    H171576   4.442   2.148   5.842 -0.0743  1.3984 -0.1849
16695TIP3    H271577   4.361   2.194   5.723 -0.1411 -0.2172 -0.7749
16696TIP3   OH271578   5.277   0.648  11.141  0.1855 -0.6373  0.3098
16696TIP3    H171579   5.209   0.639  11.075  0.1741  2.0030 -0.0795
16696TIP3    H271580   5.243   0.601  11.217 -1.1478 -1.0928 -0.5521
16697TIP3   OH271581   5.754   1.112   1.271 -0.6191  0.1250  0.7870
16697TIP3    H171582   5.727   1.127   1.181  0.5709 -0.4722  0.3184
16697TIP3    H271583   5.673   1.112   1.321 -1.1710  1.7709 -0.0820
16698TIP3   OH271584   4.854   3.206  12.552  0.2048 -0.4600  0.1544
16698TIP3    H171585   4.933   3.255  12.570  0.7884 -0.8998 -1.1362
16698TIP3    H271586   4.859   3.130  12.609  1.8102 -1.6151 -1.4629
16699TIP3   OH271587   2.445   6.787   0.181  0.4315  0.3171  0.2124
16699TIP3    H171588   2.366   6.804   0.130  0.3444  0.0894  0.2695
16699TIP3    H271589   2.497   6.728   0.125  0.6398  0.6073  0.0998
16700TIP3   OH271590   1.574   1.557  12.286 -0.2561  0.0735 -0.3696
16700TIP3    H171591   1.647   1.581  12.344  0.5876  0.0724 -1.4061
16700TIP3    H271592   1.510   1.515  12.344 -0.0517  1.3301  0.7889
16701TIP3   OH271593   2.150   2.952   5.926  0.0360  0.7645 -0.1877
16701TIP3    H171594   2.226   2.902   5.895  0.1029  1.3479 -0.9894
16701TIP3    H271595   2.177   3.044   5.915 -0.2172  0.9795  0.9332
16702TIP3   OH271596   3.579   0.624   5.541 -0.3596 -0.7604  0.0383
16702TIP3    H171597   3.622   0.606   5.457  0.0261 -2.1517  0.5066
16702TIP3    H271598   3.648   0.660   5.596 -0.6859  0.4407 -0.3271
16703TIP3   OH271599   5.370   5.716  15.132  0.6184 -0.0712  0.1375
16703TIP3    H171600   5.285   5.729  15.175  0.6808  2.8199 -0.5243
16703TIP3    H271601   5.434   5.752  15.192  1.1685 -0.1855 -0.3693
16704TIP3   OH271602   0.111   4.588  13.565 -0.3744  0.2818 -0.0473
16704TIP3    H171603   0.023   4.608  13.535 -0.2417  0.4727 -0.3073
16704TIP3    H271604   0.110   4.494  13.581 -0.3018  0.0942 -1.1221
16705TIP3   OH271605   4.690   2.028  16.741  0.1155 -0.0027  0.1971
16705TIP3    H171606   4.648   2.025  16.655  1.3356  0.7056 -0.4379
16705TIP3    H271607   4.620   2.053  16.801 -0.5486  0.3715 -0.7229
16706TIP3   OH271608   2.476   1.097  14.106 -0.3875 -0.6488 -0.5223
16706TIP3    H171609   2.514   1.019  14.067 -0.0343 -0.8786  0.2867
16706TIP3    H271610   2.548   1.137  14.155 -1.0182 -0.7494  0.4920
16707TIP3   OH271611   2.472   6.304   3.979 -0.2731 -0.3902 -0.0065
16707TIP3    H171612   2.540   6.308   4.046  0.4226 -2.2292 -0.5854
16707TIP3    H271613   2.410   6.239   4.012 -1.7293  1.1729  0.4542
16708TIP3   OH271614   3.618   2.496   5.108 -0.3241  0.3030  0.5666
16708TIP3    H171615   3.597   2.590   5.108  0.1018  0.4046  1.1433
16708TIP3    H271616   3.537   2.453   5.082  0.3111  0.9900 -2.8395
16709TIP3   OH271617   1.271   5.919   4.965 -0.1420 -0.0513  0.1311
16709TIP3    H171618   1.219   5.975   4.909  0.7818 -0.5857 -1.2846
16709TIP3    H271619   1.357   5.960   4.967  0.1509 -0.6639  0.2230
16710TIP3   OH271620   1.535   1.357   5.727 -0.0676 -0.6031  0.0019
16710TIP3    H171621   1.492   1.431   5.769  1.7665  0.3759  0.2261
16710TIP3    H271622   1.476   1.283   5.743 -0.7706  0.3081  1.8799
16711TIP3   OH271623   4.522   4.071  12.520 -0.4956 -0.2512  0.2776
16711TIP3    H171624   4.519   3.977  12.503  1.4796 -0.1922 -0.5193
16711TIP3    H271625   4.558   4.079  12.609 -0.6406 -0.2423  0.3358
16712TIP3   OH271626   6.230   0.337   3.252  0.2371 -0.2604  0.3825
16712TIP3    H171627   6.199   0.391   3.180 -0.3563 -2.4594 -1.0746
16712TIP3    H271628   6.206   0.386   3.331 -1.1496  1.1269 -0.8678
16713TIP3   OH271629   4.181   5.125   3.461  0.2012 -0.0142 -0.6308
16713TIP3    H171630   4.202   5.124   3.368  0.7574  1.3372 -0.5207
16713TIP3    H271631   4.182   5.217   3.485 -0.3503 -0.3272  0.6260
16714TIP3   OH271632   1.084   5.771   2.780 -0.1708  0.1287 -0.2616
16714TIP3    H171633   1.125   5.749   2.864  0.4617  2.2031 -0.0061
16714TIP3    H271634   0.994   5.793   2.802 -0.5454 -1.2111 -0.3981
16715TIP3   OH271635   3.651   1.686   3.511  0.0245  0.0650 -0.1052
16715TIP3    H171636   3.592   1.628   3.560  1.0183 -1.1418 -0.3124
16715TIP3    H271637   3.626   1.673   3.419  2.2485 -2.4181 -0.4427
16716TIP3   OH271638   4.395   1.884  13.300  0.3024 -0.1714  0.1220
16716TIP3    H171639   4.444   1.831  13.236  0.1141  0.6375 -0.7089
16716TIP3    H271640   4.397   1.973  13.263  1.1368  0.5292  1.7920
16717TIP3   OH271641   0.541   1.646  17.132 -0.3095  0.0005  0.0008
16717TIP3    H171642   0.580   1.620  17.215 -0.3745  0.3143  0.1313
16717TIP3    H271643   0.588   1.593  17.066 -1.0794 -1.1053  0.3376
16718TIP3   OH271644   6.042   2.047  13.702  0.1611 -0.4958 -0.2332
16718TIP3    H171645   6.077   2.131  13.673  0.1745 -0.3404  0.2292
16718TIP3    H271646   6.064   1.986  13.631 -1.6059  0.2950 -1.5118
16719TIP3   OH271647   1.540   4.947  16.482 -0.3009  0.5921 -0.3839
16719TIP3    H171648   1.586   4.877  16.528  0.2424  0.8425 -0.5415
16719TIP3    H271649   1.520   4.911  16.396 -0.8999  0.2880 -0.1229
16720TIP3   OH271650   6.792   2.195   3.894 -0.0683 -0.0128 -0.5495
16720TIP3    H171651   6.735   2.185   3.970  0.0363  1.5109 -0.2414
16720TIP3    H271652   6.736   2.236   3.828  0.4296  0.6921 -0.5409
16721TIP3   OH271653   3.575   3.617   5.452  0.1302  0.1794 -0.5036
16721TIP3    H171654   3.494   3.615   5.401  0.4236  0.2566 -0.9727
16721TIP3    H271655   3.547   3.641   5.540 -0.5500 -1.2969 -0.2990
16722TIP3   OH271656   2.587   1.859   2.776 -0.3004 -0.1360  0.6144
16722TIP3    H171657   2.656   1.852   2.709 -1.9664 -1.9421 -0.9979
16722TIP3    H271658   2.530   1.929   2.744 -0.1822  0.1318  0.9980
16723TIP3   OH271659   1.820   2.270   2.796 -0.1460  0.1222  0.4194
16723TIP3    H171660   1.870   2.217   2.859 -1.4712  0.0614  1.4500
16723TIP3    H271661   1.802   2.352   2.842 -1.0204  0.1302  0.0780
16724TIP3   OH271662   1.261   2.685  14.741 -0.0197  0.1999 -0.6327
16724TIP3    H171663   1.175   2.721  14.721  0.0873  0.0965 -1.2767
16724TIP3    H271664   1.242   2.610  14.798 -0.3718 -0.0010 -1.0157
16725TIP3   OH271665   6.624   4.980  12.031 -0.1825  0.1467  0.3847
16725TIP3    H171666   6.529   4.994  12.035 -0.1229  1.1027 -1.0905
16725TIP3    H271667   6.661   5.052  12.082 -0.1600  1.5340 -1.5114
16726TIP3   OH271668   2.608   5.057  14.588  0.5938  0.1328  0.3375
16726TIP3    H171669   2.697   5.075  14.618  1.3552 -1.3772 -0.9900
16726TIP3    H271670   2.602   5.101  14.503  1.3508 -2.8959 -1.3413
16727TIP3   OH271671   2.409   3.957  12.946  0.0001 -0.3454  0.0009
16727TIP3    H171672   2.336   4.011  12.976 -0.6734 -1.8948  1.1942
16727TIP3    H271673   2.429   3.901  13.020  0.6997 -1.7423 -1.2266
16728TIP3   OH271674   0.020   3.591   2.668 -0.3538  0.3903  0.2791
16728TIP3    H171675  -0.002   3.611   2.577 -0.7150 -0.7591  0.0978
16728TIP3    H271676  -0.015   3.503   2.682 -0.7470  0.7524  1.6882
16729TIP3   OH271677   5.370   6.174   2.133  0.1742  0.1302  0.0050
16729TIP3    H171678   5.277   6.191   2.146  0.1105 -0.6945  0.7003
16729TIP3    H271679   5.414   6.226   2.201  0.2848  1.1926 -0.8638
16730TIP3   OH271680   3.805   2.632   0.867  0.2238  0.4054  0.1211
16730TIP3    H171681   3.823   2.725   0.882 -1.2849  0.6608  0.4391
16730TIP3    H271682   3.782   2.598   0.954  1.5305 -0.4539  0.1516
16731TIP3   OH271683   1.902   2.934  11.788  0.5339 -0.4202  0.2790
16731TIP3    H171684   1.969   2.985  11.833  1.4432 -0.3524 -1.0884
16731TIP3    H271685   1.926   2.941  11.695 -0.1042 -2.2146 -0.0419
16732TIP3   OH271686   4.096   1.355  15.732  0.0165 -1.0880 -0.0190
16732TIP3    H171687   4.073   1.313  15.650 -0.3576  0.6383 -0.8135
16732TIP3    H271688   4.013   1.360  15.780 -1.1345  3.6585 -2.2137
16733TIP3   OH271689   1.321   4.349   0.768 -0.0368 -0.3463  0.5015
16733TIP3    H171690   1.379   4.425   0.760 -0.5353  0.0846  0.9929
16733TIP3    H271691   1.356   4.300   0.843  0.4553 -0.7600  0.0114
16734TIP3   OH271692   0.807   3.981  12.868 -0.2779  0.4265  0.2862
16734TIP3    H171693   0.853   4.020  12.943 -0.1765 -1.4685  1.2384
16734TIP3    H271694   0.725   3.948  12.905 -0.7598  0.5310 -0.6875
16735TIP3   OH271695   4.033   2.347   1.125 -0.3048 -0.6350  0.0251
16735TIP3    H171696   4.086   2.320   1.200 -0.3281 -1.0984 -0.1265
16735TIP3    H271697   4.022   2.442   1.137  1.1594 -0.4135 -0.3233
16736TIP3   OH271698   2.431   1.730   4.397  0.2011 -0.4601 -0.0576
16736TIP3    H171699   2.476   1.646   4.400  1.7641  0.4107  1.9973
16736TIP3    H271700   2.460   1.770   4.314  2.7951 -0.1634  0.9609
16737TIP3   OH271701   2.086   6.040   4.686  0.8712  0.0443  0.9398
16737TIP3    H171702   2.031   6.118   4.700  0.0036  0.3940 -3.6278
16737TIP3    H271703   2.026   5.966   4.702 -0.0955  0.4041 -0.8850
16738TIP3   OH271704   2.442   4.618   1.203  0.0819  0.8184 -0.3715
16738TIP3    H171705   2.377   4.683   1.178 -1.0309 -0.1526 -0.0563
16738TIP3    H271706   2.522   4.668   1.219 -0.7491  2.0963 -0.1801
16739TIP3   OH271707   3.504   2.812  16.023 -0.3559 -0.3933 -0.0923
16739TIP3    H171708   3.592   2.845  16.005 -0.6475 -0.1748 -1.1369
16739TIP3    H271709   3.518   2.735  16.078  0.4147  0.4678  0.9456
16740TIP3   OH271710   3.975   4.373  15.781 -0.0077  0.5821 -0.1438
16740TIP3    H171711   3.983   4.452  15.727 -3.9291  1.1637 -0.0339
16740TIP3    H271712   3.945   4.305  15.721 -0.9701  0.3417  0.5930
16741TIP3   OH271713   4.958   3.423   1.570 -0.0874  0.3683  0.0032
16741TIP3    H171714   5.002   3.504   1.544 -0.2052  0.0908 -1.0742
16741TIP3    H271715   4.868   3.434   1.541 -0.8935  1.1271  2.6199
16742TIP3   OH271716   5.494   5.080  12.625  0.4517  0.5434  0.5242
16742TIP3    H171717   5.552   5.030  12.567  1.9713  1.9568  0.7800
16742TIP3    H271718   5.438   5.014  12.665  0.5779 -0.6516 -1.1979
16743TIP3   OH271719   1.627   5.717  16.568 -0.0065 -0.4994 -0.0191
16743TIP3    H171720   1.628   5.813  16.565  2.2963 -0.5199 -0.6734
16743TIP3    H271721   1.672   5.695  16.650 -0.0840 -1.0289 -0.1164
16744TIP3   OH271722   1.816   1.626  16.907  0.8144 -0.4571  0.9226
16744TIP3    H171723   1.857   1.703  16.946  1.1793 -1.1918  1.9879
16744TIP3    H271724   1.750   1.599  16.970  0.0753 -0.4977  0.1429
16745TIP3   OH271725   6.753   0.882   5.188 -0.3510 -0.3433 -0.0548
16745TIP3    H171726   6.672   0.856   5.231 -0.6172  1.3844  0.5442
16745TIP3    H271727   6.736   0.971   5.157  0.4177 -0.9166 -2.2544
16746TIP3   OH271728   2.613   6.663  13.880  0.0338  0.4501  0.4389
16746TIP3    H171729   2.696   6.701  13.854  0.3796 -0.8483 -0.3745
16746TIP3    H271730   2.578   6.623  13.800 -0.1291 -1.2926  1.3691
16747TIP3   OH271731   1.792   3.005   1.365 -0.1263  0.2179  0.1693
16747TIP3    H171732   1.854   3.073   1.390  0.0393  0.3054 -0.4580
16747TIP3    H271733   1.847   2.932   1.336 -0.3097  0.2190 -0.1881
16748TIP3   OH271734   4.715   0.694   0.378 -0.3935  0.1252  0.1502
16748TIP3    H171735   4.736   0.701   0.285  0.9538  1.6088  0.5496
16748TIP3    H271736   4.799   0.675   0.420 -0.5163  2.0932  1.3322
16749TIP3   OH271737   3.269   5.223  11.328  0.4187  0.1757  0.1982
16749TIP3    H171738   3.216   5.160  11.279 -0.1739 -1.4473  2.8266
16749TIP3    H271739   3.208   5.295  11.348  0.2570  0.1301 -0.1270
16750TIP3   OH271740   2.369   4.200   1.609 -0.5767  0.0637  0.4663
16750TIP3    H171741   2.341   4.262   1.541  0.0894 -1.0455 -0.8409
16750TIP3    H271742   2.301   4.206   1.676  0.4749  3.6894  1.3519
16751TIP3   OH271743   2.295   6.158  11.135 -0.4941  0.2126 -0.7157
16751TIP3    H171744   2.385   6.172  11.103 -0.9731 -0.8850 -2.6338
16751TIP3    H271745   2.243   6.224  11.088 -0.8688  0.1101 -0.4471
16752TIP3   OH271746   0.527   5.450  16.731  0.0852  0.1965  0.3503
16752TIP3    H171747   0.541   5.487  16.644  0.7819  1.0744  0.8217
16752TIP3    H271748   0.438   5.415  16.728  0.4230 -0.5989 -0.9965
16753TIP3   OH271749   6.366   4.074  13.113 -1.2818  0.2455  0.2695
16753TIP3    H171750   6.279   4.053  13.078 -1.1423  2.1905 -1.3520
16753TIP3    H271751   6.348   4.139  13.182 -1.0798  1.0865 -0.4656
16754TIP3   OH271752   3.016   1.828   5.603 -0.0912  0.1173  0.3442
16754TIP3    H171753   2.944   1.835   5.665 -0.9973 -1.2429 -0.5170
16754TIP3    H271754   3.026   1.916   5.567 -0.6711  0.5319  1.2013
16755TIP3   OH271755   3.433   4.741  16.905  0.1983  0.0836 -0.1280
16755TIP3    H171756   3.472   4.794  16.975  0.1407  0.9118 -0.7028
16755TIP3    H271757   3.493   4.667  16.895  1.1072  0.8312 -0.3303
16756TIP3   OH271758   3.467   3.553   6.619  0.1042 -0.0635 -0.5292
16756TIP3    H171759   3.403   3.564   6.690  1.0896 -0.3897  0.4195
16756TIP3    H271760   3.491   3.642   6.594  0.8698  0.0408  0.5657
16757TIP3   OH271761   6.052   0.175   2.119  0.0957  0.3111 -0.1418
16757TIP3    H171762   6.056   0.245   2.054 -1.8949 -0.9377 -1.6753
16757TIP3    H271763   6.128   0.119   2.099 -1.3893 -0.9490 -2.4959
16758TIP3   OH271764   2.806   6.742  11.711  0.1212 -0.3356 -0.7882
16758TIP3    H171765   2.843   6.671  11.764  2.3849  2.5334  1.6754
16758TIP3    H271766   2.715   6.748  11.740 -0.2233 -2.4218 -1.3148
16759TIP3   OH271767   5.950   4.598   2.430 -0.1402  0.0671 -0.6693
16759TIP3    H171768   5.955   4.559   2.518 -1.1762  0.4352 -0.4449
16759TIP3    H271769   6.042   4.613   2.406  0.3082 -2.7569 -0.8753
16760TIP3   OH271770   5.614   1.628   4.159  0.1221 -0.0919 -0.2599
16760TIP3    H171771   5.672   1.703   4.140 -0.3663  0.8453  1.8242
16760TIP3    H271772   5.673   1.553   4.161  1.5913  1.0431  3.2239
16761TIP3   OH271773   6.367   0.972   3.919  0.2248 -0.2373  0.4725
16761TIP3    H171774   6.323   0.909   3.862 -3.3510  0.9897  1.7685
16761TIP3    H271775   6.370   1.053   3.867 -0.1425 -0.0021  0.8128
16762TIP3   OH271776   3.251   4.340  16.737  0.4053  0.2186  0.4123
16762TIP3    H171777   3.206   4.290  16.668  0.1268 -0.5819  1.1597
16762TIP3    H271778   3.280   4.420  16.693  1.0289 -0.6742 -0.8571
16763TIP3   OH271779   4.297   3.244   5.396 -0.0905 -0.3634 -0.4577
16763TIP3    H171780   4.298   3.217   5.305  1.1516 -2.4042  0.1301
16763TIP3    H271781   4.206   3.265   5.415 -0.6345 -1.5858 -1.6943
16764TIP3   OH271782   4.661   0.326   5.094  0.1476 -0.5691  0.1151
16764TIP3    H171783   4.591   0.332   5.159  0.5497  2.5281  0.3394
16764TIP3    H271784   4.618   0.293   5.015 -1.5257  0.8734  0.3836
16765TIP3   OH271785   2.980   3.510  16.744  0.4157 -0.2948 -0.0403
16765TIP3    H171786   2.897   3.558  16.753  0.4911  0.0200 -0.9269
16765TIP3    H271787   3.033   3.541  16.817 -0.2669 -0.5432  0.5734
16766TIP3   OH271788   0.797   3.353   5.970 -0.6070  0.2570 -0.0936
16766TIP3    H171789   0.892   3.341   5.963 -0.6649  0.5595 -1.4381
16766TIP3    H271790   0.775   3.317   6.056  1.1619  2.9215  1.5795
16767TIP3   OH271791   3.190   0.334  17.237  0.6603  0.1234  0.3309
16767TIP3    H171792   3.265   0.347  17.295  0.8310 -0.6682  0.2983
16767TIP3    H271793   3.216   0.376  17.155  1.5497 -1.1484 -0.0556
16768TIP3   OH271794   0.102   5.583  15.272  0.4231  0.1363 -0.6863
16768TIP3    H171795   0.179   5.601  15.326  0.3230  0.9457 -0.8009
16768TIP3    H271796   0.030   5.581  15.335  0.1188  2.3816 -0.9146
16769TIP3   OH271797   6.124   3.049  16.017  0.2774  0.1150  0.4193
16769TIP3    H171798   6.062   3.014  15.954  2.2071  0.4998 -1.7614
16769TIP3    H271799   6.075   3.115  16.066 -1.0386  0.3877 -1.2427
16770TIP3   OH271800   6.346   4.016   0.429 -0.2327 -0.2053 -0.1043
16770TIP3    H171801   6.356   3.923   0.449  2.3003 -0.3225 -1.6450
16770TIP3    H271802   6.378   4.061   0.507 -0.4605 -0.6258  0.2338
16771TIP3   OH271803   3.618   6.571   5.793 -0.1383  0.3093 -0.0453
16771TIP3    H171804   3.573   6.503   5.744 -3.4882  1.1423  1.7095
16771TIP3    H271805   3.651   6.632   5.726  0.9681 -1.8561 -1.5037
16772TIP3   OH271806   1.239   5.187  14.350  0.0908  0.4933 -0.0623
16772TIP3    H171807   1.163   5.165  14.404 -0.4389  0.6594 -0.7527
16772TIP3    H271808   1.204   5.235  14.276  0.7397 -0.3755 -0.9499
16773TIP3   OH271809   1.357   2.068   4.397  0.3282 -0.0972  0.2779
16773TIP3    H171810   1.279   2.066   4.453  1.5602  1.1142  2.1072
16773TIP3    H271811   1.338   2.136   4.332 -1.7512 -2.5895 -1.8099
16774TIP3   OH271812   5.713   4.515   3.670  0.0205  0.0304  0.3482
16774TIP3    H171813   5.650   4.587   3.669 -1.1526 -0.9567  1.1594
16774TIP3    H271814   5.674   4.448   3.614  0.7117 -0.3003  0.2569
16775TIP3   OH271815   3.795   0.561   3.714 -0.1679  0.0978  0.5259
16775TIP3    H171816   3.757   0.533   3.797 -0.2462  1.9733  1.1485
16775TIP3    H271817   3.888   0.540   3.723 -0.3560 -0.7038  0.6502
16776TIP3   OH271818   5.541   5.884   5.861  0.2642 -0.3995 -0.4466
16776TIP3    H171819   5.506   5.971   5.882  1.1770  0.1646 -1.2629
16776TIP3    H271820   5.622   5.878   5.911 -0.8335 -1.6392  1.2912
16777TIP3   OH271821   6.443   1.660  11.929  0.5337  0.4197 -0.7661
16777TIP3    H171822   6.358   1.682  11.890 -0.0650 -1.6733 -0.6977
16777TIP3    H271823   6.507   1.691  11.865 -0.2982  1.1556 -1.2695
16778TIP3   OH271824   0.798   5.489  13.498  0.4943  0.1719 -0.4185
16778TIP3    H171825   0.788   5.395  13.510 -0.5631  0.4564  1.0566
16778TIP3    H271826   0.893   5.504  13.505  0.6266 -0.7209 -0.2139
16779TIP3   OH271827   0.666   3.889  16.114 -0.4116 -0.2232 -0.0223
16779TIP3    H171828   0.750   3.845  16.111 -1.7762 -3.0015  1.0471
16779TIP3    H271829   0.673   3.958  16.047  2.3900 -0.9087 -0.5014
16780TIP3   OH271830   1.499   1.999   3.441  0.0329 -1.0628 -0.5060
16780TIP3    H171831   1.558   1.990   3.516 -1.1201 -1.3405  0.3847
16780TIP3    H271832   1.553   1.976   3.365  1.6739  0.8036  0.0550
16781TIP3   OH271833   5.169   0.978   1.563 -0.0125  0.1078 -0.2064
16781TIP3    H171834   5.141   1.001   1.651  0.0473 -0.5347 -0.0209
16781TIP3    H271835   5.222   0.900   1.574  2.7970  1.9031 -0.4074
16782TIP3   OH271836   1.060   0.195   0.880  0.1553 -0.3513 -0.0988
16782TIP3    H171837   0.992   0.138   0.916 -0.8289  1.4117  0.9318
16782TIP3    H271838   1.137   0.179   0.935  0.4651 -2.0527 -1.0076
16783TIP3   OH271839   4.297   5.417   0.026  0.6046 -0.0040  0.1923
16783TIP3    H171840   4.238   5.455  -0.038  0.1665  0.7624  1.0382
16783TIP3    H271841   4.297   5.479   0.099 -1.0707 -2.1276  2.1165
16784TIP3   OH271842   1.513   5.417   4.044 -0.0867  0.5551 -0.1834
16784TIP3    H171843   1.419   5.431   4.057  0.2626  2.2463  0.6763
16784TIP3    H271844   1.524   5.417   3.949 -0.8749  1.0010 -0.2859
16785TIP3   OH271845   2.064   2.136  11.955 -0.2531 -0.3917 -0.2352
16785TIP3    H171846   2.152   2.164  11.978  0.1257  0.0228 -2.1299
16785TIP3    H271847   2.052   2.053  12.003  0.2896  0.6761  1.8225
16786TIP3   OH271848   5.567   4.455   3.940 -0.0466  0.1274  0.7256
16786TIP3    H171849   5.509   4.383   3.916 -0.2711 -0.7253  3.6239
16786TIP3    H271850   5.639   4.449   3.878 -1.1349 -1.2453 -0.4466
16787TIP3   OH271851   3.965   2.880   4.185  0.0538 -0.4568  0.5905
16787TIP3    H171852   4.055   2.847   4.183 -0.1053 -0.8813  0.4453
16787TIP3    H271853   3.944   2.896   4.093 -0.3487 -1.2494  0.5451
16788TIP3   OH271854   0.690   3.710  10.564  0.0233 -0.7377  1.0556
16788TIP3    H171855   0.631   3.732  10.491 -0.1174 -0.3492  1.2835
16788TIP3    H271856   0.683   3.615  10.572  1.1182 -0.9478 -0.3495
16789TIP3   OH271857   2.909   1.297  10.399  0.0381  0.8887  0.0276
16789TIP3    H171858   2.945   1.220  10.355  1.1569  0.7084  1.2169
16789TIP3    H271859   2.984   1.339  10.439 -0.7075  2.0774  0.2061
16790TIP3   OH271860   5.006   1.046   0.447  0.0474  0.8475  0.1439
16790TIP3    H171861   5.021   1.033   0.354 -1.4948 -0.3423  0.0455
16790TIP3    H271862   4.914   1.071   0.454 -0.1044  0.0063  1.4215
16791TIP3   OH271863   6.131   5.467  16.968  0.1254  0.0429  0.6293
16791TIP3    H171864   6.082   5.451  16.888 -1.5997  1.1038  1.4302
16791TIP3    H271865   6.172   5.552  16.955  0.9705 -0.4032  0.3449
16792TIP3   OH271866   6.237   4.735   4.474  0.0282 -0.0089 -0.1548
16792TIP3    H171867   6.275   4.648   4.462 -0.6639 -0.1371 -1.5576
16792TIP3    H271868   6.311   4.794   4.461  0.4344 -0.3714  0.4786
16793TIP3   OH271869   4.315   4.802  14.126  0.2353  0.2081  0.4356
16793TIP3    H171870   4.410   4.785  14.120  0.2327  0.1380  0.5839
16793TIP3    H271871   4.281   4.727  14.175  0.4774  1.5470  2.6888
16794TIP3   OH271872   5.223   0.723   2.296 -0.1792 -0.7149  0.0983
16794TIP3    H171873   5.148   0.783   2.296 -0.7283 -1.3864 -1.3838
16794TIP3    H271874   5.264   0.735   2.210  2.3412  0.7625  1.4428
16795TIP3   OH271875   0.416   3.316   4.145  0.0301  0.2665 -0.6534
16795TIP3    H171876   0.465   3.252   4.195  0.7160 -0.6986 -2.5249
16795TIP3    H271877   0.330   3.319   4.187  0.1043 -1.6405 -0.3294
16796TIP3   OH271878   2.889   0.088  12.275 -0.1880  0.3326  0.0396
16796TIP3    H171879   2.875   0.157  12.340  0.2203 -0.2122  0.7086
16796TIP3    H271880   2.959   0.034  12.312  1.1845  0.9295 -1.5576
16797TIP3   OH271881   5.888   1.379   5.868  0.1868  0.7723 -0.0867
16797TIP3    H171882   5.874   1.368   5.774 -0.9127  2.0916 -0.0852
16797TIP3    H271883   5.897   1.473   5.881 -0.9977  0.7185  1.2987
16798TIP3   OH271884   0.244   2.048  15.670 -0.1521 -0.0224  0.8154
16798TIP3    H171885   0.307   2.034  15.599  1.5873 -0.2773  2.3869
16798TIP3    H271886   0.292   2.096  15.737 -2.0493  1.0469  1.4580
16799TIP3   OH271887   1.580   1.577   5.457 -0.3026 -0.2725  0.0035
16799TIP3    H171888   1.673   1.554   5.455 -0.2702 -0.1346 -0.1084
16799TIP3    H271889   1.539   1.520   5.393 -0.3825 -0.7137  0.4487
16800TIP3   OH271890   3.264   3.523   2.095 -0.1302  0.0091 -0.0750
16800TIP3    H171891   3.206   3.487   2.162 -0.6611 -0.9220 -1.0280
16800TIP3    H271892   3.209   3.584   2.046  0.3152  0.8511  0.4517
16801TIP3   OH271893   3.727   0.882   3.859 -0.7474 -0.3102  0.4614
16801TIP3    H171894   3.722   0.939   3.936 -0.1573 -2.6523  2.2717
16801TIP3    H271895   3.661   0.815   3.874 -1.4924 -0.1013 -1.7030
16802TIP3   OH271896   0.217   1.758  11.098 -0.1549 -0.3549 -0.2936
16802TIP3    H171897   0.181   1.740  11.011 -0.1223 -0.1863 -0.3405
16802TIP3    H271898   0.310   1.775  11.081 -0.4604  1.2499 -0.4080
16803TIP3   OH271899   1.207   6.442   0.590  0.3601  0.4304 -0.3180
16803TIP3    H171900   1.138   6.380   0.566 -0.6080  1.4457 -0.1945
16803TIP3    H271901   1.222   6.427   0.684  1.9164 -1.3458 -0.8192
16804TIP3   OH271902   5.957   5.939   3.470  0.2426  0.1221  0.5728
16804TIP3    H171903   6.024   5.881   3.434  0.2979 -0.2381  1.2440
16804TIP3    H271904   5.920   5.983   3.394  1.5113  0.6150  0.2252
16805TIP3   OH271905   5.606   6.753  15.868 -0.3404 -0.3700  0.6436
16805TIP3    H171906   5.583   6.846  15.876 -0.7179 -0.3346 -0.7319
16805TIP3    H271907   5.541   6.707  15.921 -0.2204  0.1333  1.2358
16806TIP3   OH271908   0.664   0.448  12.711  0.3445 -0.0914 -0.0904
16806TIP3    H171909   0.658   0.393  12.633  0.7993 -0.3516  0.0613
16806TIP3    H271910   0.605   0.521  12.693  1.0153  0.2393 -1.0024
16807TIP3   OH271911   1.468   3.531  14.149 -0.1208 -0.2517 -0.4331
16807TIP3    H171912   1.537   3.588  14.115  0.3143 -0.3421  0.2720
16807TIP3    H271913   1.479   3.535  14.244 -0.4949 -1.0072 -0.3559
16808TIP3   OH271914   5.520   3.466   1.986  0.6932 -0.0537  0.2822
16808TIP3    H171915   5.469   3.526   1.932  2.1453  1.1628  0.2186
16808TIP3    H271916   5.465   3.448   2.062  0.3116  1.4658  0.3682
16809TIP3   OH271917   1.800   3.962   1.628 -0.7897 -0.7040  0.3792
16809TIP3    H171918   1.800   3.867   1.622 -1.2484 -0.6074 -1.9731
16809TIP3    H271919   1.893   3.986   1.628 -0.6677 -1.0935 -1.1389
16810TIP3   OH271920   0.063   4.524  11.701 -0.1026  0.1122  0.3296
16810TIP3    H171921  -0.016   4.499  11.654  0.6199 -0.9994 -0.3129
16810TIP3    H271922   0.062   4.471  11.781  0.0834 -0.0482  0.2272
16811TIP3   OH271923   3.395   3.570   1.762  0.3263  0.0586 -0.2722
16811TIP3    H171924   3.367   3.638   1.823 -0.9744  1.5525 -2.4729
16811TIP3    H271925   3.448   3.615   1.698  1.0389 -1.3649 -0.7095
16812TIP3   OH271926   5.037   0.003  11.388  0.1995  0.0984  0.6934
16812TIP3    H171927   5.118  -0.043  11.409 -0.1798  0.3357  2.8937
16812TIP3    H271928   4.977  -0.066  11.359  0.4031 -0.4700  1.5905
16813TIP3   OH271929   1.108   5.831   0.607 -0.4874 -0.4330 -0.1308
16813TIP3    H171930   1.170   5.769   0.645 -2.7812 -1.8446  1.4245
16813TIP3    H271931   1.054   5.779   0.548  0.1539  0.8974 -1.9574
16814TIP3   OH271932   3.333   4.790   6.097  0.1575 -0.4246 -0.1403
16814TIP3    H171933   3.382   4.847   6.156 -2.3143  1.1558  0.4298
16814TIP3    H271934   3.359   4.818   6.009  0.6146  0.0992  0.1597
16815TIP3   OH271935   4.946   4.476   4.439  0.0835 -0.3001  0.4529
16815TIP3    H171936   4.906   4.512   4.360  0.1660 -0.4409  0.3464
16815TIP3    H271937   4.895   4.397   4.457 -0.0582 -0.1635  0.6518
16816TIP3   OH271938   2.756   0.263   2.475  0.3431  0.1451 -0.4054
16816TIP3    H171939   2.803   0.231   2.553 -0.8782 -0.8300 -0.0504
16816TIP3    H271940   2.743   0.184   2.422 -0.0571  0.5687 -0.9386
16817TIP3   OH271941   5.512   0.789   4.059 -0.0447 -0.0869  0.7784
16817TIP3    H171942   5.514   0.841   3.979  0.2850 -1.1254  0.1032
16817TIP3    H271943   5.510   0.698   4.028 -0.0548 -0.4876  1.9458
16818TIP3   OH271944   3.858   5.476  16.925 -0.3404 -0.1733  0.0458
16818TIP3    H171945   3.791   5.543  16.917  0.8052  0.8929 -0.7300
16818TIP3    H271946   3.885   5.457  16.835  2.3559  1.4332  0.4789
16819TIP3   OH271947   2.449   4.607  14.228  0.1676  0.2081 -0.3856
16819TIP3    H171948   2.491   4.688  14.255  0.1508 -0.2957  1.1952
16819TIP3    H271949   2.357   4.618  14.254  0.0184 -0.0263 -0.8144
16820TIP3   OH271950   0.081   0.099   3.231 -0.2638 -0.5080 -0.4486
16820TIP3    H171951   0.106   0.034   3.297 -0.0129  0.8250  0.7995
16820TIP3    H271952   0.156   0.159   3.227 -0.8709  0.2299 -0.8856
16821TIP3   OH271953   1.110   4.679   0.219 -0.4446 -0.2623 -0.0743
16821TIP3    H171954   1.129   4.680   0.125  2.3157  0.5913  0.4510
16821TIP3    H271955   1.014   4.673   0.224 -0.8223  2.0710 -2.9658
16822TIP3   OH271956   6.489   0.821  12.809  0.0432 -0.4449 -0.0095
16822TIP3    H171957   6.523   0.739  12.773  0.5173 -0.2821  0.0585
16822TIP3    H271958   6.398   0.802  12.831  0.6182 -1.4791  1.6206
16823TIP3   OH271959   5.264   5.411  17.012  0.3079  0.3927 -0.4664
16823TIP3    H171960   5.349   5.382  16.978 -0.5262 -1.7974 -0.7914
16823TIP3    H271961   5.200   5.377  16.950 -0.7947  2.7603 -0.6903
16824TIP3   OH271962   5.261   4.612   5.809 -0.2716 -0.4288 -0.0952
16824TIP3    H171963   5.294   4.524   5.794  3.5970  0.2097  3.4939
16824TIP3    H271964   5.308   4.667   5.746  0.5699 -0.4150  0.5313
16825TIP3   OH271965   1.837   0.430  13.653  0.1260 -0.1097  0.1966
16825TIP3    H171966   1.831   0.355  13.712  1.8044 -1.5505 -1.4119
16825TIP3    H271967   1.785   0.498  13.696 -2.9186 -2.7117  0.8400
16826TIP3   OH271968   2.017   2.218   4.458  0.7320 -0.4149 -0.2191
16826TIP3    H171969   2.101   2.264   4.451  0.8830 -0.6451  0.0758
16826TIP3    H271970   2.004   2.206   4.553 -0.5540  1.3255 -0.1561
16827TIP3   OH271971   1.440   1.882   5.753 -0.3382 -0.9058  0.3586
16827TIP3    H171972   1.435   1.917   5.664  0.1788 -2.8340 -0.4523
16827TIP3    H271973   1.477   1.954   5.805 -0.7172  0.2637 -0.9603
16828TIP3   OH271974   2.947   3.979  12.746 -0.7004 -0.3609 -0.2308
16828TIP3    H171975   2.859   4.002  12.775 -0.3246  0.7054  0.0894
16828TIP3    H271976   2.974   3.908  12.804 -1.0339 -0.1321  0.2040
16829TIP3   OH271977   6.720   5.349  15.015 -0.2169 -0.0272  1.3525
16829TIP3    H171978   6.764   5.299  15.084 -1.1700  0.2762  2.1971
16829TIP3    H271979   6.738   5.440  15.037  1.1419  0.0407  0.0640
16830TIP3   OH271980   6.221   5.044  16.126  0.1861 -0.2262 -0.0087
16830TIP3    H171981   6.198   5.081  16.211  0.8220 -1.4511  0.7084
16830TIP3    H271982   6.141   4.997  16.099 -0.3553  0.9918 -0.5597
16831TIP3   OH271983   4.090   6.005  11.097  0.2728  0.3838  0.1154
16831TIP3    H171984   4.038   6.062  11.040  0.1760 -0.3940 -0.5812
16831TIP3    H271985   4.043   5.922  11.098  1.2022 -0.1470 -0.0711
16832TIP3   OH271986   4.843   4.636   0.246  0.0164  0.5878 -0.4423
16832TIP3    H171987   4.822   4.564   0.185 -0.8557  1.6956 -1.4791
16832TIP3    H271988   4.925   4.671   0.212 -0.4448  1.1743 -0.9634
16833TIP3   OH271989   5.307   2.784  11.555  0.4873  0.2105  0.6715
16833TIP3    H171990   5.359   2.711  11.589  1.4002  1.8345  2.9147
16833TIP3    H271991   5.371   2.852  11.536 -0.4456  0.7815 -0.4625
16834TIP3   OH271992   5.735   5.760  15.102 -0.1132  0.6252  0.0648
16834TIP3    H171993   5.674   5.708  15.154  0.6757 -1.3245 -0.8904
16834TIP3    H271994   5.742   5.843  15.148 -3.0471  0.6754  0.5048
16835TIP3   OH271995   1.842   4.416  14.796 -0.2951 -0.7677 -0.2448
16835TIP3    H171996   1.815   4.496  14.751 -1.3820 -1.4577 -0.8390
16835TIP3    H271997   1.765   4.359  14.792  0.1449 -1.4671  1.0449
16836TIP3   OH271998   4.666   4.432  17.123 -0.0834 -1.0632  0.6650
16836TIP3    H171999   4.625   4.477  17.049  0.4572 -1.4519  0.1307
16836TIP3    H272000   4.603   4.442  17.195  0.4929  1.4483  0.8559
16837TIP3   OH272001   4.666   6.727   0.023 -0.0965  0.0822 -0.6325
16837TIP3    H172002   4.761   6.727   0.015  0.0175  2.3160  0.2690
16837TIP3    H272003   4.638   6.804  -0.025 -1.7439 -2.0568 -3.2607
16838TIP3   OH272004   4.961   1.478  10.780 -0.0607 -0.0803  0.0630
16838TIP3    H172005   4.939   1.554  10.834 -1.0689  0.8116 -1.5509
16838TIP3    H272006   5.037   1.506  10.729 -0.5193 -0.0847 -0.6377
16839TIP3   OH272007   6.151   6.444   0.307  0.1697  1.1783 -0.4627
16839TIP3    H172008   6.096   6.438   0.229 -2.8412  1.7639  1.5278
16839TIP3    H272009   6.184   6.534   0.305  0.0740  1.2068 -1.0253
16840TIP3   OH272010   2.078   2.427  12.488 -0.2813 -0.0809 -0.0036
16840TIP3    H172011   2.141   2.387  12.548 -1.4980  1.3436  2.3109
16840TIP3    H272012   2.016   2.357  12.468 -0.3094 -0.3562  1.0357
16841TIP3   OH272013   2.160   0.919  10.619  1.0335 -0.6083  0.2874
16841TIP3    H172014   2.071   0.939  10.591  0.9350  0.6171  1.4189
16841TIP3    H272015   2.182   0.837  10.575 -0.0290 -0.0316 -1.3454
16842TIP3   OH272016   3.078   0.363  12.239  0.2428  0.0056 -0.5777
16842TIP3    H172017   2.998   0.344  12.289  1.2613 -1.8844  0.4062
16842TIP3    H272018   3.055   0.438  12.184 -2.6399 -1.2990 -1.2838
16843TIP3   OH272019   0.673   6.463  12.139 -0.0537  0.1818  0.6830
16843TIP3    H172020   0.589   6.495  12.172  0.5509  0.5041  1.9619
16843TIP3    H272021   0.703   6.402  12.206 -0.9210 -2.6740 -1.4519
16844TIP3   OH272022   1.520   4.813   3.267 -0.6139  0.1612 -0.3464
16844TIP3    H172023   1.503   4.747   3.199 -2.3553  1.4091 -1.1403
16844TIP3    H272024   1.446   4.873   3.262 -0.5007  0.5680  2.3315
16845TIP3   OH272025   3.502   0.162  12.835  0.6068 -0.4974 -0.6603
16845TIP3    H172026   3.462   0.210  12.907 -0.1491 -1.4667 -0.4207
16845TIP3    H272027   3.586   0.133  12.870 -0.1969 -1.8492  0.2088
16846TIP3   OH272028   3.696   1.728  12.486 -0.0018 -0.0361  0.2836
16846TIP3    H172029   3.629   1.796  12.482 -0.3462 -0.3820  0.1812
16846TIP3    H272030   3.728   1.731  12.577  1.4949  1.7053 -0.2721
16847TIP3   OH272031   5.279   0.997  16.451 -0.4462  0.3645 -0.0527
16847TIP3    H172032   5.334   1.045  16.513  0.5143  1.9873 -2.0903
16847TIP3    H272033   5.191   1.002  16.487  0.4753 -0.9932  2.5066
16848TIP3   OH272034   5.699   6.546  12.272  0.7927 -0.3395 -0.2344
16848TIP3    H172035   5.632   6.553  12.340  1.5225  0.1507  0.4378
16848TIP3    H272036   5.664   6.482  12.210  0.4026 -1.2430  0.9164
16849TIP3   OH272037   5.171   1.507   3.568 -0.1719 -0.3725  0.3441
16849TIP3    H172038   5.077   1.528   3.573 -0.0736  0.0400  0.5044
16849TIP3    H272039   5.192   1.473   3.655  0.3110  1.5943  1.0060
16850TIP3   OH272040   3.095   6.460  12.957 -0.7784  0.1536 -0.0329
16850TIP3    H172041   3.186   6.432  12.964 -0.3312  1.3826 -0.7277
16850TIP3    H272042   3.068   6.477  13.047  0.2184  1.4204  0.0423
16851TIP3   OH272043   0.175   3.714  12.626  0.3244  0.1244 -0.4013
16851TIP3    H172044   0.244   3.664  12.670 -0.4739 -0.7051 -0.0620
16851TIP3    H272045   0.174   3.798  12.672 -0.4451 -0.7067  1.1473
16852TIP3   OH272046   1.303   5.921   2.695  0.5880 -0.2270  0.1119
16852TIP3    H172047   1.376   5.865   2.721  0.2831  0.0191  1.5448
16852TIP3    H272048   1.225   5.869   2.712  0.4276 -0.4928 -1.4267
16853TIP3   OH272049   3.649   0.464   0.222 -0.3124  0.0634  0.4395
16853TIP3    H172050   3.709   0.491   0.291  0.7052 -0.6227 -0.1499
16853TIP3    H272051   3.666   0.525   0.150 -1.8658  1.2153  1.0253
16854TIP3   OH272052   4.277   1.068   3.566 -0.0513  0.2335 -0.0628
16854TIP3    H172053   4.279   1.117   3.484 -0.6908 -1.4955 -1.1248
16854TIP3    H272054   4.212   0.999   3.552  1.4763 -1.4950  1.0907
16855TIP3   OH272055   4.158   0.418   4.191 -0.4316  0.5483  0.1674
16855TIP3    H172056   4.203   0.417   4.106 -0.7457  1.7486 -0.0266
16855TIP3    H272057   4.157   0.327   4.219  1.1453  0.3594 -0.3440
16856TIP3   OH272058   1.500   6.418   0.173  0.0520 -0.0624  0.4030
16856TIP3    H172059   1.476   6.480   0.242  1.0105  0.9721 -0.1565
16856TIP3    H272060   1.504   6.472   0.093 -1.8950 -1.3952 -0.6289
16857TIP3   OH272061   4.286   0.161  14.682 -0.2859 -0.0248 -0.5538
16857TIP3    H172062   4.350   0.117  14.626  0.0914 -0.8102  0.4938
16857TIP3    H272063   4.339   0.216  14.740 -0.5325 -0.8609  0.4817
16858TIP3   OH272064   4.661   3.863   4.240 -0.4910 -0.6533 -0.2884
16858TIP3    H172065   4.605   3.787   4.255  0.8605 -1.5323  0.3581
16858TIP3    H272066   4.722   3.863   4.313 -0.6859  1.2650 -0.0941
16859TIP3   OH272067   1.143   3.418  14.536 -0.0664 -0.4089 -0.0797
16859TIP3    H172068   1.177   3.369  14.461 -0.4264 -1.7997  0.6518
16859TIP3    H272069   1.084   3.484  14.497  0.9468 -0.0995 -1.1089
16860TIP3   OH272070   2.395   0.890  16.944 -0.4736  0.1345 -0.8000
16860TIP3    H172071   2.371   0.869  16.854 -0.9044  1.3193 -0.9620
16860TIP3    H272072   2.366   0.980  16.957 -1.8836 -0.5517  1.0377
16861TIP3   OH272073   1.363   0.851  14.782  0.2115  0.2675  0.0274
16861TIP3    H172074   1.313   0.812  14.711  0.0262 -0.4966  0.5620
16861TIP3    H272075   1.409   0.925  14.742 -0.5142  0.3294 -0.6964
16862TIP3   OH272076   1.545   1.973  16.123  0.2687  0.1475 -0.6570
16862TIP3    H172077   1.544   2.054  16.172 -0.2381 -1.1958  1.6262
16862TIP3    H272078   1.456   1.963  16.090  0.0773  0.0321 -0.1061
16863TIP3   OH272079   4.705   1.778  15.839  0.7646  0.1203  0.0133
16863TIP3    H172080   4.623   1.736  15.815  0.9226  0.7182 -1.6506
16863TIP3    H272081   4.730   1.829  15.761  2.1847  0.7503  0.8528
16864TIP3   OH272082   5.861   5.888  11.261  0.1620  0.1187  0.4036
16864TIP3    H172083   5.947   5.927  11.279  0.5864 -0.8864  0.5810
16864TIP3    H272084   5.881   5.802  11.225 -0.7269  1.1120 -2.6364
16865TIP3   OH272085   3.884   4.667   1.221 -0.3203  0.3207  0.1057
16865TIP3    H172086   3.802   4.713   1.202 -1.2863 -0.7794  1.6166
16865TIP3    H272087   3.859   4.576   1.233  1.1234 -0.0054  0.6891
16866TIP3   OH272088   6.776   6.283  12.939 -0.1065  0.2228 -0.0720
16866TIP3    H172089   6.836   6.208  12.932  0.5062  0.5839  1.1577
16866TIP3    H272090   6.815   6.350  12.882 -1.2247 -0.7365 -2.0172
16867TIP3   OH272091   5.265   3.349  15.731  0.2219  0.2705 -0.0754
16867TIP3    H172092   5.228   3.376  15.815 -0.3391  2.7652 -1.0691
16867TIP3    H272093   5.334   3.413  15.714  0.8750 -0.6998 -1.1433
16868TIP3   OH272094   0.780   2.668   2.171  0.1776 -0.4223  0.3082
16868TIP3    H172095   0.749   2.587   2.211 -1.2850 -0.9260 -1.7948
16868TIP3    H272096   0.738   2.670   2.085  1.2865  1.8854 -0.2054
16869TIP3   OH272097   5.176   0.216  11.458 -0.3337 -0.4850 -0.1696
16869TIP3    H172098   5.136   0.136  11.424  1.3159 -2.4321  2.2488
16869TIP3    H272099   5.241   0.185  11.521  0.1179  2.7925  1.0786
16870TIP3   OH272100   1.964   2.103   1.392  0.0567 -0.4085  0.0192
16870TIP3    H172101   1.972   2.197   1.377 -0.1974 -0.5215 -0.8398
16870TIP3    H272102   2.029   2.063   1.335 -1.8443 -0.9190 -1.8763
16871TIP3   OH272103   0.325   3.557  11.876 -0.6189  0.1183 -0.1276
16871TIP3    H172104   0.287   3.622  11.936  0.0430  1.0102 -0.6685
16871TIP3    H272105   0.265   3.482  11.881 -1.4686  0.8228  0.3934
16872TIP3   OH272106   2.612   3.486  16.965  0.1925 -0.1048  0.2123
16872TIP3    H172107   2.601   3.558  17.028  0.4156  1.1994 -1.1930
16872TIP3    H272108   2.655   3.417  17.015  0.9059  1.1271  1.3573
16873TIP3   OH272109   1.600   4.730  16.649 -0.0065 -0.5163  0.1325
16873TIP3    H172110   1.693   4.718  16.627  0.5492 -1.9556  3.0412
16873TIP3    H272111   1.559   4.648  16.621 -0.4616  0.2020 -1.3392
16874TIP3   OH272112   2.431   2.091  16.562 -0.6162  0.0222 -0.6153
16874TIP3    H172113   2.360   2.100  16.626 -1.5952 -1.2527 -1.4874
16874TIP3    H272114   2.433   2.176  16.517 -1.3875  0.1791 -0.3634
16875TIP3   OH272115   4.807   3.884  14.343 -0.2088  0.3670 -0.0174
16875TIP3    H172116   4.761   3.871  14.260  0.0014 -1.4192  0.1056
16875TIP3    H272117   4.738   3.896  14.408 -0.4843 -0.8763 -0.0605
16876TIP3   OH272118   0.796   3.520   2.303  0.3998 -0.0667  0.1323
16876TIP3    H172119   0.705   3.513   2.331  0.5092  0.6304  0.6743
16876TIP3    H272120   0.847   3.475   2.371  0.3825 -1.3396 -0.6808
16877TIP3   OH272121   3.178   2.857  13.481 -0.2576  0.1724  0.0898
16877TIP3    H172122   3.163   2.853  13.575 -0.7693  0.1918  0.0108
16877TIP3    H272123   3.227   2.777  13.461  1.3501  0.9991  0.6348
16878TIP3   OH272124   6.077   5.303  10.973  0.4060 -0.1305  0.2354
16878TIP3    H172125   6.046   5.220  10.938 -0.2156 -0.5195  1.6736
16878TIP3    H272126   6.075   5.363  10.899 -1.5344 -0.7741 -0.2460
16879TIP3   OH272127   0.671   0.668  15.425 -0.0037  0.3097 -0.0502
16879TIP3    H172128   0.646   0.582  15.460 -1.7471  0.6225 -0.5035
16879TIP3    H272129   0.704   0.715  15.502 -0.8856 -0.0846  0.5816
16880TIP3   OH272130   0.884   4.830  13.091 -0.4133  0.2088 -0.0129
16880TIP3    H172131   0.867   4.893  13.161  0.2830  0.3096  0.0675
16880TIP3    H272132   0.814   4.766  13.100 -0.8539  0.7098  0.2064
16881TIP3   OH272133   1.007   2.748   1.284  0.4903  0.0781 -0.0857
16881TIP3    H172134   1.037   2.824   1.333  3.7470  0.0431 -1.8874
16881TIP3    H272135   1.011   2.676   1.347 -0.9888  1.0603  1.1624
16882TIP3   OH272136   5.416   4.633  14.515  0.3776 -0.1941  0.5718
16882TIP3    H172137   5.507   4.643  14.544 -0.2954 -0.1049  2.7436
16882TIP3    H272138   5.376   4.578  14.582 -0.1353 -3.8783 -2.5322
16883TIP3   OH272139   4.854   5.723   5.249  0.0142 -0.4900 -0.4265
16883TIP3    H172140   4.926   5.700   5.307  0.2696  0.5505 -0.3203
16883TIP3    H272141   4.825   5.809   5.279 -1.8548 -1.2643  0.0820
16884TIP3   OH272142   1.465   0.321   4.363  0.3442 -0.7222 -0.0029
16884TIP3    H172143   1.497   0.235   4.389 -0.6825 -1.4240 -1.0607
16884TIP3    H272144   1.515   0.343   4.285  1.3129  0.0967  0.8239
16885TIP3   OH272145   6.474   6.444  15.456 -0.8839  0.5413  0.6703
16885TIP3    H172146   6.458   6.350  15.465 -1.0620  0.4558 -0.4752
16885TIP3    H272147   6.388   6.484  15.465 -0.9525  0.5146  0.1334
16886TIP3   OH272148   3.279   6.817   4.369 -0.0075  0.3604 -0.0705
16886TIP3    H172149   3.263   6.760   4.444  0.2190  0.9769  0.4514
16886TIP3    H272150   3.370   6.846   4.380  0.3511 -0.3419 -1.1214
16887TIP3   OH272151   4.715   0.463  15.980 -0.2073 -0.1484 -0.0468
16887TIP3    H172152   4.708   0.418  16.064 -1.4671  0.4999  0.1975
16887TIP3    H272153   4.738   0.553  16.003  1.3544 -0.4102 -0.4952
16888TIP3   OH272154   1.247   1.163   4.581 -0.1108  0.2861  0.1986
16888TIP3    H172155   1.233   1.098   4.649  0.7834 -0.1056  0.0129
16888TIP3    H272156   1.180   1.144   4.515  0.7830 -1.0958 -0.3316
16889TIP3   OH272157   4.951   0.413  16.469  0.2815  0.0588 -0.2302
16889TIP3    H172158   4.898   0.334  16.455 -0.3629  0.2155  1.2461
16889TIP3    H272159   4.894   0.485  16.445 -0.1874  0.2274  1.3541
16890TIP3   OH272160   0.506   3.369  10.615  0.0135 -0.0671 -0.3435
16890TIP3    H172161   0.599   3.389  10.602  0.3240 -0.4760  1.1340
16890TIP3    H272162   0.499   3.350  10.708 -1.5693 -0.0177 -0.4467
16891TIP3   OH272163   1.676   4.225  12.752  0.4986 -0.3674 -0.0964
16891TIP3    H172164   1.747   4.165  12.732  0.2889 -0.0636 -1.8711
16891TIP3    H272165   1.596   4.171  12.746  0.4141 -0.2194 -0.3066
16892TIP3   OH272166   3.112   2.395  17.211 -0.2007 -0.4185 -0.7004
16892TIP3    H172167   3.180   2.386  17.277 -1.1873 -3.9740 -0.0745
16892TIP3    H272168   3.034   2.420  17.260 -0.4922 -1.2327 -0.7380
16893TIP3   OH272169   1.025   0.383   2.845 -0.9677  0.1535  0.4645
16893TIP3    H172170   1.037   0.473   2.815 -2.1792  0.1290 -0.1158
16893TIP3    H272171   1.032   0.388   2.941  0.3129  0.6395  0.3521
16894TIP3   OH272172   6.440   2.505   5.125  0.2059 -0.0188 -0.2743
16894TIP3    H172173   6.374   2.573   5.114 -0.2132 -0.4050 -0.1276
16894TIP3    H272174   6.410   2.433   5.069  0.7785  0.0102 -0.6263
16895TIP3   OH272175   1.105   4.076  15.661  0.4046 -0.5173  0.1030
16895TIP3    H172176   1.065   4.002  15.615  0.9125  0.1769 -1.4881
16895TIP3    H272177   1.166   4.113  15.598  1.2690  0.3441  1.4219
16896TIP3   OH272178   1.183   3.398  11.242  0.9670  0.3252  0.5732
16896TIP3    H172179   1.139   3.329  11.192 -0.3525  1.2233  0.4971
16896TIP3    H272180   1.235   3.446  11.176 -0.0529  0.9397  0.2083
16897TIP3   OH272181   0.797   6.080  17.272 -0.0154 -0.2249  0.6374
16897TIP3    H172182   0.703   6.075  17.290  0.2620  0.4395  2.4299
16897TIP3    H272183   0.833   6.001  17.312  0.4986  0.8313  2.3659
16898TIP3   OH272184   4.946   2.990   4.544  0.1638  0.2104 -0.0397
16898TIP3    H172185   4.855   3.013   4.564 -0.0412  0.4063 -1.1509
16898TIP3    H272186   4.971   3.052   4.475  0.4510 -1.2076 -1.2224
16899TIP3   OH272187   2.750   6.166   5.794  0.1159 -0.3134  0.2289
16899TIP3    H172188   2.824   6.156   5.853 -2.0117 -2.8924  2.5924
16899TIP3    H272189   2.772   6.112   5.718  1.9920  1.4379 -0.4998
16900TIP3   OH272190   6.719   6.677   1.269  0.1118 -0.2615  0.1928
16900TIP3    H172191   6.695   6.584   1.268 -0.2229 -0.1849  0.8954
16900TIP3    H272192   6.814   6.677   1.254 -0.0660 -0.6503 -0.9810
16901TIP3   OH272193   4.975   4.335   2.448 -0.3607  0.2505 -0.3665
16901TIP3    H172194   4.938   4.281   2.378 -2.7323  1.0152  0.2510
16901TIP3    H272195   4.988   4.274   2.520  0.3430 -0.1807 -0.8511
16902TIP3   OH272196   0.612   5.142   0.217 -0.3084 -0.0681 -0.4779
16902TIP3    H172197   0.524   5.118   0.187 -0.0424 -1.5128 -0.1742
16902TIP3    H272198   0.670   5.092   0.160  0.2627 -0.5032  0.4694
16903TIP3   OH272199   2.455   0.498   0.422 -0.4448 -0.0421 -0.4736
16903TIP3    H172200   2.519   0.430   0.440  2.1393  2.1565 -1.1729
16903TIP3    H272201   2.436   0.537   0.508 -0.7222 -0.5505 -0.2999
16904TIP3   OH272202   1.345   5.712  15.245  0.4764  0.3248 -0.1070
16904TIP3    H172203   1.323   5.802  15.221  2.3417  1.2147  1.3658
16904TIP3    H272204   1.417   5.688  15.187  0.4030  0.0078 -0.0678
16905TIP3   OH272205   3.010   5.857   0.343  0.7599  0.3221  0.2973
16905TIP3    H172206   2.943   5.865   0.411  0.8183  1.4385  0.2467
16905TIP3    H272207   3.088   5.898   0.382  1.4579 -1.0618  0.4039
16906TIP3   OH272208   0.169   4.748  11.165  0.4109  0.2150 -0.0396
16906TIP3    H172209   0.163   4.668  11.217  1.0722 -0.5582 -1.1206
16906TIP3    H272210   0.195   4.718  11.078  0.3799  1.5810 -0.5360
16907TIP3   OH272211   2.551   4.707  14.477 -0.9879 -0.0243 -0.9589
16907TIP3    H172212   2.512   4.769  14.538  0.1818  1.6129 -1.8481
16907TIP3    H272213   2.645   4.724  14.482 -0.7589 -0.9036 -2.1067
16908TIP3   OH272214   2.457   0.484   0.728  0.7283  0.8043 -0.1066
16908TIP3    H172215   2.408   0.557   0.766  0.4205  1.1193 -1.0802
16908TIP3    H272216   2.547   0.515   0.724  0.4512  1.4737 -1.3256
16909TIP3   OH272217   1.255   4.901   0.519 -0.3633 -0.4491 -0.1417
16909TIP3    H172218   1.203   4.826   0.548  0.6715 -0.7294  1.0149
16909TIP3    H272219   1.344   4.882   0.551  0.0489  0.9267 -0.4658
16910TIP3   OH272220   4.389   4.296   3.185 -0.1801 -0.1991  0.6276
16910TIP3    H172221   4.475   4.261   3.210  0.6188  0.6919 -0.8022
16910TIP3    H272222   4.340   4.220   3.153  0.0549 -0.7088  1.4467
16911TIP3   OH272223   3.143   6.101  14.546 -0.3037  0.2345  0.1138
16911TIP3    H172224   3.055   6.085  14.514 -1.2283  1.7202  1.8754
16911TIP3    H272225   3.132   6.128  14.637  1.8559  1.8590 -0.0614
16912TIP3   OH272226   4.551   4.962  15.398  0.1910 -0.0452 -0.6731
16912TIP3    H172227   4.644   4.988  15.397  0.1134  0.2268 -1.6786
16912TIP3    H272228   4.533   4.942  15.489  1.2642 -0.1551 -0.4732
16913TIP3   OH272229   2.722   1.899   3.207 -0.6452  0.8484 -0.1296
16913TIP3    H172230   2.668   1.884   3.284  1.1412 -0.1826  0.9431
16913TIP3    H272231   2.659   1.904   3.135 -2.1784 -0.5287  1.0574
16914TIP3   OH272232   6.156   3.267   4.946 -0.0284 -0.3009  0.2335
16914TIP3    H172233   6.208   3.341   4.914  0.3537  0.0216  1.5624
16914TIP3    H272234   6.172   3.197   4.882  4.0794 -1.0299  1.8710
16915TIP3   OH272235   5.467   0.875   3.598  0.6076 -0.6463 -0.0181
16915TIP3    H172236   5.426   0.944   3.651  1.0574  0.5884 -1.2546
16915TIP3    H272237   5.393   0.827   3.560  0.2993 -0.6075  0.5142
16916TIP3   OH272238   3.601   6.686   1.838  0.5644 -0.1591 -0.2196
16916TIP3    H172239   3.559   6.767   1.868  1.1780 -0.2614  0.9234
16916TIP3    H272240   3.690   6.692   1.871 -0.0118 -2.3555  1.8523
16917TIP3   OH272241   4.303   3.708   1.238  0.2656  0.1508  0.0017
16917TIP3    H172242   4.211   3.683   1.250  0.4282 -1.1198 -1.1906
16917TIP3    H272243   4.336   3.722   1.326 -1.0150  0.3653  0.4586
16918TIP3   OH272244   2.954   5.290   2.418 -0.0889 -0.0443 -0.1660
16918TIP3    H172245   2.987   5.339   2.343  0.3101 -0.5442 -0.3217
16918TIP3    H272246   2.974   5.199   2.397 -1.7644 -0.3818 -0.3680
16919TIP3   OH272247   4.480   6.579  13.880 -0.3574 -0.1146  0.0414
16919TIP3    H172248   4.552   6.518  13.895 -0.3877  0.3464  2.3855
16919TIP3    H272249   4.519   6.651  13.831  0.3925 -0.6169 -0.1036
16920TIP3   OH272250   2.094   3.714   6.191 -0.2709  0.1911  0.1934
16920TIP3    H172251   2.188   3.726   6.208 -0.2694  0.9333 -0.3377
16920TIP3    H272252   2.051   3.751   6.268 -0.1683  0.7934 -0.0443
16921TIP3   OH272253   2.859   0.643  16.250  0.2728 -0.7063  0.4918
16921TIP3    H172254   2.921   0.672  16.183  1.1611 -1.2818  1.0456
16921TIP3    H272255   2.835   0.722  16.297 -0.3403 -0.3011 -0.4902
16922TIP3   OH272256   3.623   2.457   2.443 -0.2991  0.4050 -0.1530
16922TIP3    H172257   3.651   2.394   2.509  0.3912 -0.2689 -1.0684
16922TIP3    H272258   3.664   2.539   2.468  0.5762 -0.0281 -0.1616
16923TIP3   OH272259   0.954   2.064   0.911  0.2833 -0.0953  0.0938
16923TIP3    H172260   0.931   2.035   0.999  2.0191 -0.6249  0.3882
16923TIP3    H272261   0.963   1.983   0.860 -0.3530  0.1908 -0.4879
16924TIP3   OH272262   2.449   3.062  13.939  0.2256 -0.0799 -0.2678
16924TIP3    H172263   2.498   3.016  14.007  0.6515 -1.5289 -1.5349
16924TIP3    H272264   2.413   3.139  13.983  1.5758 -0.3175  1.2757
16925TIP3   OH272265   1.075   2.744  15.305  0.3399 -0.0324 -0.0909
16925TIP3    H172266   0.988   2.752  15.266  0.2782  0.3557  0.1205
16925TIP3    H272267   1.128   2.703  15.237 -0.8326 -3.6071  1.0251
16926TIP3   OH272268   1.155   5.772  14.061  0.4504  0.5333 -0.7357
16926TIP3    H172269   1.116   5.801  14.143 -0.5173 -0.2867 -0.8987
16926TIP3    H272270   1.085   5.784  13.996  0.2806 -1.4392 -0.9373
16927TIP3   OH272271   3.664   6.085  15.298  0.1408  0.2282 -0.2331
16927TIP3    H172272   3.593   6.084  15.233  1.1411  1.8062 -1.3836
16927TIP3    H272273   3.620   6.107  15.380 -0.6103  1.9967 -1.0839
16928TIP3   OH272274   6.459   1.377   1.676 -0.2653 -0.2685  0.5234
16928TIP3    H172275   6.480   1.468   1.699 -1.7808 -0.2413  1.8918
16928TIP3    H272276   6.416   1.383   1.590 -2.2708  0.5656  1.5428
16929TIP3   OH272277   4.926   5.776   0.679 -0.0733  0.7069 -0.3334
16929TIP3    H172278   4.880   5.694   0.700  1.2937 -0.2946 -1.1007
16929TIP3    H272279   4.867   5.845   0.708 -1.9157 -0.5320 -1.0025
16930TIP3   OH272280   6.576   0.404  13.960  0.2847  0.0413  0.1196
16930TIP3    H172281   6.513   0.441  13.899 -0.8325 -0.8867  0.6858
16930TIP3    H272282   6.528   0.336  14.006  1.9820 -1.3630 -0.1180
16931TIP3   OH272283   5.621   3.200  13.529 -0.0444 -0.0340  0.0074
16931TIP3    H172284   5.574   3.213  13.446 -0.4985  1.0943  0.4256
16931TIP3    H272285   5.634   3.289  13.563 -0.2887 -0.5127  1.3788
16932TIP3   OH272286   1.546   3.891   4.397  0.0710  0.3922 -0.8640
16932TIP3    H172287   1.530   3.985   4.409 -0.5150  0.2371 -0.4197
16932TIP3    H272288   1.534   3.854   4.484  1.1020  0.0140 -0.8773
16933TIP3   OH272289   0.294   2.055   6.229 -0.3607 -0.0607  0.2636
16933TIP3    H172290   0.202   2.072   6.248 -0.2822 -1.0206  1.6266
16933TIP3    H272291   0.341   2.125   6.273 -0.3241 -0.9032  1.6122
16934TIP3   OH272292   4.621   0.846   1.196 -0.2693  0.0733 -0.0629
16934TIP3    H172293   4.697   0.812   1.243 -1.2098 -2.8789 -0.5625
16934TIP3    H272294   4.624   0.941   1.210  3.3874 -0.0045  0.0420
16935TIP3   OH272295   2.729   3.773  13.283 -0.3831 -0.3258  0.5890
16935TIP3    H172296   2.710   3.700  13.341  0.1853 -1.2187 -0.3414
16935TIP3    H272297   2.811   3.749  13.239 -0.9498  0.2058 -0.8046
16936TIP3   OH272298   3.634   0.786  12.468 -0.0949 -0.2486  0.0314
16936TIP3    H172299   3.638   0.795  12.372  1.2301 -1.1809 -0.0172
16936TIP3    H272300   3.602   0.697  12.482  0.5857 -0.4267  0.4545
16937TIP3   OH272301   0.973   6.564   1.045  0.2880 -0.2376  0.1216
16937TIP3    H172302   0.958   6.583   1.137  1.1253 -1.4819  0.5339
16937TIP3    H272303   1.044   6.624   1.019  0.4817 -0.3227  0.4546
16938TIP3   OH272304   1.931   2.102  12.586 -0.1044  0.8462  0.7848
16938TIP3    H172305   1.842   2.124  12.557 -0.6417  0.1167  1.8427
16938TIP3    H272306   1.962   2.038  12.522  0.0078  1.7709 -0.1008
16939TIP3   OH272307   4.716   1.870  16.433  0.0161  0.2254 -0.1659
16939TIP3    H172308   4.693   1.953  16.390 -0.1218  1.0026  1.3700
16939TIP3    H272309   4.812   1.866  16.429  0.1601  1.4617  1.5322
16940TIP3   OH272310   2.894   5.233  15.958 -0.1931 -0.0441  0.4453
16940TIP3    H172311   2.831   5.183  15.906  0.1723 -0.4377  0.3801
16940TIP3    H272312   2.977   5.223  15.911 -0.4849  2.1612 -0.5846
16941TIP3   OH272313   4.106   1.040   5.109  0.8986 -0.5722 -0.5848
16941TIP3    H172314   4.040   1.075   5.167  2.2169  1.2789 -0.1586
16941TIP3    H272315   4.115   1.106   5.040  0.2915 -2.1261 -2.2036
16942TIP3   OH272316   4.162   4.241  14.933  0.2284 -0.0213  0.0024
16942TIP3    H172317   4.186   4.151  14.910 -0.6847  0.1487 -1.7099
16942TIP3    H272318   4.068   4.237  14.951  0.1619  0.6186 -0.1771
16943TIP3   OH272319   6.791   1.978   1.220  0.3629  0.4701  0.5868
16943TIP3    H172320   6.809   1.893   1.180  0.3641  0.7146  0.0608
16943TIP3    H272321   6.715   1.963   1.275 -0.4398  0.4304 -0.5257
16944TIP3   OH272322   5.448   5.789   0.531 -0.0125  0.6766 -0.1092
16944TIP3    H172323   5.369   5.830   0.565 -0.2077  0.5658 -0.4244
16944TIP3    H272324   5.511   5.794   0.603 -0.2675  0.8723  0.1008
16945TIP3   OH272325   3.468   5.192  13.445 -0.1441 -0.0017 -0.0048
16945TIP3    H172326   3.390   5.240  13.415  0.2167  1.0585  0.7273
16945TIP3    H272327   3.457   5.104  13.409 -0.6081  0.7407 -1.7254
16946TIP3   OH272328   4.969   3.777   2.199 -0.3268  0.3824  0.2556
16946TIP3    H172329   4.919   3.824   2.266 -0.4547 -0.5237  0.8067
16946TIP3    H272330   4.925   3.799   2.117 -2.1762 -1.0838  0.8285
16947TIP3   OH272331   6.455   3.477   4.123  0.5228  0.1207  0.4458
16947TIP3    H172332   6.489   3.389   4.106  1.0280  0.1813  1.1077
16947TIP3    H272333   6.523   3.536   4.091  0.7590  0.2529  1.1811
16948TIP3   OH272334   2.644   0.953   2.630 -0.7247 -0.3635  0.3930
16948TIP3    H172335   2.704   1.016   2.669 -0.0268 -0.1455 -1.0105
16948TIP3    H272336   2.575   1.006   2.591  0.4842 -0.3662 -1.8394
16949TIP3   OH272337   4.345   1.798  16.469  0.4939  0.2661  0.1267
16949TIP3    H172338   4.439   1.785  16.475  0.5621 -0.4400 -1.9508
16949TIP3    H272339   4.307   1.712  16.487  0.4681 -0.4714 -3.1442
16950TIP3   OH272340   1.644   5.765  14.546  0.0038  0.3884  0.0882
16950TIP3    H172341   1.605   5.809  14.471  1.5864 -0.2998 -1.1752
16950TIP3    H272342   1.737   5.789  14.542  0.4287 -1.0832  0.7668
16951TIP3   OH272343   0.079   4.727   5.426  0.2720  0.6278 -0.0697
16951TIP3    H172344   0.126   4.649   5.396 -0.5940  0.2092 -0.3474
16951TIP3    H272345   0.044   4.767   5.346 -3.1759 -1.2170  0.4241
16952TIP3   OH272346   5.042   0.141   1.962  0.6314 -0.1273  0.0234
16952TIP3    H172347   5.095   0.162   2.039 -0.2140 -2.4803  1.2744
16952TIP3    H272348   5.069   0.053   1.938 -2.7384 -1.4004  0.7284
16953TIP3   OH272349   2.360   1.045  13.480  0.1357 -0.4259  0.0413
16953TIP3    H172350   2.382   0.994  13.401  0.2573  1.1914 -0.9890
16953TIP3    H272351   2.271   1.076  13.465  1.7880  3.8669 -1.6745
16954TIP3   OH272352   0.734   3.303   3.498  0.8978 -0.1597  0.2987
16954TIP3    H172353   0.765   3.277   3.411 -0.4258  0.6826 -0.4249
16954TIP3    H272354   0.687   3.227   3.531 -0.7417  0.3887 -0.7543
16955TIP3   OH272355   1.653   5.018  15.602 -0.0675 -0.1355 -0.2417
16955TIP3    H172356   1.615   5.106  15.607  0.1429 -0.1564  2.1258
16955TIP3    H272357   1.739   5.032  15.562 -0.4771  0.5749 -0.9089
16956TIP3   OH272358   5.801   1.167   3.304  0.3443 -0.2326  0.0685
16956TIP3    H172359   5.758   1.252   3.310 -0.4837 -0.5909 -0.6232
16956TIP3    H272360   5.763   1.116   3.375  2.3860  0.6290  1.8170
16957TIP3   OH272361   1.136   1.666   0.994 -0.6731  0.2824  0.5967
16957TIP3    H172362   1.134   1.696   1.085  1.0041 -0.5936  0.9265
16957TIP3    H272363   1.228   1.648   0.976 -1.3767 -2.8793 -0.1585
16958TIP3   OH272364   2.447   2.001  10.566 -0.2215 -0.3966 -0.3617
16958TIP3    H172365   2.499   2.075  10.598  0.2182  0.4274 -2.9097
16958TIP3    H272366   2.356   2.028  10.579 -0.0816  0.9801 -2.0308
16959TIP3   OH272367   0.252   2.882  11.485 -0.0153  0.0701 -0.3677
16959TIP3    H172368   0.247   2.943  11.411 -0.9528  0.8135  0.2963
16959TIP3    H272369   0.304   2.927  11.551  0.0868 -0.2327 -0.2404
16960TIP3   OH272370   3.528   1.688   2.144 -0.1920  0.2288 -0.2557
16960TIP3    H172371   3.473   1.758   2.107 -1.5842 -0.4919  0.4281
16960TIP3    H272372   3.476   1.652   2.216  0.1727 -2.0499 -1.0893
16961TIP3   OH272373   4.195   3.687  14.767  0.2637  0.5346  0.4076
16961TIP3    H172374   4.214   3.765  14.714  0.0283  1.2274  1.3223
16961TIP3    H272375   4.240   3.704  14.850 -0.7048  0.1907  1.0033
16962TIP3   OH272376   1.814   6.803   2.634 -0.3433 -0.2796 -0.0564
16962TIP3    H172377   1.832   6.768   2.722 -1.4477  2.2303  1.2166
16962TIP3    H272378   1.816   6.726   2.577  1.7800 -1.7885  1.9318
16963TIP3   OH272379   2.745   5.149  16.290 -0.9787  0.1190  0.0473
16963TIP3    H172380   2.727   5.218  16.226 -0.3644  1.0692  0.8868
16963TIP3    H272381   2.821   5.103  16.254  0.6650  1.9426  1.0609
16964TIP3   OH272382   1.086   1.888   5.797 -0.0475 -0.1605 -0.0621
16964TIP3    H172383   1.121   1.896   5.886  1.4028 -0.3620 -0.5927
16964TIP3    H272384   0.992   1.883   5.808  0.2597 -3.9996  1.7604
16965TIP3   OH272385   4.110   0.585  13.325  0.2797 -0.2233  0.3666
16965TIP3    H172386   4.190   0.534  13.315 -0.1447 -1.2872  2.2694
16965TIP3    H272387   4.076   0.594  13.236  0.0399 -3.7893  0.0202
16966TIP3   OH272388   6.020   4.371   5.006 -0.3377 -0.2282 -0.0980
16966TIP3    H172389   6.058   4.414   4.929  1.0221  1.4898  1.4828
16966TIP3    H272390   5.973   4.441   5.052  0.3381 -0.8176  1.5449
16967TIP3   OH272391   5.046   0.943  12.290 -0.0055  0.4324  0.0714
16967TIP3    H172392   4.967   0.985  12.323  1.6823  1.6305  2.7591
16967TIP3    H272393   5.061   0.983  12.205 -1.2403  1.6079  0.3981
16968TIP3   OH272394   5.764   6.098   5.933 -0.1281  0.0766 -0.0646
16968TIP3    H172395   5.669   6.103   5.939 -0.2639 -1.1292 -0.9306
16968TIP3    H272396   5.782   6.109   5.839  0.6279  0.9263  0.1754
16969TIP3   OH272397   2.496   1.383  13.945  0.5897  0.1439 -0.2664
16969TIP3    H172398   2.526   1.299  13.981 -1.8928  0.5036  2.7754
16969TIP3    H272399   2.427   1.359  13.883  1.3561 -0.1536 -1.0222
16970TIP3   OH272400   5.162   6.183   5.886  0.3056  0.1678  0.2797
16970TIP3    H172401   5.152   6.223   5.972  1.4546 -0.4503  0.7102
16970TIP3    H272402   5.085   6.210   5.838 -2.4297 -2.7227  2.7811
16971TIP3   OH272403   5.032   1.149  13.441  0.2038 -0.1275 -0.4640
16971TIP3    H172404   4.942   1.159  13.409 -0.7156 -0.0817  2.0564
16971TIP3    H272405   5.058   1.236  13.471  1.7470  0.2414 -2.7493
16972TIP3   OH272406   4.039   3.875  16.660  0.0915 -0.1381  0.1438
16972TIP3    H172407   3.948   3.851  16.641  0.5276 -0.4823 -1.5487
16972TIP3    H272408   4.088   3.795  16.643  0.7725  0.1672  0.6652
16973TIP3   OH272409   2.126   4.802  14.958  0.1394 -0.7197  0.0865
16973TIP3    H172410   2.211   4.785  15.001 -0.8648  0.7015  2.7696
16973TIP3    H272411   2.061   4.771  15.022 -1.4095 -0.0366 -1.1338
16974TIP3   OH272412   5.578   0.324  11.692 -0.7971  0.2655 -0.3376
16974TIP3    H172413   5.526   0.263  11.745 -0.6810  0.5792  0.1410
16974TIP3    H272414   5.657   0.339  11.743 -0.0224 -0.5480 -1.2624
16975TIP3   OH272415   0.574   0.349   5.770 -0.2397  0.3478 -0.2502
16975TIP3    H172416   0.576   0.333   5.865 -0.8677  0.0413 -0.2910
16975TIP3    H272417   0.549   0.265   5.732  0.0186  0.4698 -0.6949
16976TIP3   OH272418   2.701   3.344   2.185 -0.8300 -0.1290  0.1888
16976TIP3    H172419   2.689   3.421   2.240  1.0796  2.5985 -3.0102
16976TIP3    H272420   2.685   3.375   2.096  0.4883 -3.2918 -1.2341
16977TIP3   OH272421   3.453   0.602  12.154 -0.2566 -0.0672  0.0325
16977TIP3    H172422   3.410   0.601  12.240  0.0649  0.9333  0.2063
16977TIP3    H272423   3.406   0.536  12.104  0.2224 -1.3986  1.3002
16978TIP3   OH272424   5.901   5.609  13.052  0.1350  0.0610 -0.3120
16978TIP3    H172425   5.890   5.676  12.983  1.2520  0.7882  0.2086
16978TIP3    H272426   5.989   5.575  13.038 -0.4197 -1.2980 -0.5474
16979TIP3   OH272427   3.038   2.509   4.445  0.1262  0.3717 -0.4801
16979TIP3    H172428   3.041   2.595   4.485 -0.3131  0.3907 -0.4839
16979TIP3    H272429   3.128   2.478   4.447  0.1679  0.5265  0.1854
16980TIP3   OH272430   5.152   4.994  16.993  0.3085 -0.0131  0.2541
16980TIP3    H172431   5.086   4.926  16.981  1.8302 -1.3235 -0.9612
16980TIP3    H272432   5.160   5.036  16.907  0.4514  0.7098  0.6147
16981TIP3   OH272433   0.668   1.871  17.027 -0.6959 -0.1809 -0.2622
16981TIP3    H172434   0.625   1.794  17.065  2.1830 -2.5642 -1.6619
16981TIP3    H272435   0.603   1.908  16.968 -2.2895 -1.2358  0.7862
16982TIP3   OH272436   3.350   2.264  16.895 -0.0292  0.4649  0.3378
16982TIP3    H172437   3.423   2.219  16.852  0.9677 -0.2473  2.6735
16982TIP3    H272438   3.392   2.326  16.955 -1.3852  1.9592 -0.2279
16983TIP3   OH272439   0.828   4.612   0.209  0.1063  0.4388  0.3466
16983TIP3    H172440   0.736   4.597   0.187  0.8379 -0.4315 -2.3329
16983TIP3    H272441   0.872   4.531   0.186  1.1786 -0.2217  4.3264
16984TIP3   OH272442   0.448   3.443  14.890  0.1240  0.2025 -0.0878
16984TIP3    H172443   0.464   3.350  14.908  0.8274  0.1843 -0.7673
16984TIP3    H272444   0.524   3.470  14.837 -1.0210  0.6786 -1.5119
16985TIP3   OH272445   0.209   2.133  13.960  0.1713 -0.2093 -0.3612
16985TIP3    H172446   0.115   2.142  13.946  0.4791  1.0429 -1.8383
16985TIP3    H272447   0.236   2.068  13.894  0.2335 -1.1472  0.5767
16986TIP3   OH272448   3.188   0.080   0.454  0.5756 -0.0547 -0.3281
16986TIP3    H172449   3.188   0.096   0.548  1.0492  1.6990 -0.5978
16986TIP3    H272450   3.281   0.068   0.432  0.7051  1.7416 -0.8842
16987TIP3   OH272451   0.046   5.091   5.403 -0.0521 -0.3997  0.0581
16987TIP3    H172452  -0.011   5.094   5.479 -0.0317 -0.3823  0.0729
16987TIP3    H272453   0.110   5.160   5.417  1.1456 -1.6571  0.9822
16988TIP3   OH272454   5.212   4.940   2.904  0.1946  0.2153  0.1053
16988TIP3    H172455   5.229   4.994   2.827 -0.4847 -0.5696 -0.5990
16988TIP3    H272456   5.277   4.969   2.968  0.6391  1.0037 -0.6880
16989TIP3   OH272457   4.005   5.085  11.879  0.7292 -0.5194 -0.2743
16989TIP3    H172458   3.954   5.099  11.800 -0.3613 -0.6741  0.3913
16989TIP3    H272459   4.058   5.008  11.860 -0.7525 -1.5561 -0.2579
16990TIP3   OH272460   5.715   2.416   1.696 -0.0154  0.1822 -0.5273
16990TIP3    H172461   5.807   2.416   1.669 -0.3608 -1.6085 -1.7819
16990TIP3    H272462   5.707   2.492   1.754  2.6165 -0.5613  0.8564
16991TIP3   OH272463   3.650   5.205   0.343  0.2396 -0.7361 -0.0303
16991TIP3    H172464   3.654   5.144   0.269  0.3774  2.3537 -2.7098
16991TIP3    H272465   3.572   5.258   0.326  0.2273 -0.0093  2.1097
16992TIP3   OH272466   6.806   3.633  14.500  1.0123  0.0014  0.0582
16992TIP3    H172467   6.821   3.538  14.501 -2.2521 -0.5603  0.2022
16992TIP3    H272468   6.745   3.649  14.572  1.7009  2.2819  0.1852
16993TIP3   OH272469   6.292   1.327   6.992 -0.0726 -0.7261 -0.6328
16993TIP3    H172470   6.373   1.369   7.022 -1.0708  0.2191  0.7811
16993TIP3    H272471   6.253   1.391   6.932  1.2999 -2.0982 -3.0730
16994TIP3   OH272472   4.471   4.656  12.127 -0.0990  0.6858 -0.0860
16994TIP3    H172473   4.386   4.698  12.121 -0.1157  0.5392 -0.9741
16994TIP3    H272474   4.531   4.724  12.157 -0.3440  1.0343 -0.3997
16995TIP3   OH272475   3.235   2.205  15.019  0.2050  0.2750 -0.2218
16995TIP3    H172476   3.305   2.140  15.010  1.7200  1.8272 -0.0069
16995TIP3    H272477   3.198   2.188  15.106  0.6545 -0.2299 -0.1260
16996TIP3   OH272478   4.337   1.870   0.766  0.5897 -0.2402 -0.3983
16996TIP3    H172479   4.385   1.875   0.849  2.3526 -1.3640 -1.3183
16996TIP3    H272480   4.404   1.850   0.701 -0.6462  1.5126 -2.2526
16997TIP3   OH272481   6.657   5.180  12.715 -0.6095 -0.0914  0.0473
16997TIP3    H172482   6.749   5.167  12.739 -0.9521  1.9004  2.7061
16997TIP3    H272483   6.655   5.173  12.620  2.2684 -0.4028 -0.0120
16998TIP3   OH272484   0.034   5.296   6.637  0.1957 -0.0872 -0.4210
16998TIP3    H172485  -0.002   5.276   6.723  0.7460  1.7093  0.2447
16998TIP3    H272486   0.090   5.221   6.616 -1.0554 -1.1982  0.1385
16999TIP3   OH272487   0.600   2.600   4.983  0.7343  0.4821  0.2058
16999TIP3    H172488   0.693   2.615   4.967  0.7296 -0.0612 -0.3448
16999TIP3    H272489   0.589   2.619   5.076  1.4604  0.2596  0.3462
17000TIP3   OH272490   0.587   0.127   4.498  0.2089 -0.1870 -0.2046
17000TIP3    H172491   0.548   0.138   4.585  1.7845 -0.3967  0.5415
17000TIP3    H272492   0.653   0.196   4.492  0.9762 -0.9515 -0.7327
17001TIP3   OH272493   5.352   6.659   2.382  0.5582 -0.2319  0.3865
17001TIP3    H172494   5.298   6.704   2.447 -0.6574 -0.4709 -0.4604
17001TIP3    H272495   5.342   6.566   2.403 -0.0559 -0.3261 -0.3083
17002TIP3   OH272496   6.651   5.285   2.167  0.0656 -0.2982  0.7396
17002TIP3    H172497   6.683   5.345   2.100  0.0173  0.2573  1.2141
17002TIP3    H272498   6.602   5.219   2.118  0.4210 -0.1529  0.1827
17003TIP3   OH272499   1.053   6.501   6.262 -0.3990  0.4609  0.1843
17003TIP3    H172500   1.058   6.435   6.332  2.2005  2.2625  1.8036
17003TIP3    H272501   1.022   6.453   6.186  2.0361 -2.7942  1.1337
17004TIP3   OH272502   6.072   2.676   2.012 -0.0260  0.2952 -0.4208
17004TIP3    H172503   6.034   2.745   1.958 -1.3171 -0.8688 -1.0197
17004TIP3    H272504   6.152   2.651   1.966 -0.7068 -0.1365 -1.3899
17005TIP3   OH272505   3.884   5.288  13.568  0.2923  0.2847 -0.1928
17005TIP3    H172506   3.879   5.239  13.486 -0.6757  1.6275 -0.9709
17005TIP3    H272507   3.970   5.330  13.566  0.6721 -0.4682 -0.0413
17006TIP3   OH272508   3.876   4.175  12.716 -0.0589 -0.1175  0.4545
17006TIP3    H172509   3.782   4.185  12.702  0.1186 -0.3876 -0.9914
17006TIP3    H272510   3.916   4.240  12.659  0.6630 -0.5794  0.4306
17007TIP3   OH272511   3.716   0.064   5.459 -0.0783 -0.1490 -0.0653
17007TIP3    H172512   3.716   0.037   5.367 -1.0116 -0.1325 -0.0784
17007TIP3    H272513   3.763   0.147   5.460 -0.1182 -0.1194 -0.5323
17008TIP3   OH272514   4.401   0.300  14.904  0.1954 -0.0568 -0.6606
17008TIP3    H172515   4.422   0.387  14.936  0.3885  0.4129 -2.0212
17008TIP3    H272516   4.323   0.274  14.954  0.6420  0.5301  0.3491
17009TIP3   OH272517   5.436   2.372   0.120 -0.1201  0.0248 -0.7337
17009TIP3    H172518   5.504   2.306   0.126  1.8845  2.1439  0.5368
17009TIP3    H272519   5.448   2.412   0.034 -0.7488 -0.5799 -1.1180
17010TIP3   OH272520   4.048   0.760  12.805 -0.1908  0.2222  0.0184
17010TIP3    H172521   3.976   0.793  12.859  0.9516  0.1272  1.6570
17010TIP3    H272522   4.033   0.666  12.798 -0.3469  0.2355  0.1875
17011TIP3   OH272523   3.083   4.811   2.719  0.0915  0.3237  0.3416
17011TIP3    H172524   3.171   4.791   2.686 -0.4761  0.0724 -1.0221
17011TIP3    H272525   3.075   4.906   2.708 -0.5774  0.0713 -1.4513
17012TIP3   OH272526   3.463   0.624  17.204  0.2411  0.3049 -0.1880
17012TIP3    H172527   3.555   0.623  17.228  0.1763 -0.6215  0.0316
17012TIP3    H272528   3.462   0.601  17.111  0.2878  1.1225 -0.3899
17013TIP3   OH272529   6.398   1.959  13.256 -0.4000 -0.4190  0.2273
17013TIP3    H172530   6.306   1.942  13.237 -0.9470  1.0542  1.4916
17013TIP3    H272531   6.397   2.008  13.338  1.5717 -1.3130  0.8202
17014TIP3   OH272532   1.899   5.278   1.416  0.1064 -0.1223 -0.2459
17014TIP3    H172533   1.831   5.315   1.360 -0.0685 -2.4853 -1.6645
17014TIP3    H272534   1.981   5.291   1.368  0.0179 -1.7026 -0.8570
17015TIP3   OH272535   2.391   0.466   4.358 -0.5940  0.1827  0.0136
17015TIP3    H172536   2.388   0.543   4.415  0.2144 -0.3378  0.7645
17015TIP3    H272537   2.354   0.497   4.275 -0.6685  1.2644  0.4352
17016TIP3   OH272538   0.650   6.766   0.609  0.2147  0.0177  0.3751
17016TIP3    H172539   0.701   6.727   0.680 -0.1405  0.2500  0.7608
17016TIP3    H272540   0.674   6.859   0.610  1.7610 -0.3475 -1.1407
17017TIP3   OH272541   5.235   1.158   5.434  0.1432  0.4959  0.0457
17017TIP3    H172542   5.310   1.101   5.448 -0.3809 -0.1323  0.3189
17017TIP3    H272543   5.200   1.131   5.349 -1.3948 -1.0751  1.1460
17018TIP3   OH272544   5.078   4.653   0.069  0.3954 -0.1472  0.2521
17018TIP3    H172545   5.168   4.652   0.100 -0.0813  0.5319  1.7147
17018TIP3    H272546   5.073   4.580   0.007  2.3880  0.9060 -1.2121
17019TIP3   OH272547   0.385   1.918  15.157  0.4592  0.5794 -0.2767
17019TIP3    H172548   0.407   2.008  15.180 -1.4868  1.4586 -1.7304
17019TIP3    H272549   0.379   1.918  15.061 -1.7775 -0.5571 -0.1612
17020TIP3   OH272550   4.265   1.495   5.417 -0.0070 -0.3401 -0.4674
17020TIP3    H172551   4.217   1.414   5.435 -0.8395 -0.0405 -1.2747
17020TIP3    H272552   4.238   1.555   5.487  1.3833 -1.0740  0.7062
17021TIP3   OH272553   2.522   2.250  12.687  0.1463  0.8400  0.1027
17021TIP3    H172554   2.554   2.338  12.708 -0.7287  0.8780  1.3548
17021TIP3    H272555   2.586   2.215  12.626  0.2622  2.5237 -0.7718
17022TIP3   OH272556   2.332   0.662  13.880 -0.2047 -0.2518 -0.0152
17022TIP3    H172557   2.281   0.595  13.834 -0.6343 -0.2868  0.5015
17022TIP3    H272558   2.281   0.680  13.959 -0.4676  1.2337 -0.5169
17023TIP3   OH272559   2.448   2.499   5.289  0.0470 -0.3282  0.0529
17023TIP3    H172560   2.540   2.523   5.284  0.0207 -0.5673 -2.4169
17023TIP3    H272561   2.448   2.408   5.319  0.6397 -0.4656 -0.3568
17024TIP3   OH272562   5.626   5.941   4.572  0.3353 -0.2331 -0.3134
17024TIP3    H172563   5.685   5.868   4.557  1.3702  0.4660  0.3111
17024TIP3    H272564   5.571   5.912   4.646 -1.2873 -1.5725 -1.9951
17025TIP3   OH272565   3.178   2.483   1.378  0.3724 -0.2648 -0.3063
17025TIP3    H172566   3.234   2.533   1.318 -0.5863 -1.0436 -1.8636
17025TIP3    H272567   3.114   2.547   1.409  0.0966 -0.1552 -1.0984
17026TIP3   OH272568   4.622   1.320  15.864 -0.8085  0.0764  0.1454
17026TIP3    H172569   4.559   1.342  15.796 -1.1186  2.2055  1.0904
17026TIP3    H272570   4.677   1.398  15.872  0.1831 -0.7217  1.2546
17027TIP3   OH272571   4.252   1.814  12.050 -0.0076  0.6680  0.4177
17027TIP3    H172572   4.228   1.879  12.115 -1.0996  0.4482  0.2546
17027TIP3    H272573   4.277   1.865  11.973  1.0568  0.9213  0.9240
17028TIP3   OH272574   0.939   0.895   2.788  0.2111 -0.1642  0.0236
17028TIP3    H172575   0.853   0.853   2.794  0.8580 -1.4372  0.5475
17028TIP3    H272576   0.938   0.962   2.855 -0.0025 -0.8705  0.7349
17029TIP3   OH272577   3.799   4.553  15.200 -0.2163  0.0242 -0.2010
17029TIP3    H172578   3.891   4.534  15.218 -0.4681 -1.2119 -0.1458
17029TIP3    H272579   3.789   4.645  15.222  0.7762 -0.0775  0.7546
17030TIP3   OH272580   0.451   5.901  17.212  0.5078  1.1858 -0.5178
17030TIP3    H172581   0.375   5.888  17.157  0.0437  1.5697  0.0257
17030TIP3    H272582   0.466   5.996  17.210 -0.3327  1.3647  1.0931
17031TIP3   OH272583   2.670   2.565  14.468  0.1854  0.1468  0.1293
17031TIP3    H172584   2.685   2.589  14.377 -0.0856  0.3178  0.1288
17031TIP3    H272585   2.631   2.478  14.464 -0.4878  0.4505  0.0476
17032TIP3   OH272586   2.938   1.729  14.398  0.2663  0.0312  0.5333
17032TIP3    H172587   2.878   1.800  14.379 -0.8982 -1.0720  0.0006
17032TIP3    H272588   2.887   1.649  14.383  2.0788 -0.9486 -0.6972
17033TIP3   OH272589   3.844   1.471  10.504 -0.3823 -0.0586  0.4638
17033TIP3    H172590   3.818   1.404  10.441  1.7480  1.1057 -1.7241
17033TIP3    H272591   3.812   1.553  10.467  2.0477  0.7981  0.1666
17034TIP3   OH272592   5.936   1.146  16.558  0.6244 -0.0284 -0.0821
17034TIP3    H172593   5.971   1.058  16.543 -0.1444 -0.4989  0.8110
17034TIP3    H272594   5.899   1.171  16.473  3.7967  0.8330 -1.2846
17035TIP3   OH272595   1.302   2.801   1.157  0.2857 -0.1956 -0.1000
17035TIP3    H172596   1.334   2.768   1.073 -0.5675 -2.4009  0.4018
17035TIP3    H272597   1.235   2.738   1.183  0.6784  0.3588  2.3380
17036TIP3   OH272598   4.628   6.644  14.512  0.1970  0.6038 -0.2337
17036TIP3    H172599   4.602   6.571  14.568 -2.4466  0.1406 -2.0223
17036TIP3    H272600   4.697   6.689  14.562 -0.9892 -0.7099  2.6611
17037TIP3   OH272601   2.934   1.903   2.183  0.4460  0.3848 -0.0934
17037TIP3    H172602   2.937   1.966   2.111 -0.9308 -1.5722 -1.9092
17037TIP3    H272603   2.848   1.916   2.223  0.3968  0.0792 -0.0989
17038TIP3   OH272604   0.345   0.239  13.125  0.1119 -0.4677  0.1009
17038TIP3    H172605   0.276   0.183  13.088  0.7489  0.2416 -2.2597
17038TIP3    H272606   0.366   0.300  13.055  1.0982  1.2203  1.8267
17039TIP3   OH272607   0.033   5.448   5.691  0.0637  0.3268 -0.4575
17039TIP3    H172608   0.064   5.510   5.758  0.2310 -0.6604  0.3973
17039TIP3    H272609  -0.016   5.382   5.740  0.7644 -0.7795 -1.2204
17040TIP3   OH272610   3.989   5.608  12.192 -0.0491  0.3087 -0.4025
17040TIP3    H172611   3.961   5.578  12.106  1.0538  3.0710 -1.8201
17040TIP3    H272612   4.085   5.599  12.190 -0.1929 -2.2505  1.6451
17041TIP3   OH272613   3.978   4.159  11.225 -0.1747  0.0323 -0.4124
17041TIP3    H172614   3.957   4.092  11.159  2.5844 -0.0787 -1.2135
17041TIP3    H272615   3.912   4.146  11.293 -1.6828 -1.3506 -2.0682
17042TIP3   OH272616   1.577   4.952   0.538 -0.5877 -0.3922 -0.0474
17042TIP3    H172617   1.589   4.861   0.564  2.1703 -0.9912 -3.1775
17042TIP3    H272618   1.619   5.003   0.607  0.5920 -1.6304  0.1573
17043TIP3   OH272619   2.457   4.760   4.991  0.2085  0.0908  0.5832
17043TIP3    H172620   2.374   4.805   4.972 -0.1853 -0.9636 -0.2084
17043TIP3    H272621   2.482   4.719   4.909  0.3362 -1.5196  1.4018
17044TIP3   OH272622   3.837   5.296  11.264  0.2510 -0.4691 -0.5914
17044TIP3    H172623   3.838   5.382  11.306  0.5073 -1.5740  1.7425
17044TIP3    H272624   3.753   5.257  11.289 -0.0013 -0.7869 -1.8857
17045TIP3   OH272625   2.646   3.293   3.654  0.7629 -0.0717 -0.0188
17045TIP3    H172626   2.738   3.317   3.657  0.2562  2.1058 -1.0490
17045TIP3    H272627   2.635   3.253   3.567  0.4908  0.7558 -0.3686
17046TIP3   OH272628   2.687   6.250  13.243  0.1647 -0.1980 -0.2310
17046TIP3    H172629   2.782   6.242  13.232  0.3659  0.1525  1.1603
17046TIP3    H272630   2.669   6.342  13.227  0.5107  0.3945  2.5456
17047TIP3   OH272631   4.388   2.485  14.829  0.0412  0.3715  0.4702
17047TIP3    H172632   4.361   2.399  14.797 -0.0568  0.5133  0.1664
17047TIP3    H272633   4.313   2.517  14.879 -0.3076  0.7076 -0.2620
17048TIP3   OH272634   0.452   4.033  15.596  0.4079  0.6513 -0.7313
17048TIP3    H172635   0.382   4.096  15.578  0.7442  1.0964 -0.4970
17048TIP3    H272636   0.422   3.984  15.672  1.2744  2.2750  0.6956
17049TIP3   OH272637   1.435   0.728   2.417  0.4799 -0.0204 -0.6695
17049TIP3    H172638   1.494   0.799   2.442  0.7536 -0.2401 -0.6927
17049TIP3    H272639   1.353   0.772   2.393 -0.2907  0.1222  2.0404
17050TIP3   OH272640   4.507   2.517  13.865 -0.2913 -0.0468  0.2784
17050TIP3    H172641   4.505   2.582  13.794 -1.2758 -0.6189 -0.2292
17050TIP3    H272642   4.420   2.478  13.864  0.0723 -0.9006  1.0343
17051TIP3   OH272643   2.219   4.046  12.585 -0.3544  0.2444  0.6698
17051TIP3    H172644   2.232   3.968  12.639  1.2685 -1.0419 -1.5032
17051TIP3    H272645   2.274   4.113  12.626  1.0975 -0.7987  0.4606
17052TIP3   OH272646   0.249   6.193   3.514 -0.5339 -0.0350 -0.3526
17052TIP3    H172647   0.243   6.207   3.420 -1.1696 -0.5291 -0.3818
17052TIP3    H272648   0.330   6.238   3.539  0.4623 -1.2065 -1.3748
17053TIP3   OH272649   6.803   4.374   3.715 -0.1489 -0.0188  0.4248
17053TIP3    H172650   6.849   4.290   3.716  0.9807  0.5573 -0.4899
17053TIP3    H272651   6.819   4.411   3.802  1.5187  0.3620 -0.0198
17054TIP3   OH272652   5.583   1.968   5.596 -0.2256 -0.0344 -0.4992
17054TIP3    H172653   5.594   1.873   5.596 -0.6782 -0.0896 -0.0902
17054TIP3    H272654   5.507   1.983   5.653  0.2634  0.6124 -0.0082
17055TIP3   OH272655   6.721   6.289   0.141  0.0143 -0.2098  0.0579
17055TIP3    H172656   6.795   6.229   0.132 -0.5890 -0.6510 -2.3408
17055TIP3    H272657   6.677   6.261   0.222  0.4280 -2.2429 -0.3937
17056TIP3   OH272658   2.630   1.496  14.933  0.1012  0.2583  0.2753
17056TIP3    H172659   2.571   1.422  14.918 -0.8893  0.9062  0.9012
17056TIP3    H272660   2.596   1.537  15.013  1.5249  0.5178  0.7584
17057TIP3   OH272661   1.853   0.575  15.465 -0.4587 -0.3655  0.3184
17057TIP3    H172662   1.783   0.610  15.519  1.6258 -0.2120  3.0165
17057TIP3    H272663   1.857   0.633  15.389 -0.5396  2.0984  2.1563
17058TIP3   OH272664   5.126   2.753  12.087  0.1754 -0.7529  0.1472
17058TIP3    H172665   5.110   2.744  11.993 -1.2251  0.9382  0.1961
17058TIP3    H272666   5.040   2.773  12.124  1.1765  1.4825  1.3978
17059TIP3   OH272667   0.691   1.338  16.274 -0.5993 -0.1757 -0.3216
17059TIP3    H172668   0.601   1.305  16.269 -0.1145 -1.3797 -1.2716
17059TIP3    H272669   0.742   1.267  16.312 -0.4106  1.3118  2.3291
17060TIP3   OH272670   1.964   6.355  12.923 -1.0771 -0.7299  0.2069
17060TIP3    H172671   2.019   6.322  12.995  0.6314 -0.2770 -0.8617
17060TIP3    H272672   1.971   6.288  12.855  1.5063  1.2100 -1.5369
17061TIP3   OH272673   6.239   3.741   6.713  0.1426  0.4242  0.0268
17061TIP3    H172674   6.153   3.703   6.695  0.2173  0.3912 -0.2638
17061TIP3    H272675   6.289   3.670   6.753 -0.4288  0.8589  1.5476
17062TIP3   OH272676   6.427   0.703  17.104 -0.6345  0.9649 -0.0632
17062TIP3    H172677   6.348   0.662  17.071 -0.9703  1.8576 -0.3961
17062TIP3    H272678   6.433   0.675  17.196 -0.4021 -0.4657 -0.5105
17063TIP3   OH272679   5.043   5.252   2.162  0.3507 -0.2313 -0.3868
17063TIP3    H172680   5.088   5.271   2.079 -0.4670  0.6346 -0.6394
17063TIP3    H272681   4.950   5.250   2.138  0.1356 -0.2725  0.4575
17064TIP3   OH272682   6.154   4.210   4.284  0.2561  0.0423  0.0327
17064TIP3    H172683   6.102   4.168   4.352  0.5823  1.5029  1.2031
17064TIP3    H272684   6.111   4.295   4.270  2.3111  1.2941  1.0510
17065TIP3   OH272685   5.909   0.877  12.204  0.2326 -0.1094 -0.4703
17065TIP3    H172686   5.871   0.838  12.125  2.5580 -0.7843 -1.3059
17065TIP3    H272687   5.885   0.970  12.199 -4.1369 -1.0429  0.8046
17066TIP3   OH272688   5.391   5.915   3.898  0.3655  0.2588  0.0345
17066TIP3    H172689   5.308   5.935   3.941 -0.8124 -2.5567 -0.7858
17066TIP3    H272690   5.448   5.884   3.969  0.2065  0.7455  0.3708
17067TIP3   OH272691   1.706   1.112   5.493 -0.2508  0.7619 -0.1123
17067TIP3    H172692   1.730   1.198   5.526  1.5882  0.0820  0.3797
17067TIP3    H272693   1.668   1.066   5.568 -0.0263  0.6917 -0.0426
17068TIP3   OH272694   4.545   4.990  17.228 -0.7403 -0.4657 -0.1402
17068TIP3    H172695   4.602   5.003  17.304 -0.9634  1.4358 -0.2742
17068TIP3    H272696   4.565   4.901  17.198  0.2029 -0.8046  1.4278
17069TIP3   OH272697   3.605   0.153  11.486  0.1449 -0.3956 -0.1453
17069TIP3    H172698   3.587   0.224  11.547  0.4039 -0.2542 -0.2332
17069TIP3    H272699   3.680   0.183  11.435  1.4284 -1.5084  1.0510
17070TIP3   OH272700   6.191   4.790   2.104  0.3747  0.4285 -0.0216
17070TIP3    H172701   6.259   4.857   2.111 -0.5925  1.2464  1.9368
17070TIP3    H272702   6.116   4.827   2.150 -0.0390 -2.1703  1.4728
17071TIP3   OH272703   0.891   0.885   5.446 -0.5364 -0.6561 -0.6445
17071TIP3    H172704   0.869   0.852   5.534  0.5090 -0.1757 -0.1971
17071TIP3    H272705   0.953   0.821   5.411 -0.3264 -0.4130 -0.7143
17072TIP3   OH272706   2.721   3.363   2.689 -0.3329  0.2500  0.6674
17072TIP3    H172707   2.682   3.300   2.748 -1.2158  0.5879  0.4554
17072TIP3    H272708   2.787   3.313   2.640 -0.8775 -0.4534  0.6440
17073TIP3   OH272709   3.258   2.573  13.653  1.3536  0.1185  0.6365
17073TIP3    H172710   3.304   2.491  13.668  2.6497  0.8428  0.6955
17073TIP3    H272711   3.199   2.582  13.728  1.0206 -0.8814  0.4950
17074TIP3   OH272712   4.096   4.603   1.944  0.1937 -0.1854  0.3452
17074TIP3    H172713   4.182   4.568   1.966  0.5033  1.3740  1.6467
17074TIP3    H272714   4.101   4.695   1.966 -1.3808  0.2108 -0.8634
17075TIP3   OH272715   0.089   6.778   4.798 -0.2675  0.2532 -0.1781
17075TIP3    H172716   0.070   6.860   4.843  1.8620  1.1612 -0.9095
17075TIP3    H272717   0.004   6.749   4.765 -1.4597  0.8375  2.2280
17076TIP3   OH272718   5.693   2.734   5.891  0.5780  0.3513  0.0061
17076TIP3    H172719   5.745   2.788   5.832 -0.3791  1.9004  0.5377
17076TIP3    H272720   5.623   2.698   5.837  0.3164  0.9247 -0.0511
17077TIP3   OH272721   0.684   6.145   4.139 -0.2048 -0.7283  0.4682
17077TIP3    H172722   0.663   6.117   4.228  0.8555 -0.5779  0.7619
17077TIP3    H272723   0.601   6.178   4.105 -0.4135  0.0417  1.6973
17078TIP3   OH272724   4.437   6.581  11.031  0.0401 -0.4930  0.1145
17078TIP3    H172725   4.457   6.639  10.958  1.7241 -1.0263  0.1321
17078TIP3    H272726   4.416   6.497  10.990 -3.0638  0.2377  0.0486
17079TIP3   OH272727   3.288   1.227  12.431 -0.6301 -0.4790 -0.3588
17079TIP3    H172728   3.296   1.248  12.338  1.6138  2.3576  0.3995
17079TIP3    H272729   3.352   1.157  12.446  2.8715  2.6281 -0.0171
17080TIP3   OH272730   6.474   0.425   0.502  0.5886 -0.3566  0.6124
17080TIP3    H172731   6.554   0.375   0.514  0.0377 -0.6907  3.2820
17080TIP3    H272732   6.410   0.381   0.558 -0.9234  1.1113  0.0863
17081TIP3   OH272733   2.882   1.536   6.039  0.1851 -0.0870 -0.1369
17081TIP3    H172734   2.965   1.580   6.024  0.8255 -0.8929  0.9257
17081TIP3    H272735   2.905   1.443   6.044 -0.7384 -0.2945  0.3857
17082TIP3   OH272736   6.580   4.112   3.782 -0.4299  0.2087 -0.0088
17082TIP3    H172737   6.510   4.072   3.730 -1.1428  2.1728 -0.6079
17082TIP3    H272738   6.652   4.125   3.720 -0.8179  1.3889 -0.2181
17083TIP3   OH272739   2.118   4.555   2.945 -0.1611  0.2570 -0.4865
17083TIP3    H172740   2.063   4.507   3.008 -1.2581  2.4337  0.2682
17083TIP3    H272741   2.080   4.535   2.860 -0.5024 -0.3256 -0.2043
17084TIP3   OH272742   5.024   4.574  10.984  0.7116  0.0194 -0.2404
17084TIP3    H172743   5.068   4.564  10.900  1.0937 -1.8782  0.1515
17084TIP3    H272744   5.093   4.560  11.049 -0.2881 -2.2010  0.3769
17085TIP3   OH272745   5.913   5.408   1.685  0.0778  0.2248  0.0593
17085TIP3    H172746   5.841   5.454   1.641 -0.0096 -0.6100 -0.7033
17085TIP3    H272747   5.887   5.316   1.683  0.9212 -0.0249  0.2428
17086TIP3   OH272748   4.155   0.345  12.689  0.3609  0.5089  0.0968
17086TIP3    H172749   4.111   0.261  12.703  1.5637 -0.0176  0.8574
17086TIP3    H272750   4.171   0.349  12.595  0.4550 -0.2019  0.0803
17087TIP3   OH272751   2.066   6.476   2.655 -0.0957 -0.0922  0.3965
17087TIP3    H172752   2.047   6.554   2.708  1.0631 -0.7225  1.7706
17087TIP3    H272753   1.992   6.470   2.594  1.0628  3.5430 -1.4682
17088TIP3   OH272754   1.053   2.411  14.075 -0.1365 -0.1757 -0.1358
17088TIP3    H172755   1.114   2.358  14.126 -0.2220 -0.6596 -0.5304
17088TIP3    H272756   1.093   2.416  13.988  0.0975  0.7962  0.0280
17089TIP3   OH272757   3.965   3.161   3.929  0.2085 -0.3967 -0.3495
17089TIP3    H172758   3.971   3.119   3.843 -1.8608  0.0055 -0.7320
17089TIP3    H272759   3.887   3.122   3.969 -1.1151  2.2332 -0.2703
17090TIP3   OH272760   6.285   4.226   0.276  0.1899  0.1134 -0.1185
17090TIP3    H172761   6.190   4.239   0.272  0.3372  1.6261  0.7909
17090TIP3    H272762   6.297   4.145   0.325 -0.6870 -1.4648 -2.4166
17091TIP3   OH272763   6.552   0.387   1.010  0.0328  0.1908 -0.6436
17091TIP3    H172764   6.643   0.413   0.995 -0.6859  2.7466 -0.7806
17091TIP3    H272765   6.547   0.298   0.974  2.9917 -0.8641  1.2906
17092TIP3   OH272766   0.026   4.315  11.908 -0.3105 -0.0943  0.0322
17092TIP3    H172767   0.024   4.237  11.853  0.2059 -0.7392  0.9242
17092TIP3    H272768   0.104   4.304  11.963 -0.6122  0.7272  0.6356
17093TIP3   OH272769   0.153   5.442   0.439  0.0193 -0.0870  0.2644
17093TIP3    H172770   0.248   5.451   0.437 -0.0015  0.1521  0.3578
17093TIP3    H272771   0.138   5.348   0.450  0.2385 -0.1895 -0.3161
17094TIP3   OH272772   3.389   4.584  16.677  0.3243  0.7500  0.3944
17094TIP3    H172773   3.374   4.667  16.722  2.0260  1.2200  0.1150
17094TIP3    H272774   3.462   4.601  16.618  0.5758 -0.9022  0.2043
17095TIP3   OH272775   4.858   5.859  16.202 -0.0264 -0.0480  0.2533
17095TIP3    H172776   4.895   5.868  16.290 -0.5024  2.2786  0.2476
17095TIP3    H272777   4.932   5.874  16.144  0.3464 -1.8502  0.2056
17096TIP3   OH272778   2.385   6.598   4.125  0.1163  0.1385  0.1234
17096TIP3    H172779   2.383   6.539   4.049  0.9238 -0.6577  0.7115
17096TIP3    H272780   2.425   6.546   4.195 -0.1872  1.0248  0.9664
17097TIP3   OH272781   6.434   6.510  13.848 -0.0746  0.4714 -0.0995
17097TIP3    H172782   6.357   6.556  13.815  1.2530  1.5466 -1.7447
17097TIP3    H272783   6.437   6.533  13.941 -2.3511 -0.4778  0.2457
17098TIP3   OH272784   3.878   4.921   3.296 -0.3260  0.0463 -0.7173
17098TIP3    H172785   3.822   4.916   3.219  0.5972  0.7281 -1.4405
17098TIP3    H272786   3.844   4.995   3.346 -1.0043 -0.4756 -0.3951
17099TIP3   OH272787   5.536   1.515   3.856 -0.3845  0.6395 -0.2211
17099TIP3    H172788   5.467   1.488   3.917  0.1238  0.2721  0.2014
17099TIP3    H272789   5.600   1.444   3.861  1.8651  2.7566  2.3080
17100TIP3   OH272790   4.727   3.956   3.433 -0.2245 -0.0717 -0.5149
17100TIP3    H172791   4.735   3.937   3.340  0.4324  0.1556 -0.5057
17100TIP3    H272792   4.797   4.018   3.451 -1.0925  0.7943 -0.1124
17101TIP3   OH272793   4.221   6.075  12.458  0.6132  0.2702  0.3182
17101TIP3    H172794   4.247   6.073  12.550  1.8176  0.9823  0.0106
17101TIP3    H272795   4.219   6.168  12.436  2.4052  0.0428 -0.9201
17102TIP3   OH272796   3.960   2.453  14.703 -0.0868 -0.0557 -0.1406
17102TIP3    H172797   4.001   2.538  14.722  0.9355 -0.7340  0.7587
17102TIP3    H272798   3.937   2.458  14.610  1.3340  0.6534 -0.4780
17103TIP3   OH272799   6.230   2.780   4.525  0.1357  0.3123 -0.1378
17103TIP3    H172800   6.303   2.721   4.544 -0.1343  0.5136  1.5733
17103TIP3    H272801   6.164   2.758   4.590 -1.3440  0.1601 -1.6460
17104TIP3   OH272802   2.708   0.092  10.528 -0.6080  0.3812  0.2133
17104TIP3    H172803   2.728   0.079  10.435  0.2624  1.6400  0.2243
17104TIP3    H272804   2.789   0.072  10.574 -1.4615 -1.7635  0.8501
17105TIP3   OH272805   0.433   4.695   3.440 -0.0293  0.3410  1.0792
17105TIP3    H172806   0.498   4.648   3.387  3.0230  3.5790  1.7470
17105TIP3    H272807   0.477   4.712   3.523 -1.0388  4.0777  0.9468
17106TIP3   OH272808   5.085   0.277  11.133 -0.5983  0.1824 -0.4386
17106TIP3    H172809   5.071   0.324  11.215  0.9602  0.4525 -0.3006
17106TIP3    H272810   5.009   0.299  11.079 -1.9084 -0.4272  1.1090
17107TIP3   OH272811   3.157   5.106   6.219  0.7317  0.2707  0.2865
17107TIP3    H172812   3.182   5.197   6.238  1.1041 -0.1227  1.6789
17107TIP3    H272813   3.223   5.053   6.263 -0.4859 -0.7105  0.9594
17108TIP3   OH272814   1.750   2.561   1.401 -0.2873 -0.7346 -0.0336
17108TIP3    H172815   1.775   2.631   1.461  1.7059 -1.1289 -0.3585
17108TIP3    H272816   1.747   2.604   1.315  2.3589 -1.2758 -0.4596
17109TIP3   OH272817   5.175   3.205   2.458  0.4207 -0.0781 -0.4442
17109TIP3    H172818   5.184   3.175   2.548  0.1462  0.3541 -0.2675
17109TIP3    H272819   5.260   3.186   2.417  1.0918  1.1293  0.3340
17110TIP3   OH272820   2.883   6.385   1.476 -0.6368  0.1232 -0.0941
17110TIP3    H172821   2.922   6.431   1.551 -0.4150  1.5037 -1.0356
17110TIP3    H272822   2.886   6.292   1.500 -1.1232  0.5943  1.8639
17111TIP3   OH272823   1.909   0.879  10.832 -0.5223  0.1965  0.0817
17111TIP3    H172824   1.959   0.837  10.762  1.4173  0.5915  1.2080
17111TIP3    H272825   1.834   0.821  10.845  0.1932 -0.9881 -0.8934
17112TIP3   OH272826   3.308   0.418  16.454 -0.3674 -0.8472 -0.2432
17112TIP3    H172827   3.238   0.475  16.486 -0.1316 -1.1099  0.7750
17112TIP3    H272828   3.292   0.410  16.360  0.5062  2.1889 -0.7109
17113TIP3   OH272829   2.932   4.995   6.329  0.5320 -0.1354  0.4049
17113TIP3    H172830   2.976   4.918   6.364  1.5520 -1.2412 -3.0546
17113TIP3    H272831   3.004   5.052   6.299 -0.2725  0.7429  0.1239
17114TIP3   OH272832   0.835   2.749  15.173  0.2487 -0.3716  0.6172
17114TIP3    H172833   0.803   2.659  15.177 -1.6249  0.2231 -0.2666
17114TIP3    H272834   0.874   2.757  15.086  0.0875 -0.2342  0.5572
17115TIP3   OH272835   1.488   2.745   1.955  0.2123  0.1191 -0.1289
17115TIP3    H172836   1.412   2.803   1.964 -0.5542 -0.6743 -1.3593
17115TIP3    H272837   1.452   2.665   1.917  1.2054 -1.2743  1.7906
17116TIP3   OH272838   3.116   5.047   5.937  0.5136  0.3264  0.0848
17116TIP3    H172839   3.189   4.990   5.914 -0.8853 -1.3614 -0.2376
17116TIP3    H272840   3.113   5.046   6.033  2.0339  1.8566  0.1634
17117TIP3   OH272841   0.979   6.700   5.813 -0.1230 -0.1749 -0.0982
17117TIP3    H172842   0.927   6.767   5.770  0.2668 -0.5874 -1.2290
17117TIP3    H272843   0.988   6.731   5.903 -0.6575  0.8655 -0.3933
17118TIP3   OH272844   0.129   2.633   0.820 -0.4467 -0.6363  0.0981
17118TIP3    H172845   0.143   2.612   0.728 -0.9188 -0.7095  0.0408
17118TIP3    H272846   0.204   2.594   0.865 -0.6935 -1.3958 -0.1468
17119TIP3   OH272847   0.742   0.638  13.916 -0.0869 -0.1814  0.1287
17119TIP3    H172848   0.768   0.553  13.880 -0.6962 -0.2396 -0.1783
17119TIP3    H272849   0.647   0.640  13.906  0.0085  0.8909 -0.6793
17120TIP3   OH272850   3.010   1.850   5.202  0.4266 -0.0415  0.3037
17120TIP3    H172851   2.951   1.781   5.233 -1.4777  0.9519 -0.9519
17120TIP3    H272852   3.014   1.912   5.275  1.0682 -0.7966  0.9253
17121TIP3   OH272853   4.673   5.172  12.383  0.4794  0.4993  0.2676
17121TIP3    H172854   4.627   5.142  12.304 -2.5604  1.2863  1.6441
17121TIP3    H272855   4.694   5.091  12.430 -0.2539  0.1397  0.0000
17122TIP3   OH272856   3.009   0.696  12.480  0.4404 -0.0939  0.0192
17122TIP3    H172857   3.091   0.710  12.527  0.4464  0.3579 -0.1282
17122TIP3    H272858   2.943   0.692  12.548  0.6746 -1.1755  0.1960
17123TIP3   OH272859   3.603   0.442   2.088  0.3409 -0.3907 -0.0531
17123TIP3    H172860   3.676   0.446   2.151  0.4537  0.9848 -0.2632
17123TIP3    H272861   3.629   0.374   2.026  1.7157  0.4484 -0.4360
17124TIP3   OH272862   6.167   2.369   3.679 -0.4796  0.6058 -0.1803
17124TIP3    H172863   6.135   2.373   3.589 -0.7309  0.5172 -0.0938
17124TIP3    H272864   6.215   2.451   3.690 -1.2383  1.0442 -0.0951
17125TIP3   OH272865   0.289   5.988  11.572  0.6236 -0.1322  1.1436
17125TIP3    H172866   0.331   6.004  11.487 -0.6015  1.7482  0.8600
17125TIP3    H272867   0.348   6.027  11.636 -0.7912  2.8346  0.7186
17126TIP3   OH272868   2.939   4.802  11.935 -0.1568 -0.1186 -0.0062
17126TIP3    H172869   3.023   4.806  11.982  1.2408  0.8824 -2.4591
17126TIP3    H272870   2.886   4.871  11.975  0.8740  0.4908  0.3208
17127TIP3   OH272871   3.242   1.942  11.349 -0.4459 -0.7546  0.2124
17127TIP3    H172872   3.190   1.872  11.310 -0.0466 -1.9440  1.7563
17127TIP3    H272873   3.203   1.955  11.435 -1.0699  1.5565 -0.3943
17128TIP3   OH272874   4.819   1.259   4.884  0.5201 -0.1142  0.2531
17128TIP3    H172875   4.808   1.178   4.834  1.2818 -0.4934  0.6849
17128TIP3    H272876   4.887   1.307   4.839  1.8600 -0.8724  1.4135
17129TIP3   OH272877   6.275   1.975   3.668  0.6137 -0.2862 -0.3877
17129TIP3    H172878   6.278   2.033   3.592 -0.2485 -1.6874 -1.5094
17129TIP3    H272879   6.200   2.006   3.719  0.6963  0.1475 -0.5268
17130TIP3   OH272880   1.215   4.592   3.417 -0.1169 -0.1271  0.2582
17130TIP3    H172881   1.129   4.621   3.448 -0.2210  0.3423 -0.4680
17130TIP3    H272882   1.225   4.504   3.454 -0.6163  0.0788  0.8989
17131TIP3   OH272883   1.094   2.797   4.311 -0.3535 -0.1563 -0.0382
17131TIP3    H172884   1.065   2.811   4.221 -2.2821 -1.4528  0.3450
17131TIP3    H272885   1.014   2.805   4.364  0.4205 -1.2741  1.3469
17132TIP3   OH272886   1.894   4.593  14.111 -0.7129  0.4989 -0.4181
17132TIP3    H172887   1.940   4.603  14.194  0.9060  1.4720 -1.4047
17132TIP3    H272888   1.845   4.511  14.119  1.5656 -0.7859  0.4832
17133TIP3   OH272889   1.380   0.640   5.050  0.3826  0.3523  0.1003
17133TIP3    H172890   1.455   0.698   5.061  0.9299 -0.3000 -0.1826
17133TIP3    H272891   1.415   0.563   5.004 -0.2154 -0.4436  0.9577
17134TIP3   OH272892   1.019   3.600  13.500 -0.0369 -0.5100 -0.2073
17134TIP3    H172893   1.060   3.674  13.546 -1.1126  2.3988 -3.7506
17134TIP3    H272894   1.093   3.554  13.460  0.3996  0.8076 -0.9744
17135TIP3   OH272895   3.023   5.713   4.976  0.1246 -0.1654  0.2446
17135TIP3    H172896   3.057   5.666   5.053  1.9796  0.7502  0.0191
17135TIP3    H272897   2.996   5.644   4.916  0.3060 -0.9135  1.0051
17136TIP3   OH272898   4.176   6.102  13.311 -0.4183 -0.3099  0.1662
17136TIP3    H172899   4.084   6.112  13.288 -0.5702  2.9546  2.0584
17136TIP3    H272900   4.222   6.166  13.256  0.3066  0.6631  1.8871
17137TIP3   OH272901   0.849   3.043  14.878  0.1053  0.4528 -0.5720
17137TIP3    H172902   0.926   3.072  14.927 -0.3162 -1.0363  1.0614
17137TIP3    H272903   0.838   2.951  14.904 -1.8580  0.4694 -1.2543
17138TIP3   OH272904   3.207   0.804  15.921 -0.4863 -0.1825  0.2589
17138TIP3    H172905   3.232   0.848  15.840  1.1612  0.8897  1.3208
17138TIP3    H272906   3.275   0.738  15.934 -0.0402  0.4856  1.4060
17139TIP3   OH272907   1.202   3.837   0.681 -0.1761 -0.3692 -0.1954
17139TIP3    H172908   1.126   3.829   0.740 -2.4382  0.7524 -2.8729
17139TIP3    H272909   1.241   3.922   0.704 -0.3541 -0.4564  0.4506
17140TIP3   OH272910   1.232   5.893   3.334 -0.1975 -1.1200 -0.0088
17140TIP3    H172911   1.141   5.912   3.354  0.5429  0.6479  1.9995
17140TIP3    H272912   1.266   5.975   3.298  0.9571 -1.2687  0.7021
17141TIP3   OH272913   1.401   4.955   2.417  0.5374  0.2222  0.4809
17141TIP3    H172914   1.351   5.022   2.370  0.9732  0.5827  0.5222
17141TIP3    H272915   1.487   4.996   2.432  0.5987 -0.1113  1.0591
17142TIP3   OH272916   0.486   1.203   5.320  0.0738  0.0084 -0.3512
17142TIP3    H172917   0.559   1.142   5.309  0.3991  0.3409 -0.0294
17142TIP3    H272918   0.525   1.280   5.361 -0.6650 -0.2372  0.8148
17143TIP3   OH272919   0.963   0.985   2.112  0.1290 -0.0050 -0.1435
17143TIP3    H172920   1.051   1.009   2.144 -0.1590 -1.5875  1.9074
17143TIP3    H272921   0.977   0.906   2.060 -0.1024 -0.4043  0.3949
17144TIP3   OH272922   0.689   4.125  15.906  0.3150  0.5651 -0.6101
17144TIP3    H172923   0.710   4.081  15.823 -2.6751  0.0550 -1.1842
17144TIP3    H272924   0.696   4.218  15.886 -1.1463  0.4724 -1.7316
17145TIP3   OH272925   2.631   5.613  16.718  0.1254 -0.1293 -0.2066
17145TIP3    H172926   2.593   5.630  16.632 -0.5713 -0.5413  0.0199
17145TIP3    H272927   2.643   5.700  16.756 -3.7668 -0.0790  1.0839
17146TIP3   OH272928   3.863   6.476   2.408 -0.3228 -0.3680  0.1441
17146TIP3    H172929   3.798   6.522   2.462 -0.2969 -1.0371  0.7517
17146TIP3    H272930   3.904   6.545   2.356  0.0181  0.3613  1.3686
17147TIP3   OH272931   1.632   0.160  16.086 -0.0358 -0.0372  0.2550
17147TIP3    H172932   1.589   0.235  16.046  0.6350  0.5638  0.6419
17147TIP3    H272933   1.647   0.099  16.013  1.5618  1.2309 -0.5037
17148TIP3   OH272934   1.164   0.516   5.229 -0.3031  0.3010 -0.0262
17148TIP3    H172935   1.211   0.440   5.263  0.0627  0.8107  0.6458
17148TIP3    H272936   1.217   0.546   5.155 -1.4292 -1.1794 -1.4591
17149TIP3   OH272937   2.800   4.354  15.056  0.2883  0.0965 -0.1769
17149TIP3    H172938   2.799   4.309  15.141 -0.2582 -3.1374 -1.8151
17149TIP3    H272939   2.713   4.394  15.048  0.8166  1.6016  1.3463
17150TIP3   OH272940   6.747   1.332   1.560 -0.0877  0.0683  0.0904
17150TIP3    H172941   6.837   1.366   1.560 -0.7143  1.7892  0.1828
17150TIP3    H272942   6.705   1.376   1.634 -0.9232 -0.9811  0.2610
17151TIP3   OH272943   0.183   0.326   2.373  0.0717  0.3201  0.0145
17151TIP3    H172944   0.160   0.415   2.399  2.8364  0.9561  0.4461
17151TIP3    H272945   0.207   0.333   2.281  3.0808  0.6317  0.7667
17152TIP3   OH272946   3.424   0.884   5.096  0.4069 -0.5965 -0.3598
17152TIP3    H172947   3.414   0.826   5.171  0.8362 -2.6586 -1.8720
17152TIP3    H272948   3.500   0.938   5.117 -0.5637  0.0962  1.4667
17153TIP3   OH272949   3.138   5.969   1.589  0.3685  0.5809  0.5990
17153TIP3    H172950   3.202   5.923   1.535  1.7806  1.3717  1.5637
17153TIP3    H272951   3.118   5.908   1.660 -0.9009 -0.1494 -0.3565
17154TIP3   OH272952   5.037   1.833   0.116 -0.6116  0.5258  0.2912
17154TIP3    H172953   5.047   1.763   0.180  0.1959  0.4399  0.0758
17154TIP3    H272954   4.943   1.835   0.096 -0.6368 -0.4697  0.3132
17155TIP3   OH272955   0.681   5.979   6.621  0.1738  0.6292  0.2646
17155TIP3    H172956   0.603   6.031   6.607  0.3117  1.2320  1.7179
17155TIP3    H272957   0.703   5.991   6.713  2.2679  0.8750 -0.2256
17156TIP3   OH272958   2.463   5.923  12.829 -0.2004 -0.3629 -0.3825
17156TIP3    H172959   2.484   5.891  12.917 -1.6118 -0.1421  0.0476
17156TIP3    H272960   2.422   5.848  12.786 -0.3065 -0.2016 -0.5586
17157TIP3   OH272961   1.510   0.186  16.695 -0.1510 -0.3722 -0.3604
17157TIP3    H172962   1.493   0.129  16.770  0.7364  0.3491  0.4168
17157TIP3    H272963   1.468   0.269  16.719  2.3283  0.6748  0.5267
17158TIP3   OH272964   3.142   3.274  13.535  0.5239  0.5669  0.4319
17158TIP3    H172965   3.086   3.236  13.602 -1.2131 -0.4351 -1.5286
17158TIP3    H272966   3.098   3.355  13.509  0.1287 -0.0245 -0.8308
17159TIP3   OH272967   4.332   3.525   3.823  0.2261  0.8201 -0.3381
17159TIP3    H172968   4.286   3.500   3.904  0.9438  0.5573 -0.0113
17159TIP3    H272969   4.340   3.443   3.774 -1.0521  1.1426 -1.1162
17160TIP3   OH272970   1.064   1.943  12.720  0.3027 -0.0933 -0.1990
17160TIP3    H172971   1.116   1.914  12.795 -1.8291 -0.0053  1.3782
17160TIP3    H272972   1.044   1.862  12.672 -0.4487 -0.4726  0.7452
17161TIP3   OH272973   5.123   6.015   4.734  0.1504 -0.4044  0.6142
17161TIP3    H172974   5.034   6.048   4.743 -0.1385 -1.2483  0.9053
17161TIP3    H272975   5.112   5.925   4.701  0.9311 -0.0236 -0.7581
17162TIP3   OH272976   1.415   3.276   0.480 -0.5253 -0.2511  0.1635
17162TIP3    H172977   1.337   3.331   0.476  0.1564  0.7627  0.5234
17162TIP3    H272978   1.419   3.247   0.571 -0.9565 -1.0054 -0.0569
17163TIP3   OH272979   5.102   6.660  11.122 -0.0547 -0.4041 -0.4849
17163TIP3    H172980   5.171   6.714  11.160  1.3720 -0.5402 -2.7576
17163TIP3    H272981   5.091   6.693  11.033 -0.9568 -2.1634 -1.0666
17164TIP3   OH272982   6.736   1.938   4.470  0.0321 -0.1263  0.3468
17164TIP3    H172983   6.812   1.968   4.421 -0.3065 -0.3569 -0.3296
17164TIP3    H272984   6.759   1.850   4.498 -0.8783 -1.1024 -1.8439
17165TIP3   OH272985   6.057   4.604  13.990 -0.6445 -0.2512  0.1296
17165TIP3    H172986   6.111   4.566  14.059 -2.0328 -0.5125  1.1043
17165TIP3    H272987   5.974   4.624  14.034 -0.1194  3.5478 -0.3970
17166TIP3   OH272988   6.445   6.530  11.418 -0.4646  0.3222 -0.1248
17166TIP3    H172989   6.386   6.474  11.468 -0.0233  0.3155  0.4042
17166TIP3    H272990   6.530   6.520  11.463 -0.0249  0.1743 -0.9868
17167TIP3   OH272991   0.267   5.155   4.758 -0.3156 -0.1013 -0.2247
17167TIP3    H172992   0.207   5.224   4.788  0.2001 -0.4342  1.5980
17167TIP3    H272993   0.349   5.200   4.740 -0.8771  0.2369 -2.0010
17168TIP3   OH272994   1.611   2.123   5.798  0.2578 -0.6506  0.5951
17168TIP3    H172995   1.687   2.107   5.853  2.4450  2.9775 -1.1508
17168TIP3    H272996   1.645   2.115   5.708 -1.5424  0.4175 -0.2063
17169TIP3   OH272997   6.664   1.884  13.308 -0.4045  0.3478 -0.2289
17169TIP3    H172998   6.702   1.972  13.314 -1.0125  0.6867 -1.2235
17169TIP3    H272999   6.572   1.900  13.285 -0.6442 -0.5315  0.1275
17170TIP3   OH273000   6.459   3.100   2.527  0.2268  0.5042 -0.4384
17170TIP3    H173001   6.522   3.055   2.583 -0.5795  0.7573  0.6866
17170TIP3    H273002   6.421   3.030   2.473  0.8831  0.2395 -0.5716
17171TIP3   OH273003   0.993   2.006  16.326  0.0757  0.5098 -0.2304
17171TIP3    H173004   0.924   1.952  16.286  0.3157  0.7201 -0.9215
17171TIP3    H273005   1.042   1.944  16.380 -2.1160  0.7917  2.2118
17172TIP3   OH273006   0.568   4.446  16.918  0.7097 -0.2587 -0.3040
17172TIP3    H173007   0.483   4.491  16.925 -0.1469 -1.4139 -2.6153
17172TIP3    H273008   0.598   4.437  17.008  0.2156  3.5846  0.3289
17173TIP3   OH273009   3.179   3.479  12.194 -0.5645 -0.2530 -0.2229
17173TIP3    H173010   3.156   3.553  12.138 -1.4115  0.2288  0.7428
17173TIP3    H273011   3.153   3.506  12.282  1.3290 -0.7513  0.5212
17174TIP3   OH273012   3.733   3.619   5.834  0.5193 -0.3436  0.2838
17174TIP3    H173013   3.751   3.550   5.897  1.5381 -1.3539 -1.0851
17174TIP3    H273014   3.805   3.614   5.771 -0.9594  0.0153 -1.4992
17175TIP3   OH273015   3.836   0.827  12.071  0.5387  0.1161  0.0743
17175TIP3    H173016   3.922   0.826  12.028  1.2343  1.2397  1.4017
17175TIP3    H273017   3.799   0.741  12.051  2.0631 -0.4740 -0.3215
17176TIP3   OH273018   0.411   5.375   3.114 -0.4636  0.3468  0.5089
17176TIP3    H173019   0.506   5.367   3.108 -0.5363  1.0004 -2.0721
17176TIP3    H273020   0.379   5.285   3.106 -0.0987  0.1550  1.1225
17177TIP3   OH273021   0.927   0.515   0.753  0.1872 -0.5691 -0.2760
17177TIP3    H173022   0.990   0.469   0.697  1.0691 -1.4196  1.3871
17177TIP3    H273023   0.980   0.573   0.807 -0.3907 -1.4916  1.3406
17178TIP3   OH273024   2.511   5.789  12.214  0.4286  0.4826 -0.0859
17178TIP3    H173025   2.470   5.845  12.280 -1.8005 -0.1594 -0.9016
17178TIP3    H273026   2.602   5.781  12.243  0.2830  2.8593  1.1245
17179TIP3   OH273027   1.089   1.315   6.873  0.4238 -0.2364  0.4360
17179TIP3    H173028   1.014   1.331   6.931  0.4802  0.8053  0.2405
17179TIP3    H273029   1.052   1.267   6.799  0.2387 -1.0415  1.0385
17180TIP3   OH273030   5.569   3.368  16.699 -0.5655 -0.8095 -0.7609
17180TIP3    H173031   5.574   3.446  16.755 -2.8615 -1.2127  0.0566
17180TIP3    H273032   5.499   3.388  16.637 -1.8427 -2.5560  0.0626
17181TIP3   OH273033   4.062   3.184   1.213  0.0845  0.0642  0.6275
17181TIP3    H173034   4.072   3.189   1.309  2.9157  1.3523  0.3132
17181TIP3    H273035   4.120   3.113   1.187 -0.7995 -0.3842 -0.1565
17182TIP3   OH273036   4.019   4.891   2.319  0.2018  0.1847  0.7963
17182TIP3    H173037   3.934   4.918   2.286  0.1847 -0.0880  0.6116
17182TIP3    H273038   4.051   4.966   2.369 -0.5248 -0.0340  1.5936
17183TIP3   OH273039   2.086   4.446  15.008 -1.0110  0.2436  0.0207
17183TIP3    H173040   2.094   4.475  14.917 -0.3066  0.6031  0.1991
17183TIP3    H273041   2.174   4.416  15.031 -1.8633 -2.7702 -0.4091
17184TIP3   OH273042   0.820   3.746   5.019 -0.3284  0.2209 -0.3438
17184TIP3    H173043   0.797   3.813   4.954  0.4289 -1.0239 -1.9413
17184TIP3    H273044   0.839   3.668   4.967 -2.7199 -1.7207  1.5721
17185TIP3   OH273045   2.310   6.636   2.626  0.8943  0.2936 -0.3571
17185TIP3    H173046   2.227   6.587   2.633  1.1353  0.0645  1.1173
17185TIP3    H273047   2.366   6.579   2.574  0.5208 -0.1247 -0.3132
17186TIP3   OH273048   1.113   4.715   2.634 -0.1314  0.3448  0.7583
17186TIP3    H173049   1.033   4.755   2.598  0.1444  0.4169  0.2211
17186TIP3    H273050   1.089   4.624   2.649 -0.2446  0.3108  0.3754
17187TIP3   OH273051   6.453   0.317  12.713 -0.2935  0.3566 -0.0390
17187TIP3    H173052   6.373   0.264  12.714  0.0319 -0.2023 -1.7530
17187TIP3    H273053   6.524   0.253  12.704  0.1687  1.0027 -1.1360
17188TIP3   OH273054   0.908   3.968  16.888  0.3549  0.2934  0.2537
17188TIP3    H173055   0.905   4.009  16.801  0.1359  0.9797  0.5825
17188TIP3    H273056   1.000   3.945  16.900  0.5938  1.2477  0.3170
17189TIP3   OH273057   2.706   2.462  11.334  0.2966 -0.1303 -0.1140
17189TIP3    H173058   2.687   2.398  11.265 -1.4771 -1.2340  1.3268
17189TIP3    H273059   2.675   2.545  11.299  1.9711 -0.1761 -1.7383
17190TIP3   OH273060   6.030   5.750   3.873  0.6125 -0.2067 -0.4847
17190TIP3    H173061   5.969   5.823   3.885  1.2645  0.3635 -0.5954
17190TIP3    H273062   6.116   5.791   3.873  0.9969 -1.0068 -0.3258
17191TIP3   OH273063   1.874   5.020  16.410  0.0536 -0.0086  0.3612
17191TIP3    H173064   1.876   5.106  16.369 -1.6313  0.0603  0.4021
17191TIP3    H273065   1.890   4.958  16.338 -0.0397  0.2574  0.1128
17192TIP3   OH273066   6.463   0.404  11.760  0.2774  0.3449 -0.3749
17192TIP3    H173067   6.519   0.470  11.719  1.0127 -0.1320 -0.1394
17192TIP3    H273068   6.518   0.326  11.767 -0.3314 -0.0493  0.0914
17193TIP3   OH273069   6.289   0.673  15.935  0.7152  0.3170 -0.2810
17193TIP3    H173070   6.269   0.601  15.875  1.1473  1.2026 -1.5096
17193TIP3    H273071   6.365   0.716  15.897  2.2683 -0.3160  1.9946
17194TIP3   OH273072   4.438   3.818   3.649 -0.9778  0.3473 -0.1109
17194TIP3    H173073   4.482   3.794   3.567 -1.1152 -0.8913  0.1780
17194TIP3    H273074   4.508   3.826   3.713 -1.0347 -0.2021  0.0155
17195TIP3   OH273075   0.589   4.583   3.260 -0.0229 -0.4642 -0.7636
17195TIP3    H173076   0.681   4.595   3.285 -0.2532 -0.1708 -0.0271
17195TIP3    H273077   0.581   4.489   3.244 -0.0681 -0.8210  1.1887
17196TIP3   OH273078   3.989   3.186   5.435 -0.1664 -0.1515  0.0615
17196TIP3    H173079   3.910   3.207   5.386 -0.9269 -1.7110  0.5763
17196TIP3    H273080   4.023   3.107   5.392  0.6395  0.0166  0.3767
17197TIP3   OH273081   2.322   0.340  13.716 -0.0852  0.4416  0.1804
17197TIP3    H173082   2.276   0.266  13.677  1.2783  0.6999 -2.0122
17197TIP3    H273083   2.252   0.395  13.752 -1.1259 -1.6834  1.4403
17198TIP3   OH273084   4.522   0.677   0.635 -0.0511  0.1467 -0.0123
17198TIP3    H173085   4.464   0.754   0.643  0.4071  0.3625  1.3534
17198TIP3    H273086   4.552   0.679   0.544 -0.0009  1.6248  0.0271
17199TIP3   OH273087   6.249   6.619  16.072 -0.0178  0.1713  0.0146
17199TIP3    H173088   6.198   6.579  16.142 -0.6281  0.4025 -0.2950
17199TIP3    H273089   6.334   6.640  16.113 -0.0609 -0.4990  0.4412
17200TIP3   OH273090   2.362   6.132   0.885 -0.0270  0.3145 -0.3423
17200TIP3    H173091   2.388   6.107   0.797 -1.3083  0.0324 -0.6396
17200TIP3    H273092   2.444   6.129   0.935  0.4160 -1.2359 -1.1143
17201TIP3   OH273093   3.136   1.097  15.083  0.5908  0.0205  0.0111
17201TIP3    H173094   3.091   1.012  15.075 -0.2837  0.5819 -1.3635
17201TIP3    H273095   3.211   1.079  15.139 -0.3148 -1.3694  0.8235
17202TIP3   OH273096   2.742   4.078   5.694  0.9228  0.0183  0.2157
17202TIP3    H173097   2.690   4.033   5.627  1.4610 -1.6405  0.8779
17202TIP3    H273098   2.688   4.075   5.773  2.0850 -1.9792  0.9886
17203TIP3   OH273099   0.700   2.231  16.132  0.3783 -0.2348  0.0944
17203TIP3    H173100   0.752   2.271  16.201 -0.4321  0.5402  0.2604
17203TIP3    H273101   0.610   2.255  16.152  0.1675  0.3770 -1.4690
17204TIP3   OH273102   0.246   5.821  16.264  0.0286  0.6028  0.4920
17204TIP3    H173103   0.247   5.899  16.318 -0.1657  1.7650 -1.1410
17204TIP3    H273104   0.311   5.838  16.196  1.5810 -1.5861  1.3648
17205TIP3   OH273105   6.734   2.727  12.042  0.1575 -0.5306 -0.0719
17205TIP3    H173106   6.793   2.755  12.111 -0.2079  1.3691 -0.4843
17205TIP3    H273107   6.670   2.671  12.086  0.1199  0.3909  1.0827
17206TIP3   OH273108   2.520   1.666  12.776 -0.5021  0.4070  0.3689
17206TIP3    H173109   2.521   1.704  12.864  1.5901  0.0854  0.5077
17206TIP3    H273110   2.554   1.577  12.787  0.3064  0.5472 -0.8262
17207TIP3   OH273111   3.595   3.044   4.241  0.1673  0.0089 -0.5627
17207TIP3    H173112   3.503   3.071   4.233 -0.6224 -2.1679  0.6800
17207TIP3    H273113   3.600   2.962   4.193  0.7089 -1.4819  1.9580
17208TIP3   OH273114   3.202   1.031   0.024  0.3769 -0.6559  0.0509
17208TIP3    H173115   3.219   0.972   0.098 -2.7654  0.5228  1.8132
17208TIP3    H273116   3.131   0.988  -0.025 -1.4896  1.2451  0.9807
17209TIP3   OH273117   1.772   5.685  14.097 -0.6285 -0.6696 -0.2310
17209TIP3    H173118   1.821   5.691  14.014 -0.3422  0.4558  0.0186
17209TIP3    H273119   1.708   5.616  14.081  0.0086 -1.0800 -1.0958
17210TIP3   OH273120   1.838   3.782  16.389 -1.0517 -0.0135  0.0626
17210TIP3    H173121   1.817   3.873  16.369  1.1008  0.3252 -0.7741
17210TIP3    H273122   1.926   3.769  16.354 -1.3034 -2.4041  0.2040
17211TIP3   OH273123   0.068   4.866   5.659  0.3451 -0.4474  0.3432
17211TIP3    H173124   0.066   4.841   5.566  0.1548  1.3940 -0.1659
17211TIP3    H273125   0.161   4.875   5.678  0.4515 -2.1530  0.7186
17212TIP3   OH273126   5.518   4.781   4.968  0.1854 -0.3183  0.2871
17212TIP3    H173127   5.609   4.812   4.965  0.5863 -1.5199 -0.6574
17212TIP3    H273128   5.478   4.814   4.888  0.0493 -0.5543  0.2572
17213TIP3   OH273129   3.343   0.464   3.917 -0.2954  0.3481 -0.3784
17213TIP3    H173130   3.267   0.417   3.951  0.8814 -1.0379  0.4170
17213TIP3    H273131   3.338   0.551   3.956 -1.7292  0.4255 -0.7240
17214TIP3   OH273132   0.651   4.791  12.311  0.6414  0.1645 -0.4421
17214TIP3    H173133   0.669   4.726  12.379 -0.0070 -0.2583 -0.6734
17214TIP3    H273134   0.724   4.782  12.250  0.4445 -0.5009 -0.5883
17215TIP3   OH273135   4.647   2.025   6.548  0.6280  0.2172 -0.3905
17215TIP3    H173136   4.623   2.063   6.632 -0.7299  0.4153 -0.8540
17215TIP3    H273137   4.575   2.048   6.490  0.9289 -1.0380 -1.2817
17216TIP3   OH273138   2.188   3.340  12.787 -0.0285  0.1923  0.5699
17216TIP3    H173139   2.269   3.381  12.816  0.0400  0.7276 -0.3583
17216TIP3    H273140   2.187   3.354  12.692 -0.2856 -1.4519  0.3246
17217TIP3   OH273141   6.214   0.873   6.766  0.6403  0.4610 -0.1145
17217TIP3    H173142   6.134   0.901   6.810 -0.4546 -0.6123 -1.3440
17217TIP3    H273143   6.277   0.942   6.784 -0.9410  1.9640 -0.1569
17218TIP3   OH273144   4.873   0.385  14.998 -0.0646  0.0010 -0.7801
17218TIP3    H173145   4.830   0.456  15.045  0.1995  0.4233 -1.1660
17218TIP3    H273146   4.959   0.420  14.976  0.5069 -0.8594  0.0498
17219TIP3   OH273147   2.187   3.444  13.436  0.1942 -0.0318 -0.5477
17219TIP3    H173148   2.107   3.474  13.395  0.4873 -1.3688 -2.1444
17219TIP3    H273149   2.166   3.441  13.530 -1.5223 -0.0700 -0.9189
17220TIP3   OH273150   4.270   1.266   2.348  0.0851 -0.2263  0.0471
17220TIP3    H173151   4.278   1.194   2.286  1.7859 -1.0047  1.1479
17220TIP3    H273152   4.278   1.345   2.294 -2.3712 -0.7985 -1.2425
17221TIP3   OH273153   4.361   6.471   1.685 -0.1129  0.1715  0.5214
17221TIP3    H173154   4.366   6.375   1.679 -2.3381  0.0080  0.8882
17221TIP3    H273155   4.370   6.501   1.595 -3.6738 -0.6468 -0.1751
17222TIP3   OH273156   4.604   4.280   0.816  0.3409  0.3636 -0.4255
17222TIP3    H173157   4.568   4.369   0.825  0.7853  0.6470 -1.4005
17222TIP3    H273158   4.625   4.272   0.723  1.4585 -0.3191 -0.1212
17223TIP3   OH273159   6.623   3.691   2.213 -0.3356  0.1541  0.6955
17223TIP3    H173160   6.589   3.776   2.185 -0.7046 -0.9932 -2.5439
17223TIP3    H273161   6.592   3.629   2.147  0.5301 -2.4199  2.5891
17224TIP3   OH273162   0.492   4.965   3.409  0.2307  0.0777 -0.0733
17224TIP3    H173163   0.568   4.976   3.352  0.4755  0.4768  0.3290
17224TIP3    H273164   0.464   4.875   3.393 -0.8356  0.7572 -2.2124
17225TIP3   OH273165   3.349   2.470  16.111 -0.2829  0.6838  0.3057
17225TIP3    H173166   3.405   2.453  16.187 -1.4307 -2.1827  0.5588
17225TIP3    H273167   3.262   2.441  16.138 -0.8198  0.1204 -1.9337
17226TIP3   OH273168   0.413   4.643  13.989  0.0672  0.0182 -0.1061
17226TIP3    H173169   0.359   4.581  14.037  1.8179 -2.2736 -0.9915
17226TIP3    H273170   0.473   4.588  13.938  0.1936  2.4031 -2.6575
17227TIP3   OH273171   2.510   4.063   4.135  0.0944  0.2025  0.0107
17227TIP3    H173172   2.423   4.045   4.100  1.3602 -2.8168 -1.7083
17227TIP3    H273173   2.509   4.023   4.223 -0.3262  0.4307  0.1128
17228TIP3   OH273174   3.062   3.870   4.918  0.3409 -0.0282  0.6221
17228TIP3    H173175   3.098   3.868   4.829  0.8522 -0.6209  0.8328
17228TIP3    H273176   2.978   3.914   4.909  1.0360  1.2122  0.0786
17229TIP3   OH273177   2.738   0.232  15.618  0.6086  0.2516  0.5723
17229TIP3    H173178   2.670   0.298  15.631  1.2705  0.8574  0.9811
17229TIP3    H273179   2.817   0.271  15.655  0.7622 -1.2320  1.8487
17230TIP3   OH273180   4.202   1.941  14.084  0.4371 -0.2808  0.3810
17230TIP3    H173181   4.269   1.943  14.016  0.2283 -2.0857  0.0806
17230TIP3    H273182   4.250   1.930  14.166  0.5024 -3.8052 -0.0209
17231TIP3   OH273183   0.357   3.423   5.500 -0.0658  0.1427  0.4211
17231TIP3    H173184   0.448   3.392   5.496  0.0249  0.1513  2.1052
17231TIP3    H273185   0.334   3.417   5.592 -1.4718  1.0412  0.1378
17232TIP3   OH273186   3.532   2.788  16.867 -0.3705 -0.1477 -0.2210
17232TIP3    H173187   3.453   2.734  16.862  0.7072 -1.8812  0.9116
17232TIP3    H273188   3.500   2.877  16.872 -2.3017 -0.8961  1.2087
17233TIP3   OH273189   5.985   1.204  15.719 -0.4698 -0.2759 -0.2019
17233TIP3    H173190   5.908   1.239  15.763 -1.0835 -1.5316 -0.2723
17233TIP3    H273191   5.980   1.238  15.630 -0.4634  0.3760  0.0463
17234TIP3   OH273192   4.112   5.797   1.288 -0.0066  0.0439 -0.0253
17234TIP3    H173193   4.196   5.806   1.244  1.1056 -0.2634  2.0110
17234TIP3    H273194   4.090   5.704   1.278 -0.7116  0.3367 -1.5509
17235TIP3   OH273195   2.317   0.265   6.147  0.2097 -0.1759 -0.0666
17235TIP3    H173196   2.231   0.239   6.181  0.2437  0.6701  0.6763
17235TIP3    H273197   2.378   0.206   6.191  0.1246  0.0081  0.2945
17236TIP3   OH273198   2.051   6.182  16.547 -0.0407  0.2369  0.2686
17236TIP3    H173199   2.035   6.089  16.562  0.1016  0.2902  0.7529
17236TIP3    H273200   2.114   6.207  16.614 -2.0319  1.2821  1.8064
17237TIP3   OH273201   5.711   2.458  13.720  0.2702  0.1731 -0.0881
17237TIP3    H173202   5.714   2.551  13.744 -0.0187  0.7443 -2.1322
17237TIP3    H273203   5.769   2.451  13.644 -1.0942 -0.9492 -1.0547
17238TIP3   OH273204   2.332   1.172  16.537  0.2162  0.5673 -0.4874
17238TIP3    H173205   2.252   1.224  16.544 -0.2487 -0.1076 -0.8435
17238TIP3    H273206   2.397   1.222  16.586 -0.3150  1.3294 -0.5535
17239TIP3   OH273207   1.674   3.779  15.694 -0.3483  0.2549 -0.5888
17239TIP3    H173208   1.749   3.834  15.672 -0.2817 -0.4031 -2.0836
17239TIP3    H273209   1.598   3.835  15.677 -0.2452  0.3161 -0.8504
17240TIP3   OH273210   5.923   6.084  14.675 -0.1934  0.3233 -0.1530
17240TIP3    H173211   5.915   6.093  14.770  1.9706  0.7167  0.0094
17240TIP3    H273212   5.842   6.039  14.649 -0.3146 -0.7758  1.9938
17241TIP3   OH273213   5.039   1.666  15.475  0.3193 -0.3975 -0.0737
17241TIP3    H173214   4.954   1.665  15.519 -0.6046  0.3193 -1.8150
17241TIP3    H273215   5.061   1.759  15.467  1.8040 -0.5828  1.3057
17242TIP3   OH273216   6.155   3.449   3.196  0.0755 -0.0470  0.1554
17242TIP3    H173217   6.085   3.470   3.258  0.0554 -0.4370  0.2648
17242TIP3    H273218   6.233   3.489   3.233  0.1281 -0.5544  0.6025
17243TIP3   OH273219   3.424   3.602   3.247 -0.1558 -0.1693 -0.2328
17243TIP3    H173220   3.396   3.649   3.326 -1.9111  1.1033 -1.5729
17243TIP3    H273221   3.493   3.657   3.210  0.1409 -0.3760  0.0151
17244TIP3   OH273222   2.488   0.346  12.976 -0.1951 -0.3084  0.3442
17244TIP3    H173223   2.497   0.272  13.037 -0.5104  1.0546  2.0669
17244TIP3    H273224   2.452   0.417  13.029  1.7178  1.6287 -0.8814
17245TIP3   OH273225   1.830   4.052   5.850 -0.1776  0.0860  0.0357
17245TIP3    H173226   1.892   4.116   5.887 -0.3134  1.1991 -1.6176
17245TIP3    H273227   1.865   3.967   5.878  1.1104  0.7791  0.6045
17246TIP3   OH273228   0.629   0.091  12.737  0.1835 -0.1961 -0.4969
17246TIP3    H173229   0.699   0.145  12.699 -0.4407 -0.4295 -2.0040
17246TIP3    H273230   0.674   0.013  12.769  0.7634  0.1365 -0.4886
17247TIP3   OH273231   1.273   6.657  13.400 -0.6154 -0.6095  0.5758
17247TIP3    H173232   1.252   6.570  13.366 -0.4084 -0.0713 -0.9997
17247TIP3    H273233   1.309   6.641  13.487  0.1070 -2.1561  0.0134
17248TIP3   OH273234   4.394   1.235   4.224 -0.3670  0.7968  0.1318
17248TIP3    H173235   4.401   1.249   4.130 -0.5830 -0.5783 -0.1085
17248TIP3    H273236   4.361   1.145   4.232 -0.6359  1.0023  1.5116
17249TIP3   OH273237   3.598   6.529  15.094 -0.0818  0.1479 -0.3248
17249TIP3    H173238   3.640   6.516  15.179 -0.5877  1.5951  0.1675
17249TIP3    H273239   3.504   6.524  15.112 -0.1710 -0.4466 -0.9546
17250TIP3   OH273240   1.030   1.743  14.691  0.1881 -0.1120  0.0561
17250TIP3    H173241   1.051   1.836  14.684  1.5195 -0.4573 -0.7478
17250TIP3    H273242   1.037   1.723  14.784  2.5780 -0.0073 -0.0825
17251TIP3   OH273243   1.454   2.484   0.579  0.0012 -0.1678  0.3906
17251TIP3    H173244   1.361   2.489   0.603 -0.2025 -0.5577 -0.2886
17251TIP3    H273245   1.460   2.403   0.527  0.9082 -0.6564  1.2496
17252TIP3   OH273246   4.447   0.471  15.336 -0.0578  0.1757  0.4554
17252TIP3    H173247   4.353   0.487  15.322  0.0966  0.5235 -0.2125
17252TIP3    H273248   4.473   0.417  15.261  0.2786  0.0961  0.6315
17253TIP3   OH273249   2.047   2.947  15.889  0.1406  0.0068 -0.3560
17253TIP3    H173250   2.070   2.954  15.981 -1.7267 -1.6064  0.2627
17253TIP3    H273251   2.053   3.037  15.856  2.0172  0.4042  1.0079
17254TIP3   OH273252   4.337   0.514  12.242 -0.1266 -0.3722  0.0596
17254TIP3    H173253   4.364   0.423  12.253  0.2101 -0.2989 -0.1675
17254TIP3    H273254   4.300   0.517  12.153 -1.3137 -0.5800  0.5300
17255TIP3   OH273255   1.203   0.362  13.663  0.3746  0.3060 -0.4251
17255TIP3    H173256   1.172   0.452  13.676  0.7389  0.4323 -0.4041
17255TIP3    H273257   1.297   0.372  13.646  0.6976 -0.1951  1.0434
17256TIP3   OH273258   6.483   1.041  13.521 -0.0467 -0.1261 -0.0844
17256TIP3    H173259   6.576   1.019  13.527  0.1215  0.4210 -0.6516
17256TIP3    H273260   6.440   0.979  13.579  0.8650  0.7717  1.5941
17257TIP3   OH273261   5.532   3.884   6.411  0.4565  0.0461 -0.2916
17257TIP3    H173262   5.560   3.943   6.340  0.4785 -0.4531 -0.6953
17257TIP3    H273263   5.609   3.830   6.428  0.2106 -0.3316 -0.3891
17258TIP3   OH273264   1.631   2.621  11.417 -0.0635  0.4655  0.1223
17258TIP3    H173265   1.632   2.710  11.451  0.1767  0.2379  0.7332
17258TIP3    H273266   1.698   2.575  11.468 -0.7318 -0.2603  0.3607
17259TIP3   OH273267   1.920   1.274  16.240  0.4090  0.1788  0.9952
17259TIP3    H173268   1.886   1.196  16.283  1.5868 -1.3461 -0.7420
17259TIP3    H273269   1.899   1.346  16.299 -1.9300 -1.2754  1.9639
17260TIP3   OH273270   1.721   0.770  16.668 -0.9229 -0.4527 -0.0369
17260TIP3    H173271   1.781   0.698  16.689 -2.8667 -1.8456  0.9436
17260TIP3    H273272   1.771   0.849  16.688  0.9635 -1.5358 -0.3097
17261TIP3   OH273273   3.027   4.092  15.257 -0.6455  0.2228  0.6788
17261TIP3    H173274   3.042   4.138  15.339 -1.4926  0.8300  0.5016
17261TIP3    H273275   2.936   4.063  15.263 -0.4264 -0.5465  0.3523
17262TIP3   OH273276   1.612   4.824   1.684 -0.5385 -0.0140  0.8007
17262TIP3    H173277   1.628   4.817   1.778 -1.5553 -0.0952  0.9766
17262TIP3    H273278   1.517   4.838   1.677 -0.4585  0.0666 -0.2051
17263TIP3   OH273279   5.203   4.535  15.916  0.3266  0.1314  0.4231
17263TIP3    H173280   5.202   4.480  15.995 -1.1439 -1.6693 -0.8269
17263TIP3    H273281   5.140   4.604  15.935 -1.6441 -1.5091  0.0145
17264TIP3   OH273282   3.516   0.964   2.996 -0.2506 -0.4915 -0.1544
17264TIP3    H173283   3.575   1.029   3.034  1.2203 -2.3959  0.8530
17264TIP3    H273284   3.430   0.989   3.030  0.4471  0.3029  1.0715
17265TIP3   OH273285   6.473   4.150   6.565  0.1220  0.3425 -0.5211
17265TIP3    H173286   6.393   4.103   6.542  0.6629  0.0888 -1.9023
17265TIP3    H273287   6.452   4.193   6.648 -0.9126 -1.0178 -0.0649
17266TIP3   OH273288   6.631   5.398  12.422 -0.2568 -0.1811 -0.4480
17266TIP3    H173289   6.654   5.411  12.330 -0.0407  0.0759 -0.3564
17266TIP3    H273290   6.644   5.304  12.437 -1.4369 -0.4439 -0.9971
17267TIP3   OH273291   2.761   0.628   6.579  0.0132  0.5187  0.2733
17267TIP3    H173292   2.811   0.552   6.608 -2.0202 -0.4568  1.2953
17267TIP3    H273293   2.705   0.595   6.509 -2.2648  0.6082  2.0080
17268TIP3   OH273294   0.635   5.332  13.124 -0.1865 -0.1003  0.1610
17268TIP3    H173295   0.565   5.325  13.189 -1.0397  0.2384 -0.7170
17268TIP3    H273296   0.669   5.420  13.136 -0.8333  0.2213 -0.3419
17269TIP3   OH273297   2.190   0.734  11.669  0.5287 -0.0987  0.2837
17269TIP3    H173298   2.112   0.716  11.617 -0.2096 -1.8226  1.9134
17269TIP3    H273299   2.235   0.803  11.622 -1.9305  0.8555 -0.7465
17270TIP3   OH273300   1.201   6.057   5.691  0.1277  0.0576 -0.6676
17270TIP3    H173301   1.187   6.012   5.774  0.3975  0.4939 -0.3813
17270TIP3    H273302   1.143   6.013   5.629  1.8844 -1.9934 -0.8718
17271TIP3   OH273303   1.089   3.778   5.910  0.1942  0.3382  0.6030
17271TIP3    H173304   1.125   3.846   5.852  0.0780 -0.3111 -0.2441
17271TIP3    H273305   1.162   3.718   5.923 -0.6292 -1.1627 -1.3879
17272TIP3   OH273306   1.355   2.885  10.894 -0.1814  0.5132 -0.1204
17272TIP3    H173307   1.289   2.819  10.917  0.1813  0.7236  1.5665
17272TIP3    H273308   1.306   2.952  10.847 -1.1005  0.4943  0.8042
17273TIP3   OH273309   4.714   5.988   1.571 -0.3171 -0.4208 -0.1342
17273TIP3    H173310   4.648   5.919   1.570  0.2755 -0.9963  0.2805
17273TIP3    H273311   4.784   5.954   1.627 -0.1716  0.6527  0.3366
17274TIP3   OH273312   4.582   1.414  11.641  0.2950 -0.0601  0.1251
17274TIP3    H173313   4.591   1.334  11.590 -0.5495 -1.0695  1.5153
17274TIP3    H273314   4.559   1.384  11.729  0.6754  1.6800  0.8453
17275TIP3   OH273315   2.996   3.467  10.581 -0.2884 -0.3325  0.8578
17275TIP3    H173316   3.042   3.523  10.643  0.8135 -0.9548  0.6043
17275TIP3    H273317   2.903   3.479  10.603 -0.1949  2.7826 -0.1855
17276TIP3   OH273318   5.252   5.016  12.390  0.6565  0.1105 -1.0145
17276TIP3    H173319   5.335   5.029  12.345  1.1901  0.1800 -0.0305
17276TIP3    H273320   5.267   4.941  12.447  0.9520  1.8274  1.2455
17277TIP3   OH273321   5.880   1.643  17.291  0.4058 -0.3764 -0.4777
17277TIP3    H173322   5.926   1.598  17.362 -0.4376 -1.0236 -0.3317
17277TIP3    H273323   5.920   1.730  17.289  2.4108 -1.2801 -1.1085
17278TIP3   OH273324   0.802   6.661   0.851 -0.3094 -0.5846  0.3642
17278TIP3    H173325   0.862   6.612   0.907 -1.3855  0.3473  2.4148
17278TIP3    H273326   0.806   6.751   0.884 -2.8162 -0.5070  0.5830
17279TIP3   OH273327   6.541   3.844   1.214 -0.8418 -0.4474  0.2194
17279TIP3    H173328   6.508   3.934   1.223 -1.9879 -1.0445  2.2964
17279TIP3    H273329   6.636   3.855   1.211 -0.9781  0.8777  0.1204
17280TIP3   OH273330   5.378   2.720   1.334 -0.8171 -0.6002 -0.1441
17280TIP3    H173331   5.453   2.725   1.275 -0.0916  1.5357  0.9055
17280TIP3    H273332   5.410   2.754   1.418 -3.1739  1.2249  0.0866
17281TIP3   OH273333   2.823   1.212   1.990  0.0660  0.1605  0.0418
17281TIP3    H173334   2.902   1.186   2.038  2.1478  3.8353 -1.2031
17281TIP3    H273335   2.760   1.236   2.058  0.9918 -0.1256  1.0048
17282TIP3   OH273336   5.136   6.108  15.676  0.0061 -0.1601 -0.1887
17282TIP3    H173337   5.227   6.133  15.662  0.2084  0.4842  2.0697
17282TIP3    H273338   5.110   6.064  15.596  1.9086  0.8251 -1.3694
17283TIP3   OH273339   0.924   1.931  16.713 -0.4348  0.0790 -0.2517
17283TIP3    H173340   0.979   1.983  16.772  1.4510 -0.0247 -1.8843
17283TIP3    H273341   0.853   1.990  16.689  0.8766  1.4167 -0.8950
17284TIP3   OH273342   4.550   3.138  16.344  0.4616  0.1282 -0.3585
17284TIP3    H173343   4.466   3.133  16.389  1.9079  1.9639  2.6848
17284TIP3    H273344   4.538   3.207  16.279 -0.2626  0.7446  0.4157
17285TIP3   OH273345   0.990   1.219   3.863 -0.5138 -0.0348  0.1569
17285TIP3    H173346   1.057   1.158   3.893 -0.4196 -0.4465 -0.9026
17285TIP3    H273347   0.966   1.189   3.775 -0.4027  1.4910 -0.4120
17286TIP3   OH273348   6.367   5.454   5.030  0.0984 -0.1644 -0.0552
17286TIP3    H173349   6.393   5.375   5.077 -0.3495 -0.8583 -0.9560
17286TIP3    H273350   6.325   5.422   4.950  1.0576  0.9986 -1.0522
17287TIP3   OH273351   6.116   0.025  12.149  0.5434 -0.2594 -0.0888
17287TIP3    H173352   6.084  -0.033  12.218 -0.8567  2.2029  1.4132
17287TIP3    H273353   6.044   0.030  12.087  1.0623 -0.9327 -0.7510
17288TIP3   OH273354   2.707   0.905   4.742 -0.8233  0.2971 -0.8854
17288TIP3    H173355   2.632   0.846   4.751 -0.8360  0.5077  0.6171
17288TIP3    H273356   2.759   0.889   4.821  0.4387  0.5434 -1.6619
17289TIP3   OH273357   2.686   1.054   5.171 -0.5915  0.2519 -0.1607
17289TIP3    H173358   2.747   1.119   5.136  0.0704 -0.1097  0.3127
17289TIP3    H273359   2.671   1.082   5.262 -0.0067 -0.4750  0.1605
17290TIP3   OH273360   2.114   2.345  16.039 -0.6558  0.0939  0.0266
17290TIP3    H173361   2.180   2.352  16.108 -0.3270  1.5653 -0.4179
17290TIP3    H273362   2.046   2.289  16.076 -0.6270  1.1040  1.6691
17291TIP3   OH273363   1.305   3.781  15.297  0.2113 -0.6100  0.0624
17291TIP3    H173364   1.266   3.737  15.373  2.0217 -0.4558  1.1143
17291TIP3    H273365   1.230   3.821  15.252 -0.9967 -1.4364  1.2722
17292TIP3   OH273366   4.015   0.714  13.110  0.6228  0.1017  0.4169
17292TIP3    H173367   4.095   0.755  13.077 -0.4931  0.0147 -2.5433
17292TIP3    H273368   3.944   0.768  13.075 -0.6730 -0.9897  1.3011
17293TIP3   OH273369   4.785   0.868  12.729  0.1349 -0.3129 -0.4874
17293TIP3    H173370   4.876   0.881  12.753 -0.7187  0.4424  2.4931
17293TIP3    H273371   4.773   0.924  12.652  2.1227 -0.3138 -0.8190
17294TIP3   OH273372   0.212   0.679  11.590 -0.1936  0.0021 -0.3033
17294TIP3    H173373   0.277   0.731  11.542  0.7665  0.0369  1.0123
17294TIP3    H273374   0.204   0.598  11.539  1.2382 -0.2036 -0.2202
17295TIP3   OH273375   5.287   1.326   3.783  0.5657  0.0837 -0.0971
17295TIP3    H173376   5.288   1.330   3.879  1.0220  0.0930 -0.1043
17295TIP3    H273377   5.227   1.254   3.763 -1.4112  1.5925  0.1486
17296TIP3   OH273378   3.900   4.336   5.184  0.7761  0.1588  0.0474
17296TIP3    H173379   3.902   4.402   5.114  1.1417  0.4359  0.3148
17296TIP3    H273380   3.963   4.269   5.156  0.7816  0.1751  0.0209
17297TIP3   OH273381   4.655   2.516  14.894 -1.0261  0.4702  1.0360
17297TIP3    H173382   4.705   2.543  14.817 -1.3815  1.2197  1.0651
17297TIP3    H273383   4.563   2.533  14.871 -1.2811 -1.0064  0.9380
17298TIP3   OH273384   1.848   5.356   6.273 -0.9844 -0.2757 -0.1871
17298TIP3    H173385   1.926   5.303   6.259 -1.0843 -0.9758  1.7343
17298TIP3    H273386   1.881   5.444   6.288 -0.7040 -0.1448 -1.5415
17299TIP3   OH273387   2.658   0.277   0.284  0.0734  0.0859  0.2924
17299TIP3    H173388   2.729   0.212   0.276  0.2378  0.4055 -0.8647
17299TIP3    H273389   2.678   0.343   0.218 -0.8133  0.6592  0.5877
17300TIP3   OH273390   3.918   2.912  17.020 -0.0482  0.2114 -0.1875
17300TIP3    H173391   3.876   2.991  17.054 -1.2807  0.1394 -1.4858
17300TIP3    H273392   3.850   2.844  17.025  0.1096 -0.0806 -1.6250
17301TIP3   OH273393   3.294   5.257  12.746  0.5214  0.8331 -0.3642
17301TIP3    H173394   3.232   5.190  12.774  0.3327  1.1168 -0.1039
17301TIP3    H273395   3.380   5.217  12.760  0.3886 -0.0391 -1.9227
17302TIP3   OH273396   5.415   6.216  14.452  0.1381  0.0131  0.2313
17302TIP3    H173397   5.427   6.180  14.540  0.5425 -0.5992 -0.0737
17302TIP3    H273398   5.485   6.280  14.443 -0.4234  0.6915  0.6759
17303TIP3   OH273399   4.005   5.688   6.248 -0.5855 -0.2730  0.1846
17303TIP3    H173400   3.963   5.621   6.301 -0.1550 -1.0180 -0.4178
17303TIP3    H273401   4.040   5.750   6.312 -0.1590 -1.1086  0.7703
17304TIP3   OH273402   6.549   3.086  13.438  0.2263  0.6601 -0.0355
17304TIP3    H173403   6.567   3.005  13.392 -0.5272  1.1001 -1.1328
17304TIP3    H273404   6.558   3.064  13.531  0.5614 -0.5306 -0.3482
17305TIP3   OH273405   0.780   4.482   2.102  0.1524 -0.2360  0.1822
17305TIP3    H173406   0.743   4.455   2.018 -2.6148  2.7941  0.3092
17305TIP3    H273407   0.704   4.502   2.156  1.9189  2.7943  1.6863
17306TIP3   OH273408   6.447   5.763  12.165 -0.1051 -0.1234 -0.2724
17306TIP3    H173409   6.379   5.824  12.193  0.5570 -0.4243  2.0605
17306TIP3    H273410   6.436   5.687  12.223  0.8017 -1.0915 -1.3616
17307TIP3   OH273411   1.693   5.309   0.309  0.1857 -0.0021  0.5339
17307TIP3    H173412   1.602   5.337   0.309 -0.2435 -1.3021  1.7256
17307TIP3    H273413   1.744   5.390   0.307 -0.9902  0.7256 -0.3281
17308TIP3   OH273414   4.156   0.648   3.225 -0.2570 -0.3975 -0.4736
17308TIP3    H173415   4.124   0.632   3.136 -1.4328 -0.5217 -0.0432
17308TIP3    H273416   4.084   0.620   3.282  0.4107 -0.1508  0.5156
17309TIP3   OH273417   6.667   0.172   0.205  0.6775  0.6886  0.2238
17309TIP3    H173418   6.604   0.176   0.277  1.9496 -0.2723  1.4249
17309TIP3    H273419   6.658   0.083   0.170  0.6977  0.8579 -0.2183
17310TIP3   OH273420   2.040   5.305   5.980  0.3731  0.0985 -0.6565
17310TIP3    H173421   2.027   5.398   6.000 -0.1019  0.1294 -1.1113
17310TIP3    H273422   2.107   5.277   6.042 -1.2721  0.1271  1.1851
17311TIP3   OH273423   6.762   3.603   6.159  0.1148  0.2152  0.6225
17311TIP3    H173424   6.761   3.517   6.201  1.4692  0.1626  0.5767
17311TIP3    H273425   6.736   3.585   6.068 -1.7715  0.1797  1.1647
17312TIP3   OH273426   5.800   5.813  12.434 -0.5261  0.2186 -0.2092
17312TIP3    H173427   5.803   5.844  12.343  3.9148 -1.2902 -0.6926
17312TIP3    H273428   5.854   5.876  12.482 -1.8651  0.3224  1.2036
17313TIP3   OH273429   1.713   5.617  13.270  0.3053  0.2982  0.1364
17313TIP3    H173430   1.684   5.703  13.301  0.4956  0.8381 -1.1255
17313TIP3    H273431   1.641   5.558  13.293  0.7165  0.5626  2.1203
17314TIP3   OH273432   0.380   4.652   0.481  0.5829  0.2128 -0.3837
17314TIP3    H173433   0.296   4.694   0.501  1.3423  0.9991  1.1655
17314TIP3    H273434   0.355   4.564   0.452 -0.6467 -0.5623  2.8173
17315TIP3   OH273435   0.214   5.150  13.286  0.1874 -0.0150 -1.2306
17315TIP3    H173436   0.307   5.140  13.307  0.0815 -0.7287 -1.0675
17315TIP3    H273437   0.207   5.236  13.245  0.5339  1.0920  0.9629
17316TIP3   OH273438   2.958   0.403   4.712  0.4275  0.3324  0.2235
17316TIP3    H173439   3.000   0.387   4.627 -2.1875 -1.7129 -0.7586
17316TIP3    H273440   2.874   0.443   4.690 -1.2966 -2.3454  1.6611
17317TIP3   OH273441   3.394   5.924  13.449 -0.4000 -0.5536  0.1111
17317TIP3    H173442   3.340   5.867  13.393 -1.1187  0.3201 -0.1035
17317TIP3    H273443   3.359   5.912  13.537 -0.1098 -0.9514  0.1739
17318TIP3   OH273444   0.951   2.217  17.091  0.2126 -0.3767 -0.5256
17318TIP3    H173445   0.952   2.145  17.029  1.5911 -0.8203 -0.0034
17318TIP3    H273446   0.889   2.190  17.158 -1.1632  0.0337 -1.5958
17319TIP3   OH273447   1.489   1.786   1.615  0.6490 -0.0026 -0.7202
17319TIP3    H173448   1.566   1.791   1.670 -0.8894  0.5457  1.4411
17319TIP3    H273449   1.461   1.695   1.620 -1.0810  0.6080  1.7208
17320TIP3   OH273450   5.546   3.965  16.591  0.5891  0.0301  0.0927
17320TIP3    H173451   5.598   3.891  16.558  0.5056 -0.6504  1.4677
17320TIP3    H273452   5.497   3.929  16.665 -1.9706  0.6304 -1.2648
17321TIP3   OH273453   0.096   4.210   3.271 -0.1610  0.2066 -0.3239
17321TIP3    H173454   0.186   4.233   3.296 -0.9950  2.2284  0.7988
17321TIP3    H273455   0.105   4.177   3.181  1.4810  1.9446 -0.8225
17322TIP3   OH273456   0.390   1.761  13.731  0.2047 -0.6674 -0.2858
17322TIP3    H173457   0.446   1.700  13.779 -0.0720 -0.3463  0.4514
17322TIP3    H273458   0.348   1.707  13.664  0.3318 -1.1945  0.0560
17323TIP3   OH273459   0.757   6.616   6.137 -0.4203 -0.3213  0.0743
17323TIP3    H173460   0.846   6.643   6.116 -0.5779  1.1274  1.2369
17323TIP3    H273461   0.767   6.524   6.164  1.2303  0.7257  3.3098
17324TIP3   OH273462   6.596   5.842   6.889  0.4809 -0.4422  0.1858
17324TIP3    H173463   6.532   5.806   6.951 -0.1236 -0.0695 -0.2240
17324TIP3    H273464   6.545   5.864   6.812  0.9213  0.9045  0.2742
17325TIP3   OH273465   4.160   3.428  15.368 -0.0804  0.3713  0.4245
17325TIP3    H173466   4.224   3.357  15.378  0.3340  0.6724 -0.0957
17325TIP3    H273467   4.106   3.402  15.293  0.4340  0.8825 -0.1224
17326TIP3   OH273468   1.821   1.441   4.728  0.2450  0.3231 -0.0477
17326TIP3    H173469   1.853   1.458   4.816  2.4023 -3.0335 -0.1022
17326TIP3    H273470   1.884   1.380   4.690 -0.2288  2.2254 -4.2024
17327TIP3   OH273471   5.800   5.728   6.441  1.1033 -0.2380  0.3655
17327TIP3    H173472   5.720   5.751   6.394  1.0498  0.6757  0.8850
17327TIP3    H273473   5.847   5.811   6.450  2.1019 -0.7704  0.0764
17328TIP3   OH273474   0.395   6.696   1.647 -0.4163  0.0015  0.4795
17328TIP3    H173475   0.481   6.739   1.653 -0.9048  0.8523  1.5339
17328TIP3    H273476   0.407   6.628   1.580  1.1969 -0.1641  0.9056
17329TIP3   OH273477   4.845   0.456  15.433 -0.0998  1.0241  0.1704
17329TIP3    H173478   4.936   0.486  15.439 -0.1963  1.3080  0.2401
17329TIP3    H273479   4.801   0.497  15.507  0.2690 -1.2012  1.6554
17330TIP3   OH273480   1.462   0.474  12.735 -0.1746  0.0735  0.1971
17330TIP3    H173481   1.486   0.403  12.675  0.3174  0.3784  0.0249
17330TIP3    H273482   1.404   0.433  12.799  3.1497 -1.3980  2.3924
17331TIP3   OH273483   6.709   3.881  11.368 -0.6684 -0.2554 -0.0702
17331TIP3    H173484   6.731   3.968  11.398 -1.1830  0.0803 -0.6472
17331TIP3    H273485   6.644   3.849  11.431 -0.4080 -0.2592  0.1950
17332TIP3   OH273486   2.469   5.070  16.187 -0.0019  0.2557  0.2045
17332TIP3    H173487   2.523   5.039  16.114 -0.4986 -0.6658  0.2163
17332TIP3    H273488   2.532   5.106  16.250  0.6941 -1.5340  0.5725
17333TIP3   OH273489   0.551   2.448   5.680 -0.0256  0.4045  0.0850
17333TIP3    H173490   0.556   2.516   5.748  0.9836 -1.8914  2.3800
17333TIP3    H273491   0.458   2.438   5.663 -0.6191 -1.8167  4.1399
17334TIP3   OH273492   2.229   1.803   2.617  0.1847 -0.2913  0.0583
17334TIP3    H173493   2.201   1.743   2.548  0.3938  0.0408 -0.3140
17334TIP3    H273494   2.148   1.837   2.654  0.0837  0.0151 -0.4457
17335TIP3   OH273495   0.802   4.511  14.826  0.1679 -0.7734 -0.0164
17335TIP3    H173496   0.796   4.418  14.848 -2.5261 -0.7806 -0.5493
17335TIP3    H273497   0.770   4.556  14.904 -1.6123 -0.4646 -0.8912
17336TIP3   OH273498   4.564   5.057  11.309 -0.5138  0.5262 -0.2796
17336TIP3    H173499   4.483   5.097  11.341 -0.1685  0.9123  0.1022
17336TIP3    H273500   4.631   5.082  11.372  0.3060  1.8837 -1.6465
17337TIP3   OH273501   4.345   0.165  13.710 -0.6594  0.3387 -0.1349
17337TIP3    H173502   4.355   0.216  13.630 -0.2407  0.9127  0.2833
17337TIP3    H273503   4.270   0.109  13.693 -0.6817  0.5823 -0.8653
17338TIP3   OH273504   2.255   0.575   1.452 -0.1652  0.4933  0.1746
17338TIP3    H173505   2.297   0.549   1.534 -2.6845 -0.1393  1.3133
17338TIP3    H273506   2.310   0.536   1.384 -0.1099 -2.1527  1.6682
17339TIP3   OH273507   0.417   3.610  16.738 -0.0587 -0.7968 -0.3850
17339TIP3    H173508   0.433   3.526  16.695 -1.3009 -0.8162 -0.8541
17339TIP3    H273509   0.421   3.675  16.667 -1.2922 -0.7313 -0.4059
17340TIP3   OH273510   6.815   4.099  11.697  0.7521 -0.4802  0.0295
17340TIP3    H173511   6.835   4.105  11.604  1.1201 -0.6910  0.0933
17340TIP3    H273512   6.720   4.110  11.702  0.8257  0.3266 -0.2970
17341TIP3   OH273513   0.226   5.800   4.074 -0.4759  0.0704  0.0627
17341TIP3    H173514   0.248   5.848   3.994  0.4598 -0.3762  0.0421
17341TIP3    H273515   0.232   5.866   4.144  0.0398  0.1574 -0.0622
17342TIP3   OH273516   3.682   1.321   5.199 -0.3036  0.2768 -0.2852
17342TIP3    H173517   3.603   1.372   5.184  0.9612  2.2464 -0.4777
17342TIP3    H273518   3.684   1.308   5.294 -0.3145  1.1636 -0.1545
17343TIP3   OH273519   3.046   0.781  16.637  0.4605  0.0398 -0.3884
17343TIP3    H173520   3.066   0.711  16.575  1.7309 -1.3560  1.5423
17343TIP3    H273521   2.951   0.780  16.644  0.2955  0.2392 -2.3166
17344TIP3   OH273522   5.969   1.287   0.142 -0.5116  0.3896 -0.4132
17344TIP3    H173523   5.999   1.235   0.216 -0.0935 -0.1814 -0.9782
17344TIP3    H273524   5.886   1.246   0.116  0.3815 -0.7096 -1.5741
17345TIP3   OH273525   4.007   3.447   1.241  0.4760 -0.0169 -0.2461
17345TIP3    H173526   4.012   3.351   1.243 -0.5021 -0.0655  0.5442
17345TIP3    H273527   3.991   3.468   1.149  0.9383 -0.6004 -0.4638
17346TIP3   OH273528   6.764   2.556  15.883  0.6923  0.4792  0.5076
17346TIP3    H173529   6.669   2.545  15.877  0.8663 -0.5113 -0.6024
17346TIP3    H273530   6.783   2.631  15.827  0.6281  0.2818  0.2167
17347TIP3   OH273531   6.420   6.054   3.111  0.8831 -0.3567  0.4761
17347TIP3    H173532   6.361   6.066   3.185 -1.9399 -2.3631 -1.3569
17347TIP3    H273533   6.391   6.119   3.047  2.7555  0.7936  0.7680
17348TIP3   OH273534   1.166   5.940  17.158  0.0495  0.2470  0.8431
17348TIP3    H173535   1.144   5.853  17.190  1.0835 -0.4820 -0.3835
17348TIP3    H273536   1.243   5.966  17.209  0.3244  0.0315  0.5426
17349TIP3   OH273537   5.203   1.748   3.418 -0.3755  0.9448 -0.0009
17349TIP3    H173538   5.295   1.773   3.419 -0.3218  0.7545 -0.1582
17349TIP3    H273539   5.199   1.668   3.470 -0.3393  0.5686 -0.5717
17350TIP3   OH273540   3.951   1.148  15.608  0.2288  0.1080 -0.1093
17350TIP3    H173541   3.862   1.156  15.572 -0.7340  4.0560  2.7588
17350TIP3    H273542   3.940   1.093  15.685  0.0680  1.2054  0.6712
17351TIP3   OH273543   4.157   5.143   0.519  0.4205 -0.4294 -0.2106
17351TIP3    H173544   4.249   5.117   0.514  0.4575 -0.3387  0.0001
17351TIP3    H273545   4.140   5.155   0.612  0.0853 -0.8305 -0.2192
17352TIP3   OH273546   3.710   0.703   3.465 -0.6094  0.4273  0.2538
17352TIP3    H173547   3.615   0.696   3.450 -0.5056 -0.1046 -0.2005
17352TIP3    H273548   3.721   0.682   3.558 -0.7668 -1.2555 -0.0943
17353TIP3   OH273549   0.559   3.751  11.951 -0.6747 -0.2172 -0.0522
17353TIP3    H173550   0.468   3.759  11.926 -0.6511 -2.1992 -0.8573
17353TIP3    H273551   0.564   3.669  12.000  0.6264  0.0099  0.2395
17354TIP3   OH273552   3.189   1.589  16.266 -0.2949  0.1826  0.4845
17354TIP3    H173553   3.223   1.656  16.326  2.0840 -0.3644 -0.2000
17354TIP3    H273554   3.206   1.624  16.179 -1.9490  0.0895  0.1029
17355TIP3   OH273555   4.069   2.100   5.382  0.4985 -0.3958 -0.0406
17355TIP3    H173556   4.076   2.195   5.385 -4.3869  0.0402  4.0086
17355TIP3    H273557   4.012   2.082   5.307  0.4832 -0.1105 -0.0955
17356TIP3   OH273558   1.569   5.737   4.912  0.3236 -0.2328 -0.2803
17356TIP3    H173559   1.641   5.684   4.878 -1.1493 -2.0220 -0.7395
17356TIP3    H273560   1.597   5.764   4.999  1.7781 -0.4410 -0.6730
17357TIP3   OH273561   3.866   2.020  12.681  0.0878  0.1314  0.4547
17357TIP3    H173562   3.883   2.023  12.775  1.1644 -1.2767  0.3121
17357TIP3    H273563   3.785   1.969  12.673  0.2259 -0.1084  0.5865
17358TIP3   OH273564   6.095   5.852  17.045 -0.2875 -0.4488 -0.2129
17358TIP3    H173565   6.137   5.788  16.987  2.2524  0.7847  0.2006
17358TIP3    H273566   6.126   5.830  17.133  1.1992  1.7513 -0.1413
17359TIP3   OH273567   3.065   0.211   4.067 -0.4589 -0.1045  0.1706
17359TIP3    H173568   2.981   0.207   4.020 -1.0448  0.0706  1.1945
17359TIP3    H273569   3.087   0.305   4.067 -0.1133 -0.1855 -0.3614
17360TIP3   OH273570   1.567   1.449  16.372  0.3381  0.1900 -0.1788
17360TIP3    H173571   1.542   1.362  16.402  0.6859 -0.0015 -0.4434
17360TIP3    H273572   1.490   1.503  16.387 -0.4162 -0.4995 -1.4477
17361TIP3   OH273573   1.353   2.387   3.392  0.3744 -0.2013 -0.0143
17361TIP3    H173574   1.342   2.481   3.376  0.6415 -0.4071 -1.4796
17361TIP3    H273575   1.324   2.375   3.482 -1.8168  0.9183 -0.5165
17362TIP3   OH273576   0.111   5.308   2.029  0.2483 -0.0265 -0.2328
17362TIP3    H173577   0.203   5.315   2.056 -0.1267  0.2734  0.9585
17362TIP3    H273578   0.108   5.229   1.975  1.2918  0.2043 -0.6527
17363TIP3   OH273579   3.826   3.263   3.584  0.2892  0.3692 -0.1388
17363TIP3    H173580   3.915   3.233   3.563  0.8664  0.9671  1.3672
17363TIP3    H273581   3.776   3.182   3.597  0.6408  0.0314 -0.8457
17364TIP3   OH273582   0.334   4.980  17.163  0.6515 -0.2659  0.0321
17364TIP3    H173583   0.351   5.058  17.110  0.7537  0.1167  0.6242
17364TIP3    H273584   0.360   5.005  17.252 -3.3214  0.4884  1.0814
17365TIP3   OH273585   1.268   4.936  17.118  0.8140  0.4555 -0.2212
17365TIP3    H173586   1.325   5.006  17.150 -0.4506  2.0049 -1.2778
17365TIP3    H273587   1.278   4.865  17.182  3.3196  0.9817  0.0122
17366TIP3   OH273588   4.719   4.938  12.483 -0.3700  0.4327  0.1423
17366TIP3    H173589   4.759   4.860  12.445 -0.2993  0.7979 -0.5324
17366TIP3    H273590   4.709   4.917  12.576 -0.1011 -0.2740  0.0099
17367TIP3   OH273591   1.156   1.410   6.449  0.2088  0.7160 -0.3973
17367TIP3    H173592   1.182   1.429   6.539  1.9635  0.5133 -0.8533
17367TIP3    H273593   1.238   1.395   6.403 -0.7885 -1.4364 -1.5338
17368TIP3   OH273594   1.785   4.588  13.032  0.3320  0.1188  0.2417
17368TIP3    H173595   1.799   4.591  13.126  1.5517  0.1621  0.0687
17368TIP3    H273596   1.808   4.498  13.007  1.3956  0.5056 -0.2098
17369TIP3   OH273597   5.812   5.525   4.837  0.6489  0.7452  0.6272
17369TIP3    H173598   5.888   5.553   4.786  1.6835 -0.4898  1.4442
17369TIP3    H273599   5.752   5.488   4.773  0.8582  1.4715  0.0112
17370TIP3   OH273600   0.165   2.425   2.145 -0.9850 -0.0995 -0.9231
17370TIP3    H173601   0.172   2.393   2.055 -1.8186 -1.2822 -0.5829
17370TIP3    H273602   0.120   2.354   2.192  1.9220 -0.7435  1.0381
17371TIP3   OH273603   5.186   5.106  12.028 -0.1985  0.0193 -0.1706
17371TIP3    H173604   5.101   5.090  12.070  0.2601  0.9889  1.1525
17371TIP3    H273605   5.173   5.077  11.938 -0.8792 -3.0791  0.8633
17372TIP3   OH273606   4.306   0.589   1.472 -0.4478 -0.1477  0.0162
17372TIP3    H173607   4.395   0.575   1.438 -0.8802  0.2150 -1.3077
17372TIP3    H273608   4.316   0.660   1.535  0.1034  0.3786 -0.6412
17373TIP3   OH273609   3.931   1.524   4.150 -0.2480  0.1421  0.2851
17373TIP3    H173610   3.888   1.549   4.068 -0.9670 -0.5544  0.4434
17373TIP3    H273611   4.022   1.552   4.139  0.1832 -1.9045 -1.6270
17374TIP3   OH273612   5.964   4.910   0.381 -0.1625  0.2939 -1.1916
17374TIP3    H173613   5.876   4.936   0.409 -0.2630 -0.9945 -0.2622
17374TIP3    H273614   6.003   4.990   0.347 -0.9154  1.3639  0.4134
17375TIP3   OH273615   1.538   1.599  14.989  0.4725 -0.4493 -0.2099
17375TIP3    H173616   1.578   1.543  14.922  0.9120  0.4663 -0.7181
17375TIP3    H273617   1.450   1.564  15.001  0.8569 -1.4476 -0.2902
17376TIP3   OH273618   6.518   3.349  15.497 -0.3145  0.7067 -0.5569
17376TIP3    H173619   6.446   3.301  15.456  0.2907  0.3965 -1.2602
17376TIP3    H273620   6.525   3.312  15.584 -0.1658 -0.1565 -0.9286
17377TIP3   OH273621   1.173   0.056  11.436 -0.6828 -0.1901  0.3370
17377TIP3    H173622   1.185   0.013  11.520  0.1464 -3.2002 -1.2588
17377TIP3    H273623   1.140  -0.012  11.378 -0.6796  1.6709 -1.9493
17378TIP3   OH273624   6.436   1.392  16.810 -0.4455  0.1820 -0.0639
17378TIP3    H173625   6.460   1.299  16.814 -1.5333 -0.1447 -0.8382
17378TIP3    H273626   6.513   1.438  16.843  0.2685 -0.9698 -0.0864
17379TIP3   OH273627   3.810   0.564  16.258 -0.0604  0.1582  0.4098
17379TIP3    H173628   3.833   0.483  16.303 -0.8748 -0.0131  0.5314
17379TIP3    H273629   3.847   0.554  16.170 -1.1974 -0.8931  0.0208
17380TIP3   OH273630   3.286   6.710   4.114 -0.6448  0.2778  0.2972
17380TIP3    H173631   3.272   6.782   4.176 -0.3194  0.1930  0.4695
17380TIP3    H273632   3.359   6.661   4.151  1.2201  1.6571 -1.4653
17381TIP3   OH273633   6.373   0.006  16.605 -0.3643  0.5154 -0.3723
17381TIP3    H173634   6.366  -0.052  16.681  0.7652 -1.4510 -1.7245
17381TIP3    H273635   6.301  -0.021  16.548 -0.1000  0.7553 -0.8183
17382TIP3   OH273636   2.180   1.944   4.931 -0.6819 -0.4966 -0.5729
17382TIP3    H173637   2.186   1.991   4.849  0.1987  1.3008  0.4914
17382TIP3    H273638   2.193   2.011   4.998 -0.6961 -2.0445  1.0130
17383TIP3   OH273639   6.549   1.198  13.759  0.0419 -0.3612  0.3380
17383TIP3    H173640   6.508   1.170  13.677 -0.3032  0.6951  0.1300
17383TIP3    H273641   6.519   1.135  13.824 -0.2550 -0.7974 -0.2142
17384TIP3   OH273642   5.864   5.182   3.833  0.2771  0.1047 -0.5115
17384TIP3    H173643   5.935   5.223   3.784  1.1393  0.5443  1.0923
17384TIP3    H273644   5.843   5.245   3.902 -0.5182 -0.7856  0.0718
17385TIP3   OH273645   5.324   2.490  14.079 -1.1893 -0.6595 -0.0901
17385TIP3    H173646   5.405   2.518  14.122 -0.9972 -2.0391  0.4692
17385TIP3    H273647   5.353   2.447  13.999 -1.3397 -1.4195  0.2561
17386TIP3   OH273648   0.011   5.963  12.826 -0.1359  0.1571  0.0184
17386TIP3    H173649   0.067   5.899  12.869 -1.5531  0.2517  2.0662
17386TIP3    H273650   0.024   5.947  12.732  1.8568 -1.0604  0.4732
17387TIP3   OH273651   2.675   2.304  11.029  0.7467  0.4482  0.5995
17387TIP3    H173652   2.765   2.288  11.001  0.8844 -0.1220  1.3543
17387TIP3    H273653   2.638   2.360  10.960  1.6629  0.6601  0.2713
17388TIP3   OH273654   1.472   3.507  14.423  0.0614 -0.0966 -0.0068
17388TIP3    H173655   1.494   3.465  14.506  0.2536 -0.1594 -0.0881
17388TIP3    H273656   1.463   3.600  14.443  0.8521 -0.0007 -0.0545
17389TIP3   OH273657   5.944   3.275  14.749  0.4536 -0.0201  0.1015
17389TIP3    H173658   5.948   3.188  14.710 -0.2079  0.2774 -0.6442
17389TIP3    H273659   5.873   3.270  14.813 -0.3174  0.2746 -0.7212
17390TIP3   OH273660   6.796   1.682  11.529  0.0927 -0.6694 -0.3504
17390TIP3    H173661   6.847   1.747  11.481  1.2798 -1.6539 -0.4742
17390TIP3    H273662   6.705   1.698  11.504  0.3080  1.2944  0.0721
17391TIP3   OH273663   0.098   2.782  13.571 -0.6251 -0.6087  0.1869
17391TIP3    H173664   0.059   2.695  13.580 -2.2954  0.1588  0.5960
17391TIP3    H273665   0.068   2.830  13.648  0.5020  0.2598  0.1013
17392TIP3   OH273666   0.134   1.677  15.755 -0.3548 -0.0304 -0.2268
17392TIP3    H173667   0.130   1.668  15.660  0.3327  0.8169 -0.3421
17392TIP3    H273668   0.083   1.756  15.774  1.0085  0.8425 -0.0764
17393TIP3   OH273669   1.056   2.089   4.445 -0.1009 -0.3848 -0.9772
17393TIP3    H173670   1.000   2.123   4.516 -0.0108 -2.4758  0.1369
17393TIP3    H273671   1.058   1.994   4.460  0.8129 -0.7289 -3.1581
17394TIP3   OH273672   1.030   6.231  13.661  0.0711  0.4972  0.8839
17394TIP3    H173673   0.941   6.220  13.695  0.0268  0.0538  0.6258
17394TIP3    H273674   1.018   6.256  13.569  0.1782  2.2365  1.3228
17395TIP3   OH273675   5.350   6.819   2.855  0.2819 -0.3624 -0.0076
17395TIP3    H173676   5.381   6.848   2.769 -1.3504  0.7022 -0.2671
17395TIP3    H273677   5.295   6.743   2.836 -0.2926  0.0341  0.0661
17396TIP3   OH273678   1.272   0.968   6.315 -0.0705 -0.2348 -0.2678
17396TIP3    H173679   1.244   0.986   6.405  1.1495 -2.4557  0.5967
17396TIP3    H273680   1.219   0.894   6.287  0.7435 -0.6401 -0.7545
17397TIP3   OH273681   6.128   2.517  13.617 -0.4686  0.0975 -0.3966
17397TIP3    H173682   6.134   2.424  13.640 -1.6788 -0.6842 -2.9932
17397TIP3    H273683   6.116   2.562  13.701  1.7069 -1.9097  1.0570
17398TIP3   OH273684   4.702   3.610   6.456 -0.4478  0.0975  0.2732
17398TIP3    H173685   4.654   3.578   6.533 -0.3084 -1.3379 -0.2251
17398TIP3    H273686   4.713   3.533   6.401 -0.9137  1.1925 -1.4002
17399TIP3   OH273687   4.571   0.408   0.454  0.0441  0.0186  0.1942
17399TIP3    H173688   4.662   0.378   0.455  0.3330  0.8871  1.8126
17399TIP3    H273689   4.544   0.406   0.546 -1.5079 -0.0211 -0.2415
17400TIP3   OH273690   5.735   3.704  12.477  0.4083  0.5742 -0.5642
17400TIP3    H173691   5.661   3.754  12.446 -0.3293 -1.5520 -2.3346
17400TIP3    H273692   5.772   3.757  12.548 -0.7471  3.2312 -1.8824
17401TIP3   OH273693   2.116   6.643  14.977 -0.6160 -0.0439  0.0749
17401TIP3    H173694   2.154   6.557  14.960 -0.6698 -0.1016  0.2463
17401TIP3    H273695   2.098   6.679  14.890 -2.1592 -0.8923  0.0330
17402TIP3   OH273696   1.627   1.247  11.937  0.3190  0.8135 -0.3074
17402TIP3    H173697   1.542   1.212  11.963  0.4844  0.3026 -0.4343
17402TIP3    H273698   1.649   1.312  12.004  1.9377 -2.3001  2.3769
17403TIP3   OH273699   1.265   0.381   1.826 -0.1157 -0.3665 -0.2120
17403TIP3    H173700   1.279   0.312   1.891  0.9554 -0.0688 -0.1099
17403TIP3    H273701   1.231   0.455   1.876  0.3730 -0.2549 -0.0399
17404TIP3   OH273702   1.840   0.158   5.277  0.1609  0.2796  0.4263
17404TIP3    H173703   1.770   0.125   5.335 -1.6041  0.9136 -1.3148
17404TIP3    H273704   1.874   0.079   5.234 -0.4923  0.1306  0.1765
17405TIP3   OH273705   5.150   2.759  15.745  0.7767  0.2646 -0.3343
17405TIP3    H173706   5.121   2.676  15.783  0.7929 -0.0997 -1.1046
17405TIP3    H273707   5.243   2.765  15.767  0.8437 -0.0605 -0.5297
17406TIP3   OH273708   4.569   6.256   3.545  0.4458  0.2274  0.0555
17406TIP3    H173709   4.606   6.172   3.573 -1.5239 -0.8306 -0.4098
17406TIP3    H273710   4.604   6.320   3.608  0.6216 -1.2040  1.4536
17407TIP3   OH273711   0.171   3.286   2.577  0.1214  0.1479 -0.4184
17407TIP3    H173712   0.148   3.244   2.494  0.4225 -2.0261  0.5819
17407TIP3    H273713   0.193   3.214   2.635 -0.1850  1.6530  1.6005
17408TIP3   OH273714   0.537   6.529  13.728 -0.2488 -0.3118 -0.5403
17408TIP3    H173715   0.564   6.606  13.676  0.9078 -0.5998 -0.3922
17408TIP3    H273716   0.501   6.468  13.664 -0.8192  0.2059 -0.7119
17409TIP3   OH273717   3.335   6.499  14.795 -0.3620  0.5741  0.0057
17409TIP3    H173718   3.366   6.416  14.830 -1.1738  0.8142  1.3744
17409TIP3    H273719   3.248   6.510  14.834 -0.9679  1.2596 -1.4942
17410TIP3   OH273720   2.290   5.262  12.760 -0.3000  0.0308  0.3302
17410TIP3    H173721   2.295   5.173  12.723  0.1583 -0.2459  1.0248
17410TIP3    H273722   2.367   5.267  12.817  1.8649  2.2281 -2.6142
17411TIP3   OH273723   3.595   4.053   2.069  0.7564  0.1293 -0.7615
17411TIP3    H173724   3.636   4.138   2.085  0.2105  0.0858  1.0740
17411TIP3    H273725   3.634   3.995   2.135 -0.2561 -0.5717 -0.7712
17412TIP3   OH273726   4.433   0.056  15.113  0.0609  0.2431  1.0358
17412TIP3    H173727   4.442   0.128  15.175  1.0586  0.4359  0.6646
17412TIP3    H273728   4.509   0.000  15.129  0.7243  0.6906 -0.5357
17413TIP3   OH273729   1.856   0.509   3.440 -0.9347  0.1079 -0.2324
17413TIP3    H173730   1.940   0.481   3.476 -1.5019 -0.5919  0.5424
17413TIP3    H273731   1.806   0.428   3.429 -2.2863  0.7278  1.2838
17414TIP3   OH273732   4.684   6.488  12.185 -0.6122 -0.1252  0.3547
17414TIP3    H173733   4.773   6.462  12.211 -0.9735 -0.9442  0.8043
17414TIP3    H273734   4.672   6.448  12.099  0.0864  1.4490 -0.4963
17415TIP3   OH273735   1.119   1.212  16.832  0.6916 -0.3428 -0.0219
17415TIP3    H173736   1.149   1.224  16.742 -0.3543 -1.1491 -0.4799
17415TIP3    H273737   1.082   1.124  16.834 -0.3379  0.0990  0.9003
17416TIP3   OH273738   6.016   4.085  16.117 -0.4461  0.0476 -0.1602
17416TIP3    H173739   6.066   4.049  16.045  3.2931 -0.9352  2.7880
17416TIP3    H273740   6.013   4.179  16.100  2.7680  0.1759 -0.2317
17417TIP3   OH273741   3.998   4.909   5.825 -0.3940  1.0239  0.4207
17417TIP3    H173742   4.003   4.966   5.902  1.9969  3.1388 -1.1845
17417TIP3    H273743   4.068   4.844   5.838  0.4449  1.7773 -0.2121
17418TIP3   OH273744   5.363   3.951   4.637 -0.3285 -0.0814 -0.0370
17418TIP3    H173745   5.302   4.009   4.591 -1.0425 -1.3139 -0.6710
17418TIP3    H273746   5.357   3.977   4.729 -0.5907  0.8833 -0.3270
17419TIP3   OH273747   0.941   6.305   1.764 -0.2465  0.2727 -0.3110
17419TIP3    H173748   0.917   6.279   1.675  0.7311  2.3320 -1.1900
17419TIP3    H273749   0.965   6.397   1.758  2.2959 -0.1896  1.6058
17420TIP3   OH273750   1.909   5.842  16.336 -0.1397 -0.2107 -0.1655
17420TIP3    H173751   1.938   5.904  16.270  0.2246 -0.0754  0.1188
17420TIP3    H273752   1.848   5.784  16.290  0.4885 -0.4232 -0.7481
17421TIP3   OH273753   6.230   3.785   1.452  0.1987  0.3084  0.5674
17421TIP3    H173754   6.258   3.848   1.385 -2.1351 -0.0921 -0.8459
17421TIP3    H273755   6.151   3.823   1.489 -0.2343 -0.9416  0.9446
17422TIP3   OH273756   3.640   4.194  15.135 -0.0381 -0.5141  0.5411
17422TIP3    H173757   3.680   4.127  15.080  0.8085 -1.7087  2.5438
17422TIP3    H273758   3.546   4.175  15.131 -0.1696  0.4902 -1.8399
17423TIP3   OH273759   1.787   6.005  11.926 -0.0781 -0.0174  0.2100
17423TIP3    H173760   1.790   6.070  11.856  0.6731 -0.1195  0.1355
17423TIP3    H273761   1.879   5.992  11.950 -0.3391  0.1319  1.3235
17424TIP3   OH273762   6.533   4.034  17.236 -0.3047 -0.2692  0.0798
17424TIP3    H173763   6.543   4.117  17.283  1.6278  0.6311 -1.8671
17424TIP3    H273764   6.454   3.995  17.273 -2.1098  3.1371 -0.0404
17425TIP3   OH273765   5.900   3.537   0.628 -0.1078 -0.3722  0.8673
17425TIP3    H173766   5.945   3.529   0.544 -0.7853 -0.5232  0.5072
17425TIP3    H273767   5.816   3.579   0.606  0.0366  0.3207  1.5827
17426TIP3   OH273768   4.364   5.387  12.994  0.3417  0.3114 -0.2397
17426TIP3    H173769   4.456   5.362  12.982  0.2222 -1.3836  2.0194
17426TIP3    H273770   4.326   5.315  13.044 -1.9957  1.4677 -0.2644
17427TIP3   OH273771   0.180   5.802  12.960 -0.2753  0.0592  0.0435
17427TIP3    H173772   0.155   5.709  12.963 -0.9874  0.2776  1.1598
17427TIP3    H273773   0.275   5.801  12.971 -0.4662 -0.4493  1.7207
17428TIP3   OH273774   1.912   1.560  15.513  0.1138  0.4084 -0.5783
17428TIP3    H173775   1.849   1.620  15.553  1.0304  1.6343 -0.9504
17428TIP3    H273776   1.958   1.614  15.448  1.0887 -0.6441 -0.7658
17429TIP3   OH273777   4.766   3.342  13.449  0.3612 -1.0215 -0.1977
17429TIP3    H173778   4.743   3.413  13.389  2.0524 -1.1735 -1.0723
17429TIP3    H273779   4.738   3.263  13.404 -0.8173 -0.9635  0.4301
17430TIP3   OH273780   6.119   3.042   0.117 -0.3303  0.2006 -0.3331
17430TIP3    H173781   6.088   3.132   0.121 -0.9075 -0.0189  0.3613
17430TIP3    H273782   6.082   3.001   0.195 -0.0126 -0.6195 -0.6070
17431TIP3   OH273783   5.288   5.596   5.125  0.1519 -0.2548 -0.0750
17431TIP3    H173784   5.287   5.540   5.048  0.1088  0.6813 -0.7652
17431TIP3    H273785   5.320   5.540   5.196 -0.8408 -1.4230 -0.5323
17432TIP3   OH273786   0.308   5.584   5.532  0.3020 -0.3065  0.8216
17432TIP3    H173787   0.233   5.625   5.576 -0.3671 -0.9351  0.2873
17432TIP3    H273788   0.284   5.491   5.526 -0.4830  0.0800 -2.5868
17433TIP3   OH273789   0.430   2.722  13.634 -0.3369  0.4946  0.0311
17433TIP3    H173790   0.411   2.815  13.635 -0.9230  0.3754  0.1936
17433TIP3    H273791   0.345   2.680  13.624 -0.2096 -0.0594  1.2217
17434TIP3   OH273792   6.106   2.228   5.946 -0.0515  0.5404 -0.1759
17434TIP3    H173793   6.190   2.183   5.960 -0.5119 -0.0079  0.8727
17434TIP3    H273794   6.089   2.274   6.028 -2.8376 -2.8014  1.2342
17435TIP3   OH273795   6.505   5.364   2.375 -0.1041  0.3662 -0.4637
17435TIP3    H173796   6.551   5.343   2.294 -0.1972 -1.0297 -0.1760
17435TIP3    H273797   6.575   5.387   2.437  0.2329 -1.5440 -0.0855
17436TIP3   OH273798   6.368   1.783  11.499  0.0232  0.4886  0.1647
17436TIP3    H173799   6.276   1.780  11.474  0.1281 -0.2321 -0.1358
17436TIP3    H273800   6.387   1.696  11.534  0.3095  0.9742  1.2322
17437TIP3   OH273801   6.587   2.905  13.210  0.2367 -0.2876 -0.4116
17437TIP3    H173802   6.646   2.830  13.209 -0.9002 -1.1970 -1.1296
17437TIP3    H273803   6.637   2.975  13.167  1.7893 -0.2305  1.4543
17438TIP3   OH273804   2.516   3.194   5.658  0.5581 -0.0556 -0.3764
17438TIP3    H173805   2.502   3.227   5.747  1.1659  0.1787 -0.3640
17438TIP3    H273806   2.505   3.099   5.666 -0.7718  0.0869 -0.3273
17439TIP3   OH273807   4.578   5.515  17.224  0.4478 -0.2334 -0.9477
17439TIP3    H173808   4.671   5.499  17.240 -0.0545 -1.8368  0.4507
17439TIP3    H273809   4.549   5.439  17.173 -0.3780 -0.3722 -0.2786
17440TIP3   OH273810   0.192   3.871   2.430  0.0287  0.6700 -0.2237
17440TIP3    H173811   0.136   3.795   2.414  0.3419  0.7814 -1.9448
17440TIP3    H273812   0.143   3.924   2.493 -1.3983  0.3186 -1.0136
17441TIP3   OH273813   4.406   6.170   4.406  0.4257 -0.6093 -0.2691
17441TIP3    H173814   4.421   6.262   4.430  2.8243 -0.9127 -0.4857
17441TIP3    H273815   4.376   6.129   4.487  1.8974 -0.1655  0.5380
17442TIP3   OH273816   0.396   6.036  13.863  0.4223  0.0368  0.2396
17442TIP3    H173817   0.486   6.032  13.898  0.1530 -0.5460  0.8790
17442TIP3    H273818   0.376   6.129  13.859  0.8346  0.1482  0.6767
17443TIP3   OH273819   6.274   5.368  15.339 -0.0095 -0.2426 -0.2238
17443TIP3    H173820   6.312   5.389  15.253  1.7468 -0.2066  0.5277
17443TIP3    H273821   6.350   5.345  15.393 -0.7214  2.6960  2.1848
17444TIP3   OH273822   2.378   4.387  10.422 -0.1580  0.2990  0.0590
17444TIP3    H173823   2.347   4.431  10.343 -2.0117 -0.2259  0.4571
17444TIP3    H273824   2.444   4.325  10.391  0.5085  1.4266 -0.8247
17445TIP3   OH273825   2.469   4.602   0.619  0.1722 -0.8015  0.1253
17445TIP3    H173826   2.374   4.591   0.608  0.0164 -0.2732  0.9002
17445TIP3    H273827   2.500   4.631   0.533 -0.7420  1.3561  0.4836
17446TIP3   OH273828   2.897   6.699   6.034 -0.4266 -0.6694  0.8143
17446TIP3    H173829   2.890   6.691   5.939 -0.3572 -1.2875  0.8625
17446TIP3    H273830   2.824   6.756   6.058  1.6174  2.4325  0.0111
17447TIP3   OH273831   6.211   2.127   0.803 -0.0877  0.1429  0.4262
17447TIP3    H173832   6.190   2.085   0.886  2.0149 -1.6437  0.0986
17447TIP3    H273833   6.127   2.151   0.765 -1.2047 -1.6143  1.7514
17448TIP3   OH273834   3.677   0.189  15.964 -0.1793  0.4860 -0.3496
17448TIP3    H173835   3.749   0.190  16.027 -0.9519  1.7061  0.5156
17448TIP3    H273836   3.652   0.096  15.958  0.9024  0.1655 -0.0338
17449TIP3   OH273837   1.076   4.811  12.892 -0.4917  0.0526  0.0757
17449TIP3    H173838   1.156   4.761  12.910 -1.0490 -1.0194 -0.3757
17449TIP3    H273839   1.021   4.796  12.970 -0.7225 -0.1895 -0.1294
17450TIP3   OH273840   2.328   1.184   4.199 -0.3390 -0.2747 -0.1204
17450TIP3    H173841   2.348   1.267   4.242 -0.8092 -0.2008 -0.0410
17450TIP3    H273842   2.322   1.121   4.271  4.8089 -1.4244 -0.4580
17451TIP3   OH273843   0.365   6.415  11.715 -0.0840  0.2686  0.0712
17451TIP3    H173844   0.389   6.339  11.662 -0.1261  0.7476 -0.6475
17451TIP3    H273845   0.425   6.484  11.685  0.4298  0.3319  1.2049
17452TIP3   OH273846   6.484   5.482  13.354  0.3806 -0.1889 -0.2587
17452TIP3    H173847   6.494   5.572  13.386  0.7420 -0.2203 -0.2838
17452TIP3    H273848   6.574   5.450  13.344  0.2947 -2.1928  4.2297
17453TIP3   OH273849   2.798   4.802   0.928  0.0773 -0.5398  0.0495
17453TIP3    H173850   2.703   4.793   0.918 -0.2169  3.0333 -0.8454
17453TIP3    H273851   2.812   4.807   1.022 -0.8187  0.8228  0.1136
17454TIP3   OH273852   2.366   0.579   3.367  0.6870  0.1888 -0.3730
17454TIP3    H173853   2.330   0.551   3.284  1.0483  2.4246 -1.3120
17454TIP3    H273854   2.436   0.516   3.385 -0.1326 -0.9655 -1.1940
17455TIP3   OH273855   3.637   0.812   2.708  0.8408 -0.1145  0.1995
17455TIP3    H173856   3.581   0.802   2.785  2.8634 -2.3784  1.4454
17455TIP3    H273857   3.651   0.906   2.701  0.1893  0.1713  2.2943
17456TIP3   OH273858   3.369   3.510   2.594  0.9572 -0.2127  0.0921
17456TIP3    H173859   3.384   3.426   2.551  0.8323  0.8574 -2.1222
17456TIP3    H273860   3.428   3.510   2.669  2.5731 -1.3833 -1.1479
17457TIP3   OH273861   6.203   5.950   0.192 -0.0324  0.3463 -0.0438
17457TIP3    H173862   6.220   6.034   0.149  0.4444 -0.1010 -0.7533
17457TIP3    H273863   6.113   5.955   0.221 -0.4328  0.5897 -1.2872
17458TIP3   OH273864   2.276   3.921  14.302 -0.1284  0.0975 -0.5167
17458TIP3    H173865   2.213   3.862  14.261  0.3747 -1.1284  0.4643
17458TIP3    H273866   2.334   3.946  14.230  0.5762 -1.8274 -0.6435
17459TIP3   OH273867   5.402   2.808  15.947  0.6552 -0.1146 -0.0656
17459TIP3    H173868   5.408   2.822  16.041 -1.1587 -1.4938  0.2677
17459TIP3    H273869   5.445   2.885  15.909 -0.7587  1.6791  1.8389
17460TIP3   OH273870   3.940   4.767  11.002 -0.0793 -0.5060  0.2164
17460TIP3    H173871   3.940   4.704  11.074 -0.4889 -0.6115  0.1247
17460TIP3    H273872   3.908   4.717  10.926 -0.4408 -0.1835  0.1534
17461TIP3   OH273873   1.808   5.563   0.468  0.0443 -0.5864 -0.3774
17461TIP3    H173874   1.790   5.483   0.517  1.0769 -0.0650  0.8797
17461TIP3    H273875   1.789   5.634   0.530  0.1186  0.1143 -1.1441
17462TIP3   OH273876   6.524   0.010  11.667  0.2052  0.1995  0.1733
17462TIP3    H173877   6.511  -0.084  11.656 -2.2732  0.7088 -1.7862
17462TIP3    H273878   6.578   0.036  11.592 -0.1448  0.5458  0.0407
17463TIP3   OH273879   2.930   2.229   0.970  0.1586  0.1423  0.2547
17463TIP3    H173880   2.867   2.300   0.982 -0.8547 -0.7015 -0.0120
17463TIP3    H273881   2.935   2.187   1.056 -1.2013 -1.0608 -0.2424
17464TIP3   OH273882   4.109   0.925   1.595  0.0560  0.0948 -0.4698
17464TIP3    H173883   4.179   0.907   1.533  0.3991 -1.5588  0.3830
17464TIP3    H273884   4.127   0.867   1.669 -0.6373  1.6728  0.9522
17465TIP3   OH273885   4.006   5.706   3.692  0.2696  0.7186 -0.3764
17465TIP3    H173886   3.981   5.789   3.652  2.0848  0.5932 -1.7877
17465TIP3    H273887   4.097   5.692   3.665  0.7658 -0.5423  1.8198
17466TIP3   OH273888   2.216   0.822  17.169 -0.0807  0.1524 -0.4255
17466TIP3    H173889   2.285   0.799  17.107  0.3310  0.5629 -0.1249
17466TIP3    H273890   2.158   0.746  17.170  0.2162 -0.0832 -0.8860
17467TIP3   OH273891   0.563   2.844   4.291  0.2709 -0.3648 -0.4573
17467TIP3    H173892   0.584   2.810   4.378  0.2130 -1.3808 -0.8355
17467TIP3    H273893   0.636   2.815   4.236 -0.7327 -1.5001 -1.1877
17468TIP3   OH273894   5.988   4.876  15.926 -0.7897 -1.0840  0.1842
17468TIP3    H173895   6.009   4.789  15.894 -1.9566 -1.0433 -0.7437
17468TIP3    H273896   5.998   4.933  15.849 -0.1039 -0.3991  0.7598
17469TIP3   OH273897   5.498   0.496  14.015 -0.2068  0.0378  0.7388
17469TIP3    H173898   5.442   0.494  13.937 -0.2816 -1.4131  0.8272
17469TIP3    H273899   5.476   0.578  14.058 -1.4207  0.0211  0.1600
17470TIP3   OH273900   3.077   0.238  10.916  0.0125  0.2427  0.3046
17470TIP3    H173901   3.149   0.257  10.856  0.8972  1.7389  1.7850
17470TIP3    H273902   3.067   0.143  10.913  1.1231  0.1505 -0.9694
17471TIP3   OH273903   0.400   2.611   4.517  0.3092 -0.2430 -0.2946
17471TIP3    H173904   0.366   2.578   4.433 -0.0576 -3.3581  0.9807
17471TIP3    H273905   0.389   2.537   4.577  3.1929  0.9545  1.8225
17472TIP3   OH273906   1.024   3.223   4.814  0.5676 -0.5051 -0.0358
17472TIP3    H173907   1.071   3.246   4.894 -0.6447  1.3125  0.1867
17472TIP3    H273908   0.940   3.189   4.846 -0.7358  2.1240 -0.5394
17473TIP3   OH273909   0.339   2.323   2.840  0.4776 -0.6154  0.1245
17473TIP3    H173910   0.369   2.249   2.894  0.3439  0.7050  2.0613
17473TIP3    H273911   0.415   2.346   2.787  1.3557 -0.4610  1.4194
17474TIP3   OH273912   0.450   5.177  14.128 -0.1171  0.0171 -0.0200
17474TIP3    H173913   0.439   5.082  14.122 -0.3832 -0.1379  2.3213
17474TIP3    H273914   0.417   5.199  14.215  0.1347  2.2347 -0.4638
17475TIP3   OH273915   2.723   3.191  15.966  0.2342  0.0394  0.2633
17475TIP3    H173916   2.728   3.161  16.057 -0.0556 -0.0299  0.2571
17475TIP3    H273917   2.801   3.246  15.955  1.2018 -1.3470  0.0408
17476TIP3   OH273918   6.369   4.354   0.038 -0.0255  0.0634 -0.0073
17476TIP3    H173919   6.348   4.295   0.111 -0.3930 -0.2694 -0.3811
17476TIP3    H273920   6.461   4.375   0.049  0.0967 -0.5555  0.1429
17477TIP3   OH273921   6.597   3.715   0.381 -0.4251 -0.1822  0.4640
17477TIP3    H173922   6.635   3.717   0.469 -0.9741  0.7241  0.6858
17477TIP3    H273923   6.517   3.663   0.391 -0.6597  0.1950  0.5790
17478TIP3   OH273924   6.135   3.430  15.302  0.8623 -0.3174 -0.2009
17478TIP3    H173925   6.222   3.422  15.263  1.2630 -0.6578  0.7440
17478TIP3    H273926   6.103   3.515  15.270  1.6224 -0.0984 -0.4046
17479TIP3   OH273927   1.216   2.727  12.197  0.2064 -0.3961  0.4145
17479TIP3    H173928   1.126   2.707  12.223  0.0745 -2.4457 -1.4531
17479TIP3    H273929   1.209   2.755  12.106  1.3976 -0.0856  0.4057
17480TIP3   OH273930   3.343   3.260  16.139  0.1361  0.1802  0.0375
17480TIP3    H173931   3.253   3.228  16.137  0.6626 -1.3347  0.0575
17480TIP3    H273932   3.340   3.338  16.195 -1.4086  0.9735 -1.0961
17481TIP3   OH273933   6.739   0.533   4.695 -0.5329  0.3121 -0.5810
17481TIP3    H173934   6.651   0.561   4.719 -0.9754 -0.9895 -0.6024
17481TIP3    H273935   6.789   0.614   4.688 -1.8186  1.0977 -0.9540
17482TIP3   OH273936   5.600   1.041   0.129  0.1502 -0.1036  0.1980
17482TIP3    H173937   5.522   0.994   0.157  0.9238 -1.3517  0.2671
17482TIP3    H273938   5.661   0.973   0.101  0.7699  0.9286 -1.0044
17483TIP3   OH273939   0.979   3.884  15.513  0.2685  0.3521  0.4438
17483TIP3    H173940   0.911   3.885  15.447 -0.5006 -2.6795  1.1210
17483TIP3    H273941   1.043   3.820  15.481  1.5437  1.2976  1.0413
17484TIP3   OH273942   1.879   0.986   6.477  0.1365 -1.0379 -0.1088
17484TIP3    H173943   1.955   0.929   6.464  0.3650 -0.7547 -0.0302
17484TIP3    H273944   1.816   0.957   6.411 -0.0832 -1.9422  0.4987
17485TIP3   OH273945   0.293   5.562   4.286 -0.6032  0.2289  0.2097
17485TIP3    H173946   0.348   5.636   4.310 -1.1474  0.3597  1.0545
17485TIP3    H273947   0.334   5.526   4.208 -0.2951  1.3723 -0.1581
17486TIP3   OH273948   2.302   5.783   3.198 -0.1738 -0.2892 -0.1125
17486TIP3    H173949   2.334   5.755   3.112  1.2881  0.2571  0.2409
17486TIP3    H273950   2.354   5.734   3.261 -0.0669  0.5643  0.4746
17487TIP3   OH273951   3.517   2.959  10.627 -0.3007 -0.1430  0.0768
17487TIP3    H173952   3.572   2.997  10.559 -0.5083  1.0520  0.5594
17487TIP3    H273953   3.564   2.881  10.656  0.3740  0.0177 -0.5865
17488TIP3   OH273954   6.216   1.526  16.016 -0.1155 -0.5193 -0.3105
17488TIP3    H173955   6.212   1.462  15.945  0.1934  0.5481 -1.3074
17488TIP3    H273956   6.261   1.481  16.087 -2.0201 -2.2015 -0.1303
17489TIP3   OH273957   2.649   3.163  16.861  0.0302 -0.1761  0.0584
17489TIP3    H173958   2.586   3.208  16.804  0.2948  1.9447  1.4024
17489TIP3    H273959   2.730   3.212  16.851  0.6785 -1.1224  0.5883
17490TIP3   OH273960   2.163   5.589   4.269  0.1089 -0.2726 -0.1112
17490TIP3    H173961   2.081   5.637   4.283 -0.1171 -0.8290  0.5119
17490TIP3    H273962   2.145   5.502   4.304 -0.7454 -2.0089 -4.4712
17491TIP3   OH273963   0.422   0.563   0.124 -0.2979  0.2531 -0.3501
17491TIP3    H173964   0.431   0.504   0.199  0.0746  0.7550  0.0035
17491TIP3    H273965   0.332   0.550   0.094 -1.1825  1.6354  1.5508
17492TIP3   OH273966   6.010   1.488  14.757  0.6781 -0.4071 -0.4802
17492TIP3    H173967   6.036   1.485  14.849 -0.3223  1.9312 -0.1034
17492TIP3    H273968   5.952   1.412  14.747  0.4757 -0.4599  0.9101
17493TIP3   OH273969   4.592   3.318   0.755 -0.5777  0.1411  0.1071
17493TIP3    H173970   4.620   3.228   0.774  1.2871 -0.0187 -2.9200
17493TIP3    H273971   4.633   3.371   0.823  0.5377 -1.0350  0.3858
17494TIP3   OH273972   2.790   1.229   2.410 -0.2980  0.1177 -0.6317
17494TIP3    H173973   2.799   1.134   2.410 -1.5618 -0.0264  1.5922
17494TIP3    H273974   2.877   1.262   2.433 -0.1548 -0.5439 -0.2269
17495TIP3   OH273975   4.156   4.804   5.570 -0.5091  0.2050 -0.1479
17495TIP3    H173976   4.245   4.831   5.547 -0.0436 -1.6600 -0.6830
17495TIP3    H273977   4.161   4.783   5.663 -0.7179  1.3331  0.1224
17496TIP3   OH273978   3.910   3.688  14.356  0.7368  0.2127  0.1359
17496TIP3    H173979   4.004   3.671  14.354  0.4408 -1.3996 -1.0631
17496TIP3    H273980   3.871   3.612  14.313 -1.1774  0.4376  1.4130
17497TIP3   OH273981   6.208   0.104  10.913  0.2295 -0.5223  0.3430
17497TIP3    H173982   6.301   0.123  10.925 -0.0560  0.2755  1.4277
17497TIP3    H273983   6.168   0.190  10.899 -0.1655 -0.9847 -1.4988
17498TIP3   OH273984   2.198   0.323   0.495 -0.0224  0.2017  0.4794
17498TIP3    H173985   2.285   0.294   0.524 -0.3469 -1.5021 -0.2098
17498TIP3    H273986   2.209   0.339   0.401 -1.0673 -2.5387 -0.1506
17499TIP3   OH273987   6.760   2.111   1.591 -0.3373 -0.0938 -0.4186
17499TIP3    H173988   6.719   2.150   1.514 -1.5488 -0.7046 -0.0964
17499TIP3    H273989   6.854   2.124   1.577 -0.6027  0.8233 -1.4391
17500TIP3   OH273990   2.328   1.962  12.856  0.3362 -0.3171  0.3164
17500TIP3    H173991   2.404   1.918  12.894  0.1045 -0.3308  0.7705
17500TIP3    H273992   2.339   2.054  12.880 -0.8247 -0.6115  2.1640
17501TIP3   OH273993   5.003   0.395   5.424  0.2791 -0.1754  0.4619
17501TIP3    H173994   4.941   0.451   5.378  2.1720  0.7585 -0.9940
17501TIP3    H273995   4.973   0.306   5.406  0.2550  0.2228 -1.5122
17502TIP3   OH273996   5.717   2.312   4.228  0.4950 -0.6196  0.2941
17502TIP3    H173997   5.762   2.271   4.301 -0.2085 -2.2332 -0.1559
17502TIP3    H273998   5.760   2.276   4.150  1.0580  0.8747 -0.1041
17503TIP3   OH273999   2.751   3.747   2.558  0.0764  0.7582 -0.3060
17503TIP3    H174000   2.738   3.840   2.573  0.1112  0.6208  0.6128
17503TIP3    H274001   2.669   3.706   2.586  0.4843  0.4045  0.3725
17504TIP3   OH274002   4.410   2.356  12.229 -0.1305  0.0046  0.5512
17504TIP3    H174003   4.454   2.273  12.246  0.9804  0.2931 -0.8332
17504TIP3    H274004   4.413   2.366  12.134  0.7340  2.1675  0.7834
17505TIP3   OH274005   5.759   2.169   5.573 -0.6638 -0.0951 -0.0648
17505TIP3    H174006   5.733   2.261   5.576 -0.3021 -0.0289  3.0403
17505TIP3    H274007   5.682   2.121   5.602  0.5871 -0.3503  3.0652
17506TIP3   OH274008   0.017   1.941  16.514  0.0741 -0.6082  0.1790
17506TIP3    H174009  -0.014   1.964  16.426 -0.6757  1.0912  0.8774
17506TIP3    H274010  -0.059   1.899  16.556 -0.3244  0.7701  0.8376
17507TIP3   OH274011   0.482   1.583   4.839 -0.5679 -0.1405 -0.1522
17507TIP3    H174012   0.576   1.588   4.822 -0.6864 -1.2473 -1.2215
17507TIP3    H274013   0.460   1.669   4.874  1.6591 -1.2532  4.4378
17508TIP3   OH274014   5.259   4.097  16.782 -1.0078 -0.6097  0.1771
17508TIP3    H174015   5.190   4.111  16.848  0.1641  1.8181  0.9676
17508TIP3    H274016   5.235   4.156  16.710 -0.2027 -0.3635  0.1093
17509TIP3   OH274017   6.462   1.464   6.185  0.5982 -0.1485 -0.0993
17509TIP3    H174018   6.419   1.498   6.263  1.5042  0.9503 -0.0642
17509TIP3    H274019   6.493   1.377   6.212  1.1334  0.3239  0.8653
17510TIP3   OH274020   6.354   0.354  14.523  0.4440  0.1117 -0.1093
17510TIP3    H174021   6.311   0.293  14.582 -0.0499 -1.5236 -2.1170
17510TIP3    H274022   6.438   0.373  14.566  0.3957 -1.5858  0.7663
17511TIP3   OH274023   0.902   4.397  16.044  0.4651 -0.4733 -0.2314
17511TIP3    H174024   0.932   4.311  16.071  0.5594 -0.3365  0.1044
17511TIP3    H274025   0.981   4.451  16.041  0.6351 -0.7842 -1.9690
17512TIP3   OH274026   1.705   0.453   3.980 -0.1101  0.1793  0.7358
17512TIP3    H174027   1.628   0.509   3.972 -0.0655  0.1731  0.2502
17512TIP3    H274028   1.763   0.482   3.909  0.0339 -0.2870  0.6630
17513TIP3   OH274029   5.666   3.433  12.528 -0.2824  0.2795 -0.4763
17513TIP3    H174030   5.684   3.527  12.528 -0.8853  0.4226 -2.5743
17513TIP3    H274031   5.731   3.396  12.587  0.8511  1.8704 -0.6915
17514TIP3   OH274032   2.275   0.196  12.822 -0.6231 -0.3909 -0.0015
17514TIP3    H174033   2.242   0.125  12.877 -1.3930 -0.1032 -0.0958
17514TIP3    H274034   2.363   0.214  12.858 -0.1651 -1.8091 -0.3879
17515TIP3   OH274035   0.314   1.878  16.612  0.5546 -0.2589 -0.0287
17515TIP3    H174036   0.227   1.895  16.576 -0.2990 -0.8658  1.7505
17515TIP3    H274037   0.357   1.964  16.610 -0.1981  0.1133 -0.5787
17516TIP3   OH274038   2.458   1.914   1.410  0.3735  0.5974 -0.1040
17516TIP3    H174039   2.457   1.979   1.339  0.8033  0.0317 -0.6303
17516TIP3    H274040   2.519   1.847   1.380 -0.4906 -0.3310  0.1963
17517TIP3   OH274041   3.511   4.520  13.255  0.1757  0.7511  0.2490
17517TIP3    H174042   3.563   4.483  13.184 -0.7777 -1.3023  0.5625
17517TIP3    H274043   3.423   4.528  13.219  0.1735  1.8760  0.4875
17518TIP3   OH274044   3.411   6.657  16.431 -0.2650  0.5076  0.2504
17518TIP3    H174045   3.400   6.736  16.378 -0.1808  0.6122  0.3885
17518TIP3    H274046   3.458   6.596  16.374 -0.1679  0.6223  0.2098
17519TIP3   OH274047   0.275   1.852   3.252  0.6567 -0.4896  0.5668
17519TIP3    H174048   0.301   1.763   3.229  0.0822 -0.0244 -2.0814
17519TIP3    H274049   0.328   1.907   3.195 -0.2140  0.7999  0.9915
17520TIP3   OH274050   4.310   2.880   5.090 -0.2982 -0.5651 -0.0705
17520TIP3    H174051   4.282   2.875   4.999 -1.3281 -1.4449  0.2769
17520TIP3    H274052   4.344   2.793   5.110  0.2373 -0.2786  0.2974
17521TIP3   OH274053   2.644   2.777  12.953  0.7822  0.9935 -0.2672
17521TIP3    H174054   2.644   2.780  13.048  2.4164  1.2372 -0.2651
17521TIP3    H274055   2.734   2.793  12.928  0.4314  0.6265 -1.8558
17522TIP3   OH274056   1.620   4.095  13.146 -0.2077 -0.0139 -0.2335
17522TIP3    H174057   1.692   4.046  13.105  0.4935  1.0633 -0.2957
17522TIP3    H274058   1.637   4.088  13.240 -0.2246 -0.0643 -0.2342
17523TIP3   OH274059   2.085   0.399  13.538 -0.2809 -0.3336  0.5887
17523TIP3    H174060   1.995   0.397  13.570 -0.6177 -0.4898 -0.3462
17523TIP3    H274061   2.077   0.426  13.446  0.4501 -2.3012 -0.0807
17524TIP3   OH274062   3.529   0.450  15.708 -0.1167 -0.3460 -0.2514
17524TIP3    H174063   3.598   0.512  15.728 -0.5809 -0.3981  1.6520
17524TIP3    H274064   3.453   0.504  15.687  0.1438 -0.2804 -1.0120
17525TIP3   OH274065   5.365   0.955   3.248  0.1625  0.3257  0.4354
17525TIP3    H174066   5.446   0.938   3.296 -0.5887  1.3089  2.0969
17525TIP3    H274067   5.295   0.925   3.307 -0.6929 -0.9593 -1.1688
17526TIP3   OH274068   3.657   2.131   4.739  0.3923 -0.2145  0.1511
17526TIP3    H174069   3.675   2.128   4.645  1.5392 -0.6091  0.3660
17526TIP3    H274070   3.674   2.042   4.769 -1.6583 -0.5131  0.4490
17527TIP3   OH274071   0.056   3.842   0.340 -0.1985 -0.1937 -0.3864
17527TIP3    H174072   0.015   3.836   0.426  0.3450  0.1430 -0.1031
17527TIP3    H274073  -0.015   3.823   0.279 -0.4900 -0.8852  0.1476
17528TIP3   OH274074   1.053   3.627  10.346  0.6095 -0.0299  0.1598
17528TIP3    H174075   0.974   3.576  10.330  1.0999 -0.9535  0.6694
17528TIP3    H274076   1.029   3.716  10.320 -0.6514 -0.2613  0.4880
17529TIP3   OH274077   2.216   5.012  16.631  0.1075 -0.1494  0.2328
17529TIP3    H174078   2.215   5.002  16.536 -1.9037 -0.8567  0.3207
17529TIP3    H274079   2.269   4.938  16.661  0.9996  0.2403 -0.3352
17530TIP3   OH274080   6.269   5.690   3.659 -0.2203 -0.5879  0.0664
17530TIP3    H174081   6.296   5.641   3.737 -0.7695  0.2107  0.7641
17530TIP3    H274082   6.295   5.780   3.677  1.1956 -0.6990 -1.4100
17531TIP3   OH274083   0.194   3.032  15.993  0.5933  0.2415  0.0385
17531TIP3    H174084   0.262   3.014  15.929 -0.0229  0.6741 -0.7546
17531TIP3    H274085   0.193   3.128  16.000  0.8831  0.1815  0.9431
17532TIP3   OH274086   3.969   6.092  16.425  0.1324 -0.5862 -0.6215
17532TIP3    H174087   3.948   6.175  16.467 -0.8452 -0.5267 -1.2093
17532TIP3    H274088   3.989   6.033  16.497  1.2821  0.2803 -0.2220
17533TIP3   OH274089   2.716   1.882  13.669  0.5194 -0.7558  0.3271
17533TIP3    H174090   2.643   1.822  13.679 -0.8936  0.8179 -0.3217
17533TIP3    H274091   2.708   1.943  13.742  2.1947 -1.5612  1.2274
17534TIP3   OH274092   3.441   2.620   2.096 -0.3421 -0.3933  0.0036
17534TIP3    H174093   3.398   2.536   2.081 -1.8580  0.4168 -0.3448
17534TIP3    H274094   3.385   2.664   2.160 -1.8686  2.0047 -2.8431
17535TIP3   OH274095   1.514   2.436   5.257 -0.3148  0.0702 -0.2466
17535TIP3    H174096   1.590   2.495   5.255  0.0461 -0.3834 -0.0896
17535TIP3    H274097   1.438   2.494   5.258  0.0799  0.5880  2.2226
17536TIP3   OH274098   4.438   5.697   5.564  0.0168  0.3002  0.4395
17536TIP3    H174099   4.508   5.673   5.625  0.2388  1.0945  0.4952
17536TIP3    H274100   4.357   5.683   5.614  0.0976 -1.1988  0.1771
17537TIP3   OH274101   4.703   0.114  11.670 -0.6240 -0.1368 -0.7010
17537TIP3    H174102   4.755   0.038  11.644  0.4404  0.1666  0.4849
17537TIP3    H274103   4.628   0.077  11.717  0.9878 -0.3976  1.7537
17538TIP3   OH274104   1.505   5.997   2.410  0.3525 -0.1487  0.2873
17538TIP3    H174105   1.475   6.087   2.422 -2.6474 -1.1827  0.9880
17538TIP3    H274106   1.527   5.992   2.317  1.5867  1.5662  0.4578
17539TIP3   OH274107   4.311   4.817   4.877  0.0152 -0.5083  0.4680
17539TIP3    H174108   4.406   4.822   4.885 -0.1692  1.9320  1.4340
17539TIP3    H274109   4.279   4.805   4.966 -0.6995  0.9891  0.4248
17540TIP3   OH274110   5.000   3.196   5.012  0.1548 -0.0991  0.0033
17540TIP3    H174111   4.981   3.167   5.101 -0.2356  2.0359  0.6535
17540TIP3    H274112   4.928   3.162   4.959 -0.5843  0.1700  0.8319
17541TIP3   OH274113   3.256   2.133   4.253 -0.6062  0.3402 -0.1672
17541TIP3    H174114   3.199   2.148   4.328 -0.0828 -0.8967  0.4958
17541TIP3    H274115   3.271   2.220   4.215 -0.1323  1.0681  1.6806
17542TIP3   OH274116   0.707   1.757  13.707 -0.5066 -0.3276  0.4021
17542TIP3    H174117   0.760   1.735  13.784  0.2901 -0.4780 -0.1764
17542TIP3    H274118   0.667   1.841  13.728  1.4970  0.7381  0.1035
17543TIP3   OH274119   4.589   2.023  13.652  0.2650 -0.1877 -0.3860
17543TIP3    H174120   4.561   2.113  13.636 -2.5006 -0.7662  0.8573
17543TIP3    H274121   4.672   2.015  13.605  0.6905  3.0631 -0.3264
17544TIP3   OH274122   4.759   2.007   5.282  0.5260  0.1855 -0.4547
17544TIP3    H174123   4.755   2.027   5.189  2.2103  0.3736 -0.5010
17544TIP3    H274124   4.689   1.943   5.296 -1.8895  2.5676 -1.2103
17545TIP3   OH274125   4.243   1.752  16.028  0.2223  0.1832  0.3145
17545TIP3    H174126   4.204   1.783  16.109  2.2731 -0.6777  1.6937
17545TIP3    H274127   4.188   1.787  15.959 -0.5408  2.4411  2.0127
17546TIP3   OH274128   2.780   5.315   0.710 -0.2512 -0.3528  0.4695
17546TIP3    H174129   2.693   5.344   0.683 -0.7567 -2.9315 -0.8420
17546TIP3    H274130   2.783   5.223   0.684  2.4493 -0.6040  1.5627
17547TIP3   OH274131   4.418   6.337  14.895 -0.3803 -0.0938 -0.0715
17547TIP3    H174132   4.425   6.273  14.966 -0.8706 -0.7152 -0.5791
17547TIP3    H274133   4.484   6.403  14.916 -0.2818 -0.4527  0.7759
17548TIP3   OH274134   2.621   0.727   0.155 -0.3980  0.4796  0.1057
17548TIP3    H174135   2.533   0.695   0.176 -0.4250  0.1539 -0.4859
17548TIP3    H274136   2.680   0.665   0.199 -0.4590  1.4259  1.5638
17549TIP3   OH274137   3.900   5.164  16.115  0.4322  0.0432  0.6308
17549TIP3    H174138   3.929   5.074  16.099  1.3989  0.6511 -1.2164
17549TIP3    H274139   3.981   5.213  16.128 -0.0803  0.6726  1.4706
17550TIP3   OH274140   1.257   1.258  15.305  0.1062 -0.2016  0.8575
17550TIP3    H174141   1.182   1.224  15.354  0.0438 -0.9141  0.2826
17550TIP3    H274142   1.322   1.188  15.309  0.4376  0.0958  0.6773
17551TIP3   OH274143   1.052   2.799   1.876  0.2189 -0.4065 -0.0071
17551TIP3    H174144   1.001   2.876   1.901 -0.9785 -1.6031  1.3436
17551TIP3    H274145   1.114   2.831   1.811 -0.7735  1.5360 -0.0263
17552TIP3   OH274146   1.290   3.871   4.467  0.0169 -0.0633 -0.2196
17552TIP3    H174147   1.353   3.859   4.395 -0.3369  0.3073 -0.5889
17552TIP3    H274148   1.217   3.814   4.444  0.3760 -0.7876  0.4031
17553TIP3   OH274149   2.420   0.934  16.652 -0.0853  0.0012  0.4349
17553TIP3    H174150   2.374   1.015  16.630 -0.6590 -0.5508 -0.4636
17553TIP3    H274151   2.364   0.865  16.617  0.9860 -0.7330  0.1505
17554TIP3   OH274152   3.750   6.227   6.526  0.1174 -0.3158  0.0321
17554TIP3    H174153   3.716   6.314   6.544 -0.0834 -0.6338  1.2170
17554TIP3    H274154   3.788   6.234   6.438 -1.5491  0.4751 -0.6519
17555TIP3   OH274155   1.000   0.445  14.365  0.2077  0.1342  0.0397
17555TIP3    H174156   0.931   0.510  14.385  0.2142 -0.1199  0.9171
17555TIP3    H274157   1.082   0.492  14.381  0.2124 -0.0872  0.6732
17556TIP3   OH274158   6.006   1.284  14.281  0.5391  0.1893  0.0225
17556TIP3    H174159   6.093   1.280  14.321  1.5862  3.6862 -1.6851
17556TIP3    H274160   5.945   1.282  14.355  2.1341 -0.6297  1.3513
17557TIP3   OH274161   0.172   2.803  12.573  0.2838  0.1045 -0.2237
17557TIP3    H174162   0.226   2.879  12.549 -0.5701 -0.0915 -2.9439
17557TIP3    H274163   0.211   2.731  12.525 -0.2549 -0.7512  0.6191
17558TIP3   OH274164   6.223   6.248   5.526  0.0030 -0.0149  0.0823
17558TIP3    H174165   6.142   6.299   5.530  0.3435  0.4763  0.8177
17558TIP3    H274166   6.194   6.160   5.503 -0.6187  0.4393 -0.9074
17559TIP3   OH274167   3.959   2.768   2.072  0.7046  0.3759 -0.3672
17559TIP3    H174168   3.962   2.741   2.164  1.7672  0.4058 -0.3923
17559TIP3    H274169   3.878   2.819   2.065 -0.2942 -1.0908  0.1493
17560TIP3   OH274170   0.095   1.294   5.188 -0.2308 -0.2179  0.1046
17560TIP3    H174171   0.070   1.237   5.115  0.8930  0.5248 -0.8960
17560TIP3    H274172   0.014   1.339   5.212 -0.3396  0.6079 -1.6837
17561TIP3   OH274173   5.315   4.015  15.365  0.5434 -0.1548  0.1877
17561TIP3    H174174   5.282   4.098  15.397  0.4372  0.0228 -0.3789
17561TIP3    H274175   5.340   4.032  15.274  0.9950 -0.6114  0.2203
17562TIP3   OH274176   4.607   4.820  12.922  0.0819 -0.1268  0.0664
17562TIP3    H174177   4.678   4.780  12.871  0.1826  1.6288 -1.2171
17562TIP3    H274178   4.535   4.829  12.859  0.1340  1.8497  0.2390
17563TIP3   OH274179   0.811   0.912  12.381  0.5243 -0.4380 -0.4495
17563TIP3    H174180   0.796   0.966  12.304 -1.7593  1.7687  1.4579
17563TIP3    H274181   0.738   0.850  12.382  1.7935 -1.9918 -1.2679
17564TIP3   OH274182   1.070   4.331   1.579 -0.6990 -0.0487 -0.2421
17564TIP3    H174183   1.005   4.367   1.639 -0.1092 -0.2375  0.5230
17564TIP3    H274184   1.141   4.396   1.580  0.1142 -0.9251  0.6902
17565TIP3   OH274185   4.028   5.071  15.357 -0.3099  1.0122 -0.1243
17565TIP3    H174186   4.044   5.058  15.451  0.8428  1.4852 -0.2466
17565TIP3    H274187   3.947   5.122  15.353 -2.0152 -1.5169  0.5138
17566TIP3   OH274188   1.434   2.055   2.606 -0.2435  0.0954  0.4396
17566TIP3    H174189   1.400   2.142   2.584  0.1804  0.3461  0.7652
17566TIP3    H274190   1.507   2.072   2.665  0.7013 -0.4267 -0.5644
17567TIP3   OH274191   2.741   4.778  16.615 -0.3276  0.3677 -0.1359
17567TIP3    H174192   2.714   4.694  16.651  1.7238 -0.3590 -0.2559
17567TIP3    H274193   2.717   4.842  16.682 -0.0306 -0.5380  0.8451
17568TIP3   OH274194   1.451   5.960   4.080 -0.4341 -0.3706 -0.2371
17568TIP3    H174195   1.482   5.870   4.082 -0.1632 -0.2854 -0.4464
17568TIP3    H274196   1.362   5.955   4.046 -0.7956 -0.6590  0.7225
17569TIP3   OH274197   5.438   1.774   1.331 -0.4128 -0.7001 -0.8086
17569TIP3    H174198   5.432   1.788   1.237 -1.8411  0.0852 -0.6180
17569TIP3    H274199   5.471   1.856   1.366  1.2049 -1.3682 -0.7201
17570TIP3   OH274200   5.162   1.827   5.249 -0.1665 -0.0232  0.0421
17570TIP3    H174201   5.075   1.786   5.247 -0.8136  1.2914  0.6563
17570TIP3    H274202   5.173   1.862   5.160 -0.4963  0.2890  0.1239
17571TIP3   OH274203   2.547   1.457  14.211  0.1499 -0.4791 -0.3625
17571TIP3    H174204   2.551   1.450  14.116  0.1053  0.9575 -0.4758
17571TIP3    H274205   2.454   1.468  14.231  0.0584 -1.6587 -0.0731
17572TIP3   OH274206   5.468   6.451   3.019 -0.4258 -0.2296 -0.3947
17572TIP3    H174207   5.515   6.392   2.961  0.4440  1.4334 -1.4304
17572TIP3    H274208   5.532   6.475   3.086 -0.6072 -0.0332 -0.2918
17573TIP3   OH274209   2.352   4.713   2.033  0.4337  0.2631  0.4514
17573TIP3    H174210   2.426   4.760   1.994 -0.2399  1.5246  0.6647
17573TIP3    H274211   2.362   4.726   2.127 -0.2866  0.8291  0.4640
17574TIP3   OH274212   5.915   2.439   1.508  0.7425  0.5889 -0.0914
17574TIP3    H174213   6.004   2.451   1.476  0.7706 -0.5472 -0.4631
17574TIP3    H274214   5.894   2.348   1.488 -0.4490  0.7992  0.1283
17575TIP3   OH274215   3.219   6.370   5.039 -0.1112 -0.3746 -0.5435
17575TIP3    H174216   3.305   6.348   5.003 -0.0191  1.3026 -1.3686
17575TIP3    H274217   3.157   6.344   4.972 -0.3496 -2.5970  0.4989
17576TIP3   OH274218   5.076   4.572  11.487  0.2403  0.6518 -0.5608
17576TIP3    H174219   4.993   4.541  11.522  0.4269  0.7321 -0.0373
17576TIP3    H274220   5.121   4.492  11.458  0.7878  0.3846  0.9342
17577TIP3   OH274221   5.856   0.005   4.021 -0.0753  0.0274 -0.3377
17577TIP3    H174222   5.814  -0.058   4.080 -2.6387  1.3861 -0.6582
17577TIP3    H274223   5.824  -0.019   3.934 -0.1485  1.0583 -0.5996
17578TIP3   OH274224   0.173   5.581  12.244 -0.3304  0.2741 -0.4410
17578TIP3    H174225   0.198   5.589  12.336 -1.3863 -1.1867 -0.0040
17578TIP3    H274226   0.249   5.613  12.195  0.9617 -0.6566  0.9116
17579TIP3   OH274227   2.855   5.675  13.836  0.2483 -0.4108 -0.1604
17579TIP3    H174228   2.941   5.707  13.810  0.7599 -1.0287  0.7321
17579TIP3    H274229   2.807   5.666  13.754  1.5259 -1.4411 -0.8115
17580TIP3   OH274230   4.024   1.021  17.044 -0.1916 -0.2542  0.4567
17580TIP3    H174231   3.935   0.992  17.060 -0.1788  0.0673  1.1135
17580TIP3    H274232   4.015   1.112  17.016 -0.1248 -0.4480 -0.1988
17581TIP3   OH274233   6.704   3.939  12.383  0.2105  0.2261 -0.1851
17581TIP3    H174234   6.616   3.943  12.418  0.7213 -1.1791  1.3170
17581TIP3    H274235   6.740   4.027  12.398 -0.5123  0.4336  0.3438
17582TIP3   OH274236   4.704   1.967   3.325  0.1707 -0.2388 -0.5447
17582TIP3    H174237   4.726   1.891   3.273  0.0539  0.1003 -1.0914
17582TIP3    H274238   4.770   2.033   3.301 -0.7761  0.4129 -1.3754
17583TIP3   OH274239   3.199   5.082   0.980 -0.0993 -0.3464 -0.1948
17583TIP3    H174240   3.259   5.146   0.940 -0.4328  0.7463  1.0219
17583TIP3    H274241   3.240   5.059   1.063 -0.8680 -0.3560  0.1890
17584TIP3   OH274242   4.356   0.979  14.213 -0.1355 -0.2465  0.1711
17584TIP3    H174243   4.337   0.892  14.178 -2.3569  0.5826 -0.7924
17584TIP3    H274244   4.353   1.037  14.137 -1.1213  1.0122  1.1478
17585TIP3   OH274245   3.186   0.099   2.555  0.3435  0.4034 -0.5651
17585TIP3    H174246   3.189   0.064   2.644 -0.5131  2.0896  0.1488
17585TIP3    H274247   3.278   0.107   2.529  0.5637 -1.5375 -0.4266
17586TIP3   OH274248   3.754   2.808  12.324 -0.6399 -0.8387  0.1566
17586TIP3    H174249   3.682   2.842  12.377 -1.5092 -0.4132 -1.2857
17586TIP3    H274250   3.830   2.859  12.351 -1.4410  0.5702 -0.2411
17587TIP3   OH274251   6.535   5.495  15.298 -0.0250 -0.0548  0.2595
17587TIP3    H174252   6.591   5.531  15.229  0.5722 -0.4101  0.5672
17587TIP3    H274253   6.580   5.416  15.328 -0.9336 -0.6186  0.1558
17588TIP3   OH274254   1.021   0.054   2.962 -0.4012 -0.0570  0.0752
17588TIP3    H174255   1.023   0.066   2.867 -2.6466 -0.1673 -0.0040
17588TIP3    H274256   0.934   0.081   2.988  0.7254  1.5262  2.3502
17589TIP3   OH274257   4.134   6.422   1.944  0.0767 -0.9803 -0.4302
17589TIP3    H174258   4.122   6.469   1.862  2.4658  0.9541  0.2617
17589TIP3    H274259   4.074   6.464   2.006 -0.4292 -1.2724 -0.7165
17590TIP3   OH274260   0.761   0.927  15.156  0.0176  0.0113 -0.1362
17590TIP3    H174261   0.756   0.843  15.111  0.8510  0.4155 -1.0160
17590TIP3    H274262   0.720   0.989  15.096  0.2973  0.3962  0.0655
17591TIP3   OH274263   1.395   5.633   2.551  0.7307 -0.2374 -0.1764
17591TIP3    H174264   1.479   5.631   2.596 -0.4963 -0.5796  2.1664
17591TIP3    H274265   1.344   5.561   2.590 -0.7592  0.1525 -1.3232
17592TIP3   OH274266   5.069   5.835  11.068  0.1398  0.4800 -0.1857
17592TIP3    H174267   5.091   5.759  11.015  0.4360  0.1827  0.3609
17592TIP3    H274268   5.131   5.833  11.141  0.6953  1.7219 -0.6159
17593TIP3   OH274269   1.503   6.021  15.019  0.0287 -0.0291  0.1880
17593TIP3    H174270   1.497   6.110  14.986 -1.4877  0.5660  1.9827
17593TIP3    H274271   1.564   5.977  14.960  2.8019  2.8560  0.7605
17594TIP3   OH274272   0.153   3.972   4.370  0.1047 -0.0937 -0.0156
17594TIP3    H174273   0.220   3.964   4.302 -0.2206  0.3821 -0.4019
17594TIP3    H274274   0.082   3.916   4.339  0.9812 -1.9222  1.2260
17595TIP3   OH274275   4.909   5.685  12.330  0.7533 -0.0738  1.0586
17595TIP3    H174276   4.828   5.734  12.340  1.4603  1.1492  0.8566
17595TIP3    H274277   4.884   5.594  12.343 -0.7144  0.2624  0.6097
17596TIP3   OH274278   3.099   0.912   2.954 -0.3962  0.6151  0.3217
17596TIP3    H174279   3.125   0.921   3.046  0.0751  2.4046  0.0202
17596TIP3    H274280   3.072   0.820   2.946  1.3613 -0.0478  1.7734
17597TIP3   OH274281   2.506   6.164  15.098 -0.2080 -0.1411 -0.3346
17597TIP3    H174282   2.542   6.155  15.010  0.9585  1.3431 -0.0114
17597TIP3    H274283   2.519   6.256  15.121 -1.8938 -0.1589  0.7942
17598TIP3   OH274284   4.029   1.966  15.481  0.0324 -0.0724  0.5213
17598TIP3    H174285   4.019   2.040  15.421  2.2389  1.7493  2.3197
17598TIP3    H274286   3.988   1.995  15.562 -1.7033 -1.9875  0.3674
17599TIP3   OH274287   5.450   0.949   5.444 -0.1113 -0.3099  0.2643
17599TIP3    H174288   5.519   0.926   5.507  0.9008 -0.6227 -0.9369
17599TIP3    H274289   5.441   0.870   5.390 -0.7756  0.0578 -0.1554
17600TIP3   OH274290   0.948   1.523   4.448 -0.3598 -0.2693  0.1225
17600TIP3    H174291   0.945   1.451   4.510 -0.1328 -0.3768  0.0105
17600TIP3    H274292   0.989   1.486   4.370 -3.3788 -0.9739 -1.2274
17601TIP3   OH274293   0.964   5.141  13.017  0.1251  0.0900  0.0610
17601TIP3    H174294   0.942   5.185  12.935  0.9630 -0.9363 -0.7307
17601TIP3    H274295   1.057   5.118  13.009  0.1903 -0.1379  1.2429
17602TIP3   OH274296   5.137   1.942  14.791 -0.0580 -0.1887  0.0279
17602TIP3    H174297   5.086   2.012  14.833 -1.2277 -0.7857 -0.3642
17602TIP3    H274298   5.191   1.906  14.862 -0.7907 -0.0840  0.6498
17603TIP3   OH274299   1.058   1.201  12.242 -0.4338 -0.2344 -0.1611
17603TIP3    H174300   1.085   1.112  12.219 -1.9776 -1.1836  1.5815
17603TIP3    H274301   0.965   1.194  12.263  0.0945  1.1381  3.0665
17604TIP3   OH274302   6.600   1.226   6.210  0.2562  0.5953 -0.1351
17604TIP3    H174303   6.568   1.165   6.143  0.6594  1.1789 -0.8686
17604TIP3    H274304   6.695   1.216   6.207  0.2430  0.1822  0.7794
17605TIP3   OH274305   1.808   5.603   5.132 -0.4558 -0.0691  0.0608
17605TIP3    H174306   1.880   5.544   5.156 -0.9022 -1.2816 -1.5038
17605TIP3    H274307   1.838   5.689   5.159  1.4723 -0.5993 -0.3059
17606TIP3   OH274308   2.883   3.333  14.088  0.0394  0.3495 -0.3098
17606TIP3    H174309   2.888   3.238  14.093 -1.3081  0.3769  1.9515
17606TIP3    H274310   2.918   3.364  14.171 -1.0640  1.7570 -0.3432
17607TIP3   OH274311   6.472   3.733   3.493  0.1917  0.0277  0.0889
17607TIP3    H174312   6.507   3.821   3.508 -1.0114  0.4833  0.2731
17607TIP3    H274313   6.517   3.678   3.558  0.5189  0.6185  0.3621
17608TIP3   OH274314   3.636   3.556  16.473 -0.0338 -0.3266 -0.6076
17608TIP3    H174315   3.719   3.562  16.521 -0.6645  1.0344  0.3511
17608TIP3    H274316   3.571   3.538  16.540 -0.6209 -0.6700 -1.2649
17609TIP3   OH274317   5.586   2.210  17.213  0.3536  0.0044 -0.0856
17609TIP3    H174318   5.664   2.193  17.266 -0.2416 -0.7827  0.5376
17609TIP3    H274319   5.559   2.124  17.182  0.0793  0.3440 -0.7962
17610TIP3   OH274320   2.179   2.140  10.647  0.0004 -0.5632  0.1216
17610TIP3    H174321   2.134   2.167  10.728  0.4115  0.2716  0.0786
17610TIP3    H274322   2.155   2.207  10.583  1.3385 -0.0779  0.1109
17611TIP3   OH274323   4.252   3.149   5.152 -0.7449 -0.1113 -0.0354
17611TIP3    H174324   4.198   3.155   5.073 -0.2581 -0.7333 -0.4201
17611TIP3    H274325   4.276   3.057   5.158  1.3002  0.3651 -0.5773
17612TIP3   OH274326   4.766   1.443  14.655 -0.3581 -0.2153 -0.3072
17612TIP3    H174327   4.718   1.368  14.619  0.7243  0.0391 -2.3952
17612TIP3    H274328   4.717   1.519  14.623 -0.6436 -0.0142  0.6094
17613TIP3   OH274329   2.986   4.069   1.592  0.1347  0.2909  0.1972
17613TIP3    H174330   2.905   4.116   1.571  1.6391  3.0480  0.3712
17613TIP3    H274331   2.987   4.064   1.688  0.7978  1.4547  0.2611
17614TIP3   OH274332   0.874   1.251  15.891  0.4906  0.1871  1.0204
17614TIP3    H174333   0.887   1.315  15.961  0.3299  0.3013  0.9446
17614TIP3    H274334   0.815   1.186  15.929 -1.2911  1.3451  0.3019
17615TIP3   OH274335   0.345   4.875   5.711  0.8923  0.4390 -0.2152
17615TIP3    H174336   0.350   4.939   5.640  2.5888  0.5331 -0.0317
17615TIP3    H274337   0.430   4.880   5.754  0.3128 -0.4883  1.0777
17616TIP3   OH274338   6.558   2.962  16.768 -0.1632  0.0018 -0.2701
17616TIP3    H174339   6.562   2.867  16.770  1.0452  0.0466 -0.2120
17616TIP3    H274340   6.545   2.988  16.859  0.0852 -0.0871 -0.2107
17617TIP3   OH274341   6.377   0.896  16.410 -0.2731  0.3026 -0.0277
17617TIP3    H174342   6.420   0.888  16.325  0.5382  1.0979  0.2930
17617TIP3    H274343   6.344   0.808  16.429 -0.2293  0.0615 -1.0376
17618TIP3   OH274344   2.962   4.583   2.898 -0.7269 -0.3903 -0.2059
17618TIP3    H174345   2.986   4.655   2.839 -1.0383  0.7934  1.0995
17618TIP3    H274346   2.908   4.526   2.844  0.5484 -0.3119 -1.6201
17619TIP3   OH274347   2.090   5.767   3.552 -0.1082  0.3711 -0.1756
17619TIP3    H174348   2.055   5.820   3.480 -2.1324 -1.2022 -0.3869
17619TIP3    H274349   2.032   5.787   3.626  0.9065  0.6539  0.5543
17620TIP3   OH274350   2.685   6.176  15.959  0.0976 -0.8296  0.0684
17620TIP3    H174351   2.599   6.165  16.000  0.5946  1.8115  1.9187
17620TIP3    H274352   2.748   6.166  16.031  1.3131 -1.6647 -1.0723
17621TIP3   OH274353   3.956   0.512   5.656  0.0921 -0.9358  0.1020
17621TIP3    H174354   3.869   0.474   5.668 -0.3374 -0.3255 -0.9481
17621TIP3    H274355   3.939   0.595   5.611  1.2317 -0.8865 -0.2449
17622TIP3   OH274356   0.944   4.847   3.220  0.0521 -0.1720  0.7591
17622TIP3    H174357   0.887   4.817   3.149  2.6682 -1.7885 -0.7259
17622TIP3    H274358   0.885   4.856   3.295 -1.6199 -5.3035  0.2911
17623TIP3   OH274359   2.220   1.457   6.828 -0.4560 -0.2278 -0.3694
17623TIP3    H174360   2.237   1.525   6.762  1.3565 -0.4866 -0.1984
17623TIP3    H274361   2.128   1.470   6.852 -0.3854  1.6061 -0.9695
17624TIP3   OH274362   2.094   0.095   4.263 -0.1610 -0.0596 -0.0107
17624TIP3    H174363   2.042   0.157   4.211  0.0166 -0.2520 -0.4232
17624TIP3    H274364   2.168   0.146   4.294 -0.0127 -0.0589 -0.3546
17625TIP3   OH274365   2.962   6.281  17.253 -0.1424  0.3022  0.1508
17625TIP3    H174366   2.962   6.194  17.292 -0.3466  0.4737  0.5384
17625TIP3    H274367   3.043   6.286  17.203 -1.4272 -1.1468 -2.2062
17626TIP3   OH274368   0.585   4.141  11.184 -0.3403  0.3232  0.0105
17626TIP3    H174369   0.559   4.082  11.113  0.1268  0.1001  0.0275
17626TIP3    H274370   0.679   4.150  11.175 -0.4137  1.1077 -0.0198
17627TIP3   OH274371   6.452   0.637   5.062  0.3520 -0.0143 -0.4569
17627TIP3    H174372   6.481   0.697   5.131 -0.3593  2.7118 -2.4160
17627TIP3    H274373   6.484   0.678   4.981 -2.2426 -1.0123 -2.0497
17628TIP3   OH274374   1.331   0.091   0.205 -0.5224  0.0162  0.4594
17628TIP3    H174375   1.353   0.047   0.123  0.5226 -1.2149  1.3815
17628TIP3    H274376   1.236   0.082   0.212 -0.4841 -0.8294 -0.0774
17629TIP3   OH274377   0.662   3.632  15.842 -0.8343 -0.4707  0.0585
17629TIP3    H174378   0.732   3.684  15.881 -0.9516 -0.1798 -0.1206
17629TIP3    H274379   0.674   3.642  15.748 -0.1272 -1.7368 -0.0099
17630TIP3   OH274380   3.178   2.130   5.339  0.3241  0.4704  0.0007
17630TIP3    H174381   3.092   2.097   5.366  0.7787  0.0364  0.9478
17630TIP3    H274382   3.184   2.107   5.246  0.4352 -1.7724  0.5148
17631TIP3   OH274383   6.234   4.387   1.224 -0.2570  0.1792 -0.2566
17631TIP3    H174384   6.241   4.299   1.259  1.4381 -0.4309 -2.0648
17631TIP3    H274385   6.244   4.445   1.300 -1.5004 -1.1623  0.9485
17632TIP3   OH274386   2.501   2.172  14.709 -0.4456  0.1770  0.8461
17632TIP3    H174387   2.528   2.104  14.647 -1.5737  0.0412  0.4860
17632TIP3    H274388   2.461   2.124  14.781 -1.7711  0.4645  0.3250
17633TIP3   OH274389   4.351   1.730   5.080 -0.1583  0.3349 -0.1942
17633TIP3    H174390   4.340   1.646   5.035  0.9226  0.4694 -0.7325
17633TIP3    H274391   4.422   1.773   5.033 -0.7769  1.6044  0.0214
17634TIP3   OH274392   5.366   3.674   4.927  0.4320  0.0119 -0.0288
17634TIP3    H174393   5.351   3.683   5.021  0.0448 -0.3088 -0.0639
17634TIP3    H274394   5.441   3.615   4.921 -2.0076 -3.1634 -0.0347
17635TIP3   OH274395   2.291   1.760  12.564  0.7195  0.7822  0.5946
17635TIP3    H174396   2.377   1.793  12.589  1.3327  0.3073 -0.8379
17635TIP3    H274397   2.279   1.790  12.474  0.3524 -0.9991  0.0211
17636TIP3   OH274398   5.884   5.395   6.096 -0.2639 -0.2088  0.0890
17636TIP3    H174399   5.839   5.471   6.134  2.7381  1.5434  0.3645
17636TIP3    H274400   5.961   5.382   6.152  1.0731 -1.3095 -1.9314
17637TIP3   OH274401   3.458   6.673   2.461  0.4565 -0.4764  0.2595
17637TIP3    H174402   3.464   6.680   2.365  1.6408  2.1916  0.5020
17637TIP3    H274403   3.421   6.757   2.488  1.9683 -0.4487  2.3017
17638TIP3   OH274404   5.216   5.790  14.640  0.7274 -0.9617  0.2028
17638TIP3    H174405   5.240   5.792  14.732 -0.2324 -1.4299  0.4637
17638TIP3    H274406   5.126   5.758  14.639 -0.1639  1.5253 -0.7225
17639TIP3   OH274407   6.297   3.696  14.764  0.5669 -0.6060  0.2762
17639TIP3    H174408   6.250   3.663  14.688  0.9758 -1.1869  0.2662
17639TIP3    H274409   6.372   3.637  14.773  0.4665 -0.6027  1.1882
17640TIP3   OH274410   2.013   6.524   3.674 -0.5450 -0.0455  0.4733
17640TIP3    H174411   1.960   6.528   3.754  0.6958  1.5063  1.2441
17640TIP3    H274412   2.066   6.445   3.684 -0.2261  0.2689  1.3020
17641TIP3   OH274413   5.143   2.131   4.211 -0.1346  0.0931  0.0650
17641TIP3    H174414   5.155   2.110   4.119 -0.6047 -1.0182  0.2387
17641TIP3    H274415   5.065   2.081   4.237 -1.4234  2.2632  0.4724
17642TIP3   OH274416   2.067   0.934  15.385  0.1761 -0.4094 -0.0062
17642TIP3    H174417   2.148   0.898  15.349  0.6771  1.8064 -1.1583
17642TIP3    H274418   2.088   0.956  15.476  0.7164 -0.2911 -0.1630
17643TIP3   OH274419   3.787   3.839  10.838 -0.5667 -0.1531  0.2682
17643TIP3    H174420   3.747   3.766  10.885 -1.4433 -0.8165 -1.4433
17643TIP3    H274421   3.731   3.852  10.762 -0.5136  2.4331  0.6265
17644TIP3   OH274422   3.045   4.430  12.193 -0.4276  0.0719 -0.0285
17644TIP3    H174423   2.975   4.457  12.133  0.0463 -0.8820 -1.0254
17644TIP3    H274424   3.040   4.492  12.265 -1.4380  0.8328 -0.7427
17645TIP3   OH274425   0.773   3.640  13.651 -0.2110  0.2868  0.1415
17645TIP3    H174426   0.865   3.617  13.662 -0.2741  0.3076  0.7257
17645TIP3    H274427   0.771   3.694  13.572  0.2124 -0.0847 -0.1288
17646TIP3   OH274428   0.463   2.363   4.628 -0.5430  0.0312 -0.4379
17646TIP3    H174429   0.547   2.341   4.588 -0.7102  2.4305 -2.1960
17646TIP3    H274430   0.480   2.360   4.722  1.4734  0.3338 -0.7681
17647TIP3   OH274431   3.959   4.463  17.165 -0.2777  0.4216  0.0939
17647TIP3    H174432   3.922   4.534  17.217  0.7143  0.3873  0.8719
17647TIP3    H274433   3.908   4.385  17.190 -0.8947  0.7183 -0.2265
17648TIP3   OH274434   2.755   2.051  12.248  0.1369  0.2338  0.2834
17648TIP3    H174435   2.696   2.007  12.187 -2.1119  2.0737  1.0546
17648TIP3    H274436   2.803   2.114  12.195  0.5739 -0.4346 -0.1304
17649TIP3   OH274437   3.958   2.929  11.886  0.4833  0.1343 -0.0721
17649TIP3    H174438   3.899   3.001  11.908  2.1138  0.9727  1.7439
17649TIP3    H274439   3.937   2.908  11.795 -1.9492  1.0151  0.2606
17650TIP3   OH274440   1.173   2.855   5.026  0.2399  0.0415  0.0372
17650TIP3    H174441   1.211   2.899   5.102  0.7155 -2.6539  1.4411
17650TIP3    H274442   1.082   2.837   5.052 -0.3339  1.3558 -1.0409
17651TIP3   OH274443   6.332   0.800  14.863 -0.3440  0.1294 -0.4754
17651TIP3    H174444   6.377   0.857  14.801 -0.3985 -0.6088 -1.2092
17651TIP3    H274445   6.309   0.722  14.811 -0.2482 -0.5626  0.5163
17652TIP3   OH274446   0.248   5.611  12.515  0.2381 -0.5919 -0.3320
17652TIP3    H174447   0.230   5.540  12.578  0.9548 -0.1764  0.3482
17652TIP3    H274448   0.343   5.623  12.519  0.1238  0.3973 -0.4458
17653TIP3   OH274449   4.263   4.466  13.033  0.4053 -0.1075  0.4488
17653TIP3    H174450   4.230   4.494  13.118 -0.2531  3.6267 -0.9140
17653TIP3    H274451   4.192   4.413  12.996  0.0470 -0.4204  1.5787
17654TIP3   OH274452   5.662   2.163   3.620 -0.0789 -0.0196  0.5355
17654TIP3    H174453   5.619   2.085   3.656  1.8739 -1.2271  0.3124
17654TIP3    H274454   5.697   2.208   3.697  1.3535 -0.9388  0.4384
17655TIP3   OH274455   6.399   0.743  13.410  0.0335 -0.6066 -0.0046
17655TIP3    H174456   6.380   0.827  13.369  0.3392 -1.2503 -1.5031
17655TIP3    H274457   6.495   0.738  13.409  0.0021 -1.2312 -0.4946
17656TIP3   OH274458   0.523   5.742   0.169 -0.0618 -1.0439 -0.2241
17656TIP3    H174459   0.534   5.717   0.078 -1.1145  0.0315 -0.6650
17656TIP3    H274460   0.433   5.776   0.174  0.0088 -1.0263  1.1898
17657TIP3   OH274461   2.936   0.662   1.497 -0.4466  0.4488 -0.4587
17657TIP3    H174462   2.947   0.570   1.522 -3.3851  0.7405  2.2155
17657TIP3    H274463   2.919   0.659   1.402  0.5993 -1.6318 -0.6176
17658TIP3   OH274464   2.867   5.834  11.209  0.4114  0.0362  0.5992
17658TIP3    H174465   2.899   5.891  11.278 -0.3488 -1.9434  2.6358
17658TIP3    H274466   2.873   5.746  11.245 -3.0757 -0.7920 -0.6199
17659TIP3   OH274467   2.887   6.796   4.467  0.7114 -0.0184 -0.3034
17659TIP3    H174468   2.937   6.860   4.417  2.4926 -0.3280  1.0514
17659TIP3    H274469   2.857   6.844   4.544  4.1701 -1.3680  1.9968
17660TIP3   OH274470   0.991   4.078  16.647  0.2160 -0.5819  0.1054
17660TIP3    H174471   0.992   4.063  16.552  1.2341  0.3793 -0.0495
17660TIP3    H274472   0.933   4.152  16.660  1.5085  0.4717  0.0260
17661TIP3   OH274473   3.571   2.421  14.737 -0.1117  0.2594  0.0854
17661TIP3    H174474   3.614   2.336  14.742 -0.6031 -0.1094 -1.7037
17661TIP3    H274475   3.637   2.483  14.768  0.0928 -0.8022  1.8589
17662TIP3   OH274476   5.423   0.052   3.420  0.0029 -0.3629  0.3507
17662TIP3    H174477   5.389   0.134   3.383 -3.0923 -2.0658 -0.7002
17662TIP3    H274478   5.497   0.030   3.362 -0.5869  0.4933 -0.7583
17663TIP3   OH274479   2.365   1.608   1.291  0.4770  0.3326  0.2575
17663TIP3    H174480   2.312   1.543   1.244  0.2453  2.5399 -2.6261
17663TIP3    H274481   2.301   1.662   1.337  0.4015  1.0745 -0.7100
17664TIP3   OH274482   1.695   6.710   5.588  0.4889  0.2625 -0.4802
17664TIP3    H174483   1.699   6.805   5.581 -0.1592  0.4470  1.2505
17664TIP3    H274484   1.620   6.693   5.645  2.0890 -1.1652  1.3056
17665TIP3   OH274485   0.540   6.294   3.294 -0.4634 -0.0133 -0.3432
17665TIP3    H174486   0.504   6.316   3.380 -0.1994  0.0287 -0.2427
17665TIP3    H274487   0.472   6.239   3.253  0.0957 -1.3717  0.5290
17666TIP3   OH274488   4.050   1.912  13.249 -0.0830 -0.1658 -0.1819
17666TIP3    H174489   4.109   1.871  13.185 -0.6431  0.4214 -1.0922
17666TIP3    H274490   4.086   2.000  13.261 -0.4549  0.0051 -0.3170
17667TIP3   OH274491   0.650   2.067   2.910  0.0846  0.3282 -0.6265
17667TIP3    H174492   0.725   2.012   2.933 -0.4630  0.2512  1.0998
17667TIP3    H274493   0.681   2.120   2.837  2.1830  0.9866  0.6742
17668TIP3   OH274494   1.317   0.214   3.580 -0.2051 -0.2018 -0.2692
17668TIP3    H174495   1.355   0.260   3.505  1.2235  1.3471  1.3886
17668TIP3    H274496   1.349   0.125   3.572  0.3199  0.0647 -1.2416
17669TIP3   OH274497   1.971   5.054  17.129  0.4756 -0.5229  0.2982
17669TIP3    H174498   2.049   5.094  17.091  0.6620  0.4858  1.7144
17669TIP3    H274499   2.002   4.974  17.170  0.7087 -0.2725  0.6045
17670TIP3   OH274500   1.902   0.837   1.755  0.2719 -1.0324 -0.1162
17670TIP3    H174501   1.823   0.793   1.725 -2.1356  3.0160 -0.0030
17670TIP3    H274502   1.966   0.821   1.685 -1.1963 -2.7973 -1.0868
17671TIP3   OH274503   4.022   2.714   3.705 -0.0819  0.5690  0.1534
17671TIP3    H174504   4.049   2.688   3.793 -1.9365 -2.0702 -0.0087
17671TIP3    H274505   4.085   2.672   3.647  0.0168  0.7260  0.1490
17672TIP3   OH274506   1.387   1.110   0.196  0.9729 -0.7249  0.3394
17672TIP3    H174507   1.392   1.205   0.197 -0.0325 -0.6555 -0.2262
17672TIP3    H274508   1.426   1.084   0.113  1.2271 -0.8088  0.4833
17673TIP3   OH274509   3.212   0.431   6.184  0.2601 -0.1283 -0.2672
17673TIP3    H174510   3.301   0.396   6.188  0.8902  1.4467 -0.0918
17673TIP3    H274511   3.162   0.379   6.246  0.3458 -3.0176 -2.5462
17674TIP3   OH274512   4.504   1.725   1.524 -0.2115 -0.1686 -0.0844
17674TIP3    H174513   4.549   1.724   1.609  0.6619 -0.5373 -0.5422
17674TIP3    H274514   4.529   1.808   1.485  0.6606 -0.6891 -0.6450
17675TIP3   OH274515   2.519   6.191  15.724 -0.7433 -0.1238  0.5381
17675TIP3    H174516   2.442   6.219  15.775 -1.0561 -0.7501  0.4194
17675TIP3    H274517   2.591   6.194  15.787 -0.6679  1.4321  0.3964
17676TIP3   OH274518   6.577   5.218   3.797  0.7478 -0.4998  0.0445
17676TIP3    H174519   6.482   5.222   3.794  0.6509 -0.7502  1.8716
17676TIP3    H274520   6.606   5.278   3.728 -0.7242 -0.5114 -0.6011
17677TIP3   OH274521   0.182   2.481  10.751 -0.1794 -0.6353  0.2917
17677TIP3    H174522   0.115   2.419  10.781 -0.3413 -0.4706  0.2709
17677TIP3    H274523   0.263   2.450  10.791 -0.1944 -1.0785 -0.0114
17678TIP3   OH274524   5.851   5.020   6.349 -0.0986  0.1983 -0.1068
17678TIP3    H174525   5.799   5.061   6.280  0.6902 -0.0038 -0.8321
17678TIP3    H274526   5.870   5.092   6.410  1.0687  0.8814 -1.2446
17679TIP3   OH274527   5.164   2.542   0.841  0.1053  0.1764 -0.2949
17679TIP3    H174528   5.149   2.636   0.857 -1.1298 -0.1009  0.2614
17679TIP3    H274529   5.080   2.501   0.863  0.8822 -1.1544  0.2063
17680TIP3   OH274530   2.352   3.812   0.901  0.4540 -0.2738  0.0458
17680TIP3    H174531   2.375   3.817   0.994  0.4357 -1.1453  0.1021
17680TIP3    H274532   2.434   3.827   0.855  0.0317  2.5897  0.1591
17681TIP3   OH274533   3.843   2.102  11.232  0.0631  0.2449 -0.3964
17681TIP3    H174534   3.767   2.044  11.229  0.3288 -0.2212  1.5816
17681TIP3    H274535   3.918   2.045  11.214  0.2172  0.1733  0.4672
17682TIP3   OH274536   3.217   3.840  14.540  0.1196  0.6250  0.2947
17682TIP3    H174537   3.146   3.898  14.513 -1.2376 -0.6716  1.0741
17682TIP3    H274538   3.191   3.753  14.510  1.7478  0.2519 -0.1105
17683TIP3   OH274539   5.339   3.171  12.866 -0.2783  0.5393  0.3734
17683TIP3    H174540   5.362   3.242  12.927  1.5502  1.3489 -1.2306
17683TIP3    H274541   5.421   3.147  12.824 -0.9605 -2.2043  0.4768
17684TIP3   OH274542   1.295   3.306   4.664  0.0567  0.3754  0.0276
17684TIP3    H174543   1.285   3.215   4.637  0.7021  0.6210 -1.0771
17684TIP3    H274544   1.229   3.319   4.732 -1.1532 -0.4468 -0.9702
17685TIP3   OH274545   4.736   3.071   1.818 -0.2425  0.1372 -0.3588
17685TIP3    H174546   4.732   2.981   1.786 -1.1154  0.1919 -0.4184
17685TIP3    H274547   4.825   3.082   1.849 -0.1784 -0.7984 -0.2093
17686TIP3   OH274548   0.361   5.413  15.912 -0.3133 -0.1680 -0.4457
17686TIP3    H174549   0.431   5.409  15.977 -0.7471  0.4596  0.0786
17686TIP3    H274550   0.385   5.348  15.846  0.3379 -0.5387  0.1448
17687TIP3   OH274551   6.573   0.439  14.887 -0.5058  0.0061  0.1746
17687TIP3    H174552   6.621   0.459  14.806  0.3716 -0.4510  0.5728
17687TIP3    H274553   6.568   0.344  14.889 -1.8543  0.0639 -0.0943
17688TIP3   OH274554   6.421   3.644  11.358 -0.6253  0.5980  0.1597
17688TIP3    H174555   6.416   3.678  11.268 -0.6569  0.1343 -0.0183
17688TIP3    H274556   6.430   3.549  11.346  0.1792  0.6136  0.6335
17689TIP3   OH274557   1.429   4.258  13.027  0.8388  0.0137 -1.0392
17689TIP3    H174558   1.503   4.219  13.074  1.0514  0.1875 -1.2280
17689TIP3    H274559   1.463   4.274  12.939  0.1825 -1.0897 -1.4980
17690TIP3   OH274560   1.424   1.663   0.308  0.4870  0.4389 -0.5513
17690TIP3    H174561   1.517   1.677   0.329  0.4762  0.5364 -0.5667
17690TIP3    H274562   1.381   1.655   0.393  0.6718 -0.6819 -0.5671
17691TIP3   OH274563   4.067   4.490  14.793 -0.2049 -0.4907 -0.0112
17691TIP3    H174564   4.121   4.555  14.837 -1.5861 -0.5647  1.8568
17691TIP3    H274565   4.105   4.406  14.820  0.5324 -0.4980 -1.0531
17692TIP3   OH274566   5.336   0.530  16.127 -0.5865  0.2196 -0.2881
17692TIP3    H174567   5.297   0.458  16.176 -1.0481  0.3550 -0.4554
17692TIP3    H274568   5.284   0.607  16.151  1.2586  0.9320  1.6041
17693TIP3   OH274569   0.959   6.595  16.687  0.1755  0.5390 -0.3177
17693TIP3    H174570   0.949   6.686  16.660  2.9603  1.2744  1.0289
17693TIP3    H274571   0.925   6.593  16.777 -2.6900 -0.4538 -1.3531
17694TIP3   OH274572   3.938   1.229   6.090 -0.8436 -0.2969 -0.1546
17694TIP3    H174573   4.025   1.265   6.071 -0.2962 -1.1217  0.7351
17694TIP3    H274574   3.941   1.205   6.183 -1.6129 -1.4285 -0.4043
17695TIP3   OH274575   1.632   6.592  16.019 -0.2845  0.3029  0.4982
17695TIP3    H174576   1.628   6.519  15.958  0.6150  0.4531  0.2624
17695TIP3    H274577   1.546   6.592  16.061 -1.8132  1.6644 -2.4818
17696TIP3   OH274578   3.216   1.004   5.895 -0.1436  0.1088  0.1279
17696TIP3    H174579   3.243   0.912   5.896 -1.7030 -0.3846  2.2085
17696TIP3    H274580   3.288   1.051   5.938  0.5066 -0.1748 -0.6409
17697TIP3   OH274581   2.481   2.300   2.921  0.0276  0.1108 -0.7711
17697TIP3    H174582   2.526   2.267   2.844 -0.0558 -0.1875 -0.6944
17697TIP3    H274583   2.388   2.289   2.901  0.0230 -2.3280  0.3679
17698TIP3   OH274584   3.997   3.297  15.961  0.8319  0.3273 -0.3699
17698TIP3    H174585   4.055   3.267  15.890  0.3559 -0.6435 -0.3475
17698TIP3    H274586   4.020   3.389  15.971  1.5312  0.2619 -1.1908
17699TIP3   OH274587   6.026   5.806   1.051 -0.1405 -0.5842  0.4925
17699TIP3    H174588   6.058   5.895   1.063 -0.5058 -0.3929  0.0902
17699TIP3    H274589   6.061   5.757   1.125 -0.3093 -0.0040  0.9585
17700TIP3   OH274590   3.659   1.474  12.253 -0.3718 -0.4996  0.2393
17700TIP3    H174591   3.596   1.546  12.252  3.0120  2.6337 -0.2247
17700TIP3    H274592   3.669   1.453  12.346  0.6395  1.5653  0.6216
17701TIP3   OH274593   6.720   0.388   5.740 -0.4897 -0.0961  0.4987
17701TIP3    H174594   6.790   0.360   5.799  0.4984 -2.9721 -1.9008
17701TIP3    H274595   6.766   0.427   5.665 -1.1850 -3.7541 -1.9963
17702TIP3   OH274596   1.781   1.452   5.896  0.0117 -0.1255 -0.4219
17702TIP3    H174597   1.754   1.522   5.836  0.8388  0.2028 -0.4142
17702TIP3    H274598   1.699   1.418   5.931 -0.5063 -0.6294 -2.0965
17703TIP3   OH274599   3.784   3.164   1.103 -0.4071 -0.0622  0.5151
17703TIP3    H174600   3.748   3.091   1.053 -0.1500  1.4438 -1.9394
17703TIP3    H274601   3.875   3.139   1.120 -0.6078 -0.7554  0.5659
17704TIP3   OH274602   4.591   2.539   4.336  0.1925 -0.1678  0.4876
17704TIP3    H174603   4.631   2.484   4.269  2.7254  0.1470  1.6809
17704TIP3    H274604   4.567   2.619   4.290 -1.2885 -1.3109 -0.7472
17705TIP3   OH274605   1.108   2.923   1.436  0.2053  0.2611 -0.0052
17705TIP3    H174606   1.150   3.005   1.409 -2.4463  1.3258 -0.9890
17705TIP3    H274607   1.157   2.896   1.513  1.4144  2.5170  0.0695
17706TIP3   OH274608   1.510   2.203   4.032  0.0939 -0.2377  0.5295
17706TIP3    H174609   1.583   2.249   3.990 -0.2216  0.0667  0.3093
17706TIP3    H274610   1.541   2.113   4.042  0.5853 -0.0593  0.6455
17707TIP3   OH274611   4.019   1.060   4.785  0.3010  0.0525  0.4706
17707TIP3    H174612   4.020   1.147   4.824  1.3846  0.2806 -0.0612
17707TIP3    H274613   4.103   1.052   4.741 -0.2581 -0.8305 -0.4590
17708TIP3   OH274614   4.773   2.163   0.431 -0.1058  0.3476 -0.2372
17708TIP3    H174615   4.804   2.165   0.340 -0.8669 -1.0268 -0.5420
17708TIP3    H274616   4.803   2.078   0.465  0.7041  1.1084  1.0036
17709TIP3   OH274617   1.188   0.309  12.205 -0.7525  0.1738 -0.1157
17709TIP3    H174618   1.180   0.346  12.293  0.8816 -0.4817  0.3322
17709TIP3    H274619   1.110   0.339  12.159 -2.5737 -0.9884  2.1193
17710TIP3   OH274620   2.538   2.129  15.740  0.5607 -0.2633  0.3024
17710TIP3    H174621   2.445   2.123  15.720  0.9535 -2.1030 -1.1664
17710TIP3    H274622   2.575   2.180  15.667  0.7298  0.3495  0.8128
17711TIP3   OH274623   1.492   5.135   1.995  0.7316  0.1045  0.5774
17711TIP3    H174624   1.547   5.203   2.035  1.5170 -0.2024  0.0336
17711TIP3    H274625   1.501   5.059   2.052  0.3527  0.2543  0.8410
17712TIP3   OH274626   0.979   1.016  13.558  0.2133 -0.2542  0.1210
17712TIP3    H174627   0.963   0.933  13.604 -0.3336  0.3079  0.9640
17712TIP3    H274628   0.921   1.013  13.482  0.2750 -0.6922  0.0912
17713TIP3   OH274629   5.530   4.974   1.739 -0.3002  0.4734 -0.1368
17713TIP3    H174630   5.470   5.032   1.692 -0.4677 -1.1629 -2.0074
17713TIP3    H274631   5.479   4.895   1.755  0.3961  0.2578  1.0344
17714TIP3   OH274632   3.607   2.546   1.333 -0.4604 -0.2335 -0.1377
17714TIP3    H174633   3.684   2.525   1.386  0.4129  1.0186 -0.8803
17714TIP3    H274634   3.542   2.578   1.396  0.0087 -0.2631  0.3630
17715TIP3   OH274635   0.496   4.048  12.902 -0.1558 -0.0111  0.1978
17715TIP3    H174636   0.438   4.050  12.978  1.9575  2.1496  1.8387
17715TIP3    H274637   0.481   4.133  12.859 -2.9840 -2.0814 -3.1849
17716TIP3   OH274638   4.577   0.727  11.527  0.3536 -0.8424  0.1281
17716TIP3    H174639   4.658   0.755  11.568  0.9320  0.2909 -1.7268
17716TIP3    H274640   4.550   0.801  11.473 -1.1277 -1.7636 -0.4403
17717TIP3   OH274641   1.774   1.147   6.053  0.2823 -0.5349  0.2224
17717TIP3    H174642   1.683   1.129   6.030  0.5781 -1.6503 -0.1162
17717TIP3    H274643   1.802   1.072   6.105  1.2869 -0.6485 -0.4532
17718TIP3   OH274644   4.581   4.842   4.887  0.1550  0.2975  0.2397
17718TIP3    H174645   4.662   4.877   4.851  0.8269 -0.5896  0.8649
17718TIP3    H274646   4.600   4.750   4.905 -1.3449 -0.2160 -0.6601
17719TIP3   OH274647   5.259   1.011   6.242 -0.1301 -0.4162 -0.1156
17719TIP3    H174648   5.168   0.982   6.237  0.3853 -2.2376  0.5835
17719TIP3    H274649   5.310   0.932   6.225  1.3226  0.4454  0.1673
17720TIP3   OH274650   2.176   4.137   2.568  0.5111  0.2453 -0.7437
17720TIP3    H174651   2.168   4.123   2.473  2.4617  0.6445 -0.9896
17720TIP3    H274652   2.235   4.068   2.598 -0.7194 -0.3571  0.3358
17721TIP3   OH274653   6.004   3.012   3.026  0.2376 -0.4702  0.6468
17721TIP3    H174654   5.956   2.943   2.981 -1.3585  0.6875  0.5510
17721TIP3    H274655   5.988   2.996   3.119 -1.4178  0.6480  0.5799
17722TIP3   OH274656   5.010   0.043  12.238  0.0590 -0.0893 -0.1921
17722TIP3    H174657   4.936   0.104  12.231 -1.2481 -1.6060  0.2278
17722TIP3    H274658   4.990  -0.010  12.315 -0.6093 -3.4059 -2.5530
17723TIP3   OH274659   0.772   4.246   5.493 -1.2411  0.4119  0.5133
17723TIP3    H174660   0.700   4.302   5.520 -0.8268  1.0228  0.3627
17723TIP3    H274661   0.755   4.162   5.536 -2.1247  0.5018  0.3385
17724TIP3   OH274662   6.687   5.969   4.589 -0.4306 -0.0382  0.6357
17724TIP3    H174663   6.773   5.967   4.631  0.5577  0.7513 -1.2881
17724TIP3    H274664   6.633   6.025   4.646  0.7140  0.5478  1.1507
17725TIP3   OH274665   4.302   4.429   5.709  0.2204 -0.4885  0.4420
17725TIP3    H174666   4.387   4.445   5.750  0.0291  1.1965  0.1814
17725TIP3    H274667   4.238   4.448   5.778 -0.0810  1.8793 -0.4570
17726TIP3   OH274668   6.762   5.579  14.800 -0.1887 -0.0677 -0.0157
17726TIP3    H174669   6.834   5.580  14.863 -2.4117  0.5108  2.6259
17726TIP3    H274670   6.785   5.648  14.738  1.2985  0.4568  1.0664
17727TIP3   OH274671   3.886   2.894   1.075 -0.0162 -0.6752 -0.7292
17727TIP3    H174672   3.922   2.910   0.988  0.2864  1.2558 -0.2663
17727TIP3    H274673   3.957   2.916   1.135 -0.6314 -0.8127  0.0548
17728TIP3   OH274674   3.223   1.849   1.933  0.6616 -0.5344 -0.0448
17728TIP3    H174675   3.260   1.765   1.905  2.7279  0.3655 -0.1070
17728TIP3    H274676   3.133   1.847   1.900  1.6037 -1.4608 -2.7475
17729TIP3   OH274677   2.851   5.633  12.955  0.7291 -0.2111 -0.0326
17729TIP3    H174678   2.927   5.593  12.997  0.5478 -1.5964 -0.9907
17729TIP3    H274679   2.816   5.693  13.020  1.4400 -1.0970  1.1735
17730TIP3   OH274680   4.631   5.034  13.314  0.3598  0.0934 -0.0000
17730TIP3    H174681   4.687   5.028  13.391 -0.3829 -0.0494  0.5340
17730TIP3    H274682   4.657   4.960  13.259  1.1111  0.3847 -0.0339
17731TIP3   OH274683   3.149   3.823  14.938 -0.1912 -0.1784  0.0511
17731TIP3    H174684   3.237   3.829  14.903  0.3585  1.4390  1.6275
17731TIP3    H274685   3.129   3.729  14.938  1.4813 -0.5370 -0.4308
17732TIP3   OH274686   4.639   5.651  16.424  0.0224  0.0138  0.3883
17732TIP3    H174687   4.638   5.715  16.496  0.3563 -0.3327  0.7017
17732TIP3    H274688   4.610   5.701  16.348 -2.5401 -0.1694  1.2153
17733TIP3   OH274689   6.762   3.892  17.243  0.3040 -0.2213 -0.0145
17733TIP3    H174690   6.682   3.940  17.267 -0.4442 -0.3279 -2.1391
17733TIP3    H274691   6.827   3.960  17.226  0.4648 -0.1081  1.0516
17734TIP3   OH274692   2.301   1.321  13.025 -1.0207  0.4628  0.1571
17734TIP3    H174693   2.244   1.245  13.022  1.9222 -1.7560 -2.3158
17734TIP3    H274694   2.355   1.308  13.103  0.4230 -0.7161 -1.0281
17735TIP3   OH274695   1.897   6.709  10.921  0.1278  0.3124  0.4014
17735TIP3    H174696   1.807   6.723  10.951 -0.2089  0.1711 -0.5240
17735TIP3    H274697   1.903   6.757  10.839  0.9581  0.4618  0.5391
17736TIP3   OH274698   1.550   4.953  14.169  0.0213 -0.3851  0.7354
17736TIP3    H174699   1.468   4.943  14.218 -0.8663  0.1862 -0.6123
17736TIP3    H274700   1.556   5.047  14.151 -1.0069 -0.8859 -2.4935
17737TIP3   OH274701   0.073   5.599  14.404  0.0500  0.0843 -0.0845
17737TIP3    H174702   0.093   5.556  14.487  0.5793  0.4751 -0.0076
17737TIP3    H274703   0.126   5.553  14.339  1.0149  0.9430  0.0787
17738TIP3   OH274704   0.709   1.580  16.124 -0.2066  0.3695 -0.2658
17738TIP3    H174705   0.644   1.644  16.153 -0.3518  1.2971 -2.5494
17738TIP3    H274706   0.684   1.498  16.168 -0.7699  1.5517  1.6756
17739TIP3   OH274707   4.456   1.877   0.294  0.2196  0.5515  0.3479
17739TIP3    H174708   4.486   1.901   0.206 -0.3424 -0.0324 -0.0075
17739TIP3    H274709   4.421   1.789   0.284  0.8036  0.2080  1.3158
17740TIP3   OH274710   6.258   6.030   4.743  0.6110  0.1953 -0.2641
17740TIP3    H174711   6.353   6.019   4.737  0.7033  1.8473 -1.9576
17740TIP3    H274712   6.222   5.966   4.681  0.6391  0.1175 -0.2008
17741TIP3   OH274713   2.433   5.169   1.153  0.0766 -0.4485  0.1633
17741TIP3    H174714   2.474   5.232   1.213 -2.1056  0.6510  0.5686
17741TIP3    H274715   2.507   5.128   1.108  1.6209  1.4429  0.8557
17742TIP3   OH274716   5.904   4.152  17.217  0.0761  0.4829 -0.2287
17742TIP3    H174717   5.983   4.179  17.171 -0.2434  1.4670 -0.2208
17742TIP3    H274718   5.881   4.227  17.272 -1.1965  0.4403 -0.6761
17743TIP3   OH274719   5.553   4.186  10.716  0.3548  0.1044 -0.0893
17743TIP3    H174720   5.622   4.247  10.741  0.8585 -0.7391  0.6130
17743TIP3    H274721   5.547   4.194  10.621  1.6037  0.0028 -0.1906
17744TIP3   OH274722   2.348   1.416   4.689  0.0704 -0.2542 -0.6942
17744TIP3    H174723   2.306   1.474   4.626 -1.0394  0.8417  1.0253
17744TIP3    H274724   2.410   1.365   4.637 -0.7496  0.7007 -2.6446
17745TIP3   OH274725   4.792   6.789   1.978 -0.7136 -0.2745  0.3119
17745TIP3    H174726   4.831   6.702   1.965 -1.5401 -0.7082  0.6783
17745TIP3    H274727   4.824   6.816   2.064  1.2921  0.7340 -0.7248
17746TIP3   OH274728   4.288   4.137   2.872 -0.1930  0.3508 -0.2714
17746TIP3    H174729   4.253   4.098   2.952  0.6141  0.1568 -0.0076
17746TIP3    H274730   4.378   4.104   2.867  0.8344  2.9097  0.4721
17747TIP3   OH274731   2.722   5.018   3.222 -0.0340 -0.0147 -0.4828
17747TIP3    H174732   2.632   5.008   3.191 -0.7258 -1.9150  2.0051
17747TIP3    H274733   2.754   4.928   3.232  1.9761  0.6323 -0.8393
17748TIP3   OH274734   1.728   6.112  13.027  0.0679 -0.6392  0.1377
17748TIP3    H174735   1.699   6.194  12.989 -0.1431 -0.4807  0.6366
17748TIP3    H274736   1.768   6.064  12.954  0.4505  0.0194 -0.0866
17749TIP3   OH274737   1.145   6.489  15.837  0.4820 -0.0281 -0.4738
17749TIP3    H174738   1.112   6.402  15.862  1.0596 -0.1794 -0.2145
17749TIP3    H274739   1.094   6.514  15.761  1.8835 -1.6034 -1.9704
17750TIP3   OH274740   3.676   5.387  13.998 -0.0929 -0.1852 -0.1189
17750TIP3    H174741   3.707   5.384  13.907  1.5380 -1.9678  0.4599
17750TIP3    H274742   3.711   5.307  14.038  1.4611  1.8562  2.7732
17751TIP3   OH274743   1.069   2.554  15.519  0.0340 -1.0624 -0.4333
17751TIP3    H174744   1.156   2.590  15.534  0.1325 -1.0121 -1.1356
17751TIP3    H274745   1.045   2.583  15.431 -0.6019 -1.2600 -0.3307
17752TIP3   OH274746   1.268   5.563  13.920 -0.8400  0.2637  0.2514
17752TIP3    H174747   1.280   5.617  13.843  0.3812  0.0779  0.2982
17752TIP3    H274748   1.219   5.618  13.981 -0.1419  1.1021  0.0705
17753TIP3   OH274749   2.352   5.849   3.650  0.3194  0.1889 -0.6425
17753TIP3    H174750   2.403   5.812   3.722  0.6748  0.1908 -0.8942
17753TIP3    H274751   2.262   5.824   3.669  0.2883  1.0060  0.3098
17754TIP3   OH274752   1.229   4.860   3.583 -0.3650  0.0596  0.1256
17754TIP3    H174753   1.292   4.788   3.577  0.5489  0.5673  2.9335
17754TIP3    H274754   1.144   4.817   3.591 -0.0565 -0.6656 -0.4200
17755TIP3   OH274755   0.781   5.016   4.092 -0.2992  0.0120 -0.5630
17755TIP3    H174756   0.757   5.089   4.036  1.5689  1.1486  0.0609
17755TIP3    H274757   0.702   4.997   4.143 -0.6943  1.8468 -0.4616
17756TIP3   OH274758   5.622   4.002  17.180 -0.1872  0.5611  0.0775
17756TIP3    H174759   5.587   4.041  17.099 -0.9841 -0.1473  0.0743
17756TIP3    H274760   5.683   3.935  17.150  1.3434  1.9256  0.0834
17757TIP3   OH274761   5.712   1.652  11.077  0.2066 -0.0459 -0.1888
17757TIP3    H174762   5.686   1.741  11.056  2.2098  0.4015 -0.8918
17757TIP3    H274763   5.657   1.597  11.021 -2.9147  0.5503  2.1131
17758TIP3   OH274764   3.722   1.248  10.826  0.4966 -0.2886 -0.1268
17758TIP3    H174765   3.709   1.337  10.859  1.1458  0.2282 -1.2697
17758TIP3    H274766   3.637   1.205  10.840 -0.1747  0.8428 -0.6305
17759TIP3   OH274767   1.583   5.506  14.307 -0.1242  0.2185  0.4307
17759TIP3    H174768   1.577   5.518  14.212  2.0775 -1.2888  0.0512
17759TIP3    H274769   1.553   5.589  14.344 -1.1244  0.7873 -1.5768
17760TIP3   OH274770   2.644   0.965   1.315  0.3658 -0.1613  0.3345
17760TIP3    H174771   2.722   0.978   1.369  0.4151  0.6306  0.0795
17760TIP3    H274772   2.595   1.047   1.324 -0.1914 -0.4681  0.0986
17761TIP3   OH274773   1.864   4.298   4.446  0.8461  0.2003 -0.3843
17761TIP3    H174774   1.780   4.270   4.482  0.7900  1.8337  0.7956
17761TIP3    H274775   1.886   4.230   4.382  0.5856 -2.4260  2.1781
17762TIP3   OH274776   6.778   0.779  16.572  0.6667  0.4927 -0.0462
17762TIP3    H174777   6.864   0.742  16.554  0.8556  0.6673  0.5141
17762TIP3    H274778   6.718   0.725  16.519  0.9790 -0.3827  0.4787
17763TIP3   OH274779   1.872   6.698   0.101  0.3190 -0.3531  0.6309
17763TIP3    H174780   1.963   6.680   0.077  0.3539  0.8277 -0.2082
17763TIP3    H274781   1.839   6.754   0.030 -0.3851  1.0566  2.0179
17764TIP3   OH274782   6.038   5.707  10.742  0.7610 -0.4806 -0.1213
17764TIP3    H174783   6.042   5.796  10.778 -0.6059 -0.3720 -0.2352
17764TIP3    H274784   6.063   5.717  10.650 -0.7343 -0.0037 -0.4859
17765TIP3   OH274785   2.670   6.251   1.817 -0.4406  0.4336  0.1270
17765TIP3    H174786   2.614   6.274   1.892 -0.1312  0.2134  0.4254
17765TIP3    H274787   2.734   6.189   1.853 -1.7863 -1.5709 -0.8378
17766TIP3   OH274788   1.502   1.345   0.487  0.1810 -0.2892  0.6217
17766TIP3    H174789   1.592   1.348   0.454  0.1619 -0.2298  0.5743
17766TIP3    H274790   1.448   1.345   0.408  0.1364 -0.2171  0.6526
17767TIP3   OH274791   5.596   0.963   4.252  0.1370  1.2096 -0.6797
17767TIP3    H174792   5.521   1.020   4.239 -1.3321 -0.5914 -0.3143
17767TIP3    H274793   5.567   0.877   4.219  2.7590  0.9720 -2.5623
17768TIP3   OH274794   1.508   3.250  16.902  0.1386  0.0002 -0.5596
17768TIP3    H174795   1.490   3.215  16.815  0.9943 -0.6919 -0.4607
17768TIP3    H274796   1.573   3.319  16.887  0.4260 -0.2462 -0.4478
17769TIP3   OH274797   2.056   0.779  16.289  0.5673  0.2337  0.0307
17769TIP3    H174798   2.026   0.870  16.284 -0.9227 -0.2020  0.8216
17769TIP3    H274799   2.034   0.741  16.204  0.3855  0.3542  0.0262
17770TIP3   OH274800   1.626   1.392  11.100  0.5016 -0.5843 -0.7844
17770TIP3    H174801   1.701   1.431  11.057 -0.8013 -0.1282 -2.7192
17770TIP3    H274802   1.609   1.312  11.050  0.1674 -1.0794  0.1137
17771TIP3   OH274803   3.080   1.233   2.789  0.2645  0.1524  0.0946
17771TIP3    H174804   3.132   1.155   2.805 -1.5660 -0.9963  0.6424
17771TIP3    H274805   3.076   1.277   2.874 -1.6339 -1.0460  0.6758
17772TIP3   OH274806   0.357   1.373  16.280 -0.3625 -0.1816 -0.6979
17772TIP3    H174807   0.359   1.350  16.188 -1.6148  0.9810 -1.0414
17772TIP3    H274808   0.355   1.469  16.280  0.0904 -0.1653  0.5445
17773TIP3   OH274809   4.890   4.339  11.968  0.3032  0.1301  0.3545
17773TIP3    H174810   4.827   4.398  12.010 -1.0329  0.3295 -1.8476
17773TIP3    H274811   4.836   4.267  11.935  1.1838  0.4313 -1.8044
17774TIP3   OH274812   6.795   3.569  17.028 -0.0530  0.0794 -0.1061
17774TIP3    H174813   6.863   3.581  17.093  0.7869 -0.7505 -0.8102
17774TIP3    H274814   6.808   3.479  16.996 -0.6963  0.3373 -1.1182
17775TIP3   OH274815   5.193   4.386  16.594  0.2656  0.3233 -0.7012
17775TIP3    H174816   5.272   4.365  16.545  0.9395  0.7428  0.1977
17775TIP3    H274817   5.138   4.434  16.532  0.3581 -0.6763 -1.5785
17776TIP3   OH274818   6.004   1.654   5.036 -0.4700  0.2226 -0.4102
17776TIP3    H174819   6.015   1.637   4.943 -0.1169  3.1506 -0.9409
17776TIP3    H274820   5.941   1.726   5.040  0.3943  0.8986  1.5535
17777TIP3   OH274821   0.697   1.431  15.208 -0.1765 -0.9081  0.0110
17777TIP3    H174822   0.695   1.366  15.278  0.5863 -3.3861 -2.1943
17777TIP3    H274823   0.607   1.464  15.203 -0.3584 -1.1002  1.7572
17778TIP3   OH274824   0.602   6.319   0.095  0.1910 -0.2455  0.1546
17778TIP3    H174825   0.653   6.397   0.116  1.4621 -0.8680 -0.5904
17778TIP3    H274826   0.615   6.261   0.170 -1.2508  0.4906  0.9903
17779TIP3   OH274827   6.251   4.543  13.221  0.5828  0.7548 -0.7677
17779TIP3    H174828   6.162   4.571  13.238  0.5198  1.5488 -2.2509
17779TIP3    H274829   6.305   4.618  13.246  0.9844 -0.2646  1.5467
17780TIP3   OH274830   5.986   2.897  16.281 -0.2751  0.2691 -0.0409
17780TIP3    H174831   5.992   2.983  16.240  1.9778  0.2690  0.2175
17780TIP3    H274832   6.067   2.890  16.332 -0.0656 -2.3065 -0.6808
17781TIP3   OH274833   2.679   2.227  13.717  0.0643 -0.0684  0.0144
17781TIP3    H174834   2.592   2.221  13.679  0.0171  0.2651  0.0714
17781TIP3    H274835   2.720   2.301  13.673 -0.0884  0.4954  0.8099
17782TIP3   OH274836   4.037   4.847  12.352  0.3617 -0.2331  0.1941
17782TIP3    H174837   4.033   4.924  12.295  0.1718 -1.3113 -1.2879
17782TIP3    H274838   3.964   4.859  12.413  0.0212  0.5078 -0.3539
17783TIP3   OH274839   0.062   5.380  16.937 -0.0593  0.5974  0.1810
17783TIP3    H174840  -0.002   5.367  17.007 -0.8566 -0.8387 -0.7968
17783TIP3    H274841   0.096   5.292  16.919  0.2794  0.9798 -1.1049
17784TIP3   OH274842   5.669   5.143  13.040  0.1328  0.3412 -0.2312
17784TIP3    H174843   5.668   5.239  13.040 -1.4926  0.3535 -0.8505
17784TIP3    H274844   5.747   5.119  13.089  1.0277  1.9877 -0.8209
17785TIP3   OH274845   3.567   3.051   5.765  0.3304 -0.1680  0.0736
17785TIP3    H174846   3.558   3.132   5.714  1.1489  0.7150  1.3051
17785TIP3    H274847   3.480   3.039   5.804  0.1767  0.0669 -0.1893
17786TIP3   OH274848   2.696   3.615  16.075 -0.6993 -0.0994 -1.0272
17786TIP3    H174849   2.675   3.526  16.102 -0.0121  0.1315  0.3019
17786TIP3    H274850   2.718   3.608  15.982 -0.0723 -1.3990 -0.7796
17787TIP3   OH274851   3.089   0.458   5.499  0.0221  0.3728 -0.2393
17787TIP3    H174852   3.138   0.410   5.433 -0.9454 -0.5273 -0.3090
17787TIP3    H274853   3.123   0.425   5.582 -1.3604 -1.2150 -0.2770
17788TIP3   OH274854   5.857   2.152   1.489  0.3771 -0.1164  0.1037
17788TIP3    H174855   5.782   2.175   1.544  0.3938 -0.5126  0.2935
17788TIP3    H274856   5.853   2.057   1.482 -0.5563  0.0483 -1.9217
17789TIP3   OH274857   5.317   1.879  17.000  0.4545  0.2346 -0.5615
17789TIP3    H174858   5.359   1.953  16.956 -0.7212  1.8940  1.0149
17789TIP3    H274859   5.229   1.910  17.021 -0.8580 -2.4196 -1.8419
17790TIP3   OH274860   6.106   5.070   2.984  0.4014 -0.1693  0.4185
17790TIP3    H174861   6.056   5.018   2.920  0.1641  0.8253 -0.2224
17790TIP3    H274862   6.050   5.073   3.061  0.1788 -0.4114  0.2680
17791TIP3   OH274863   4.277   1.378   1.779 -0.0221 -0.3338 -0.0945
17791TIP3    H174864   4.213   1.309   1.792  0.3196 -0.4767  0.8803
17791TIP3    H274865   4.335   1.344   1.710 -1.0285 -0.1585 -1.0491
17792TIP3   OH274866   4.774   4.195   1.909 -0.4103  0.0637 -0.2332
17792TIP3    H174867   4.869   4.207   1.901 -0.4494  1.9633  1.7556
17792TIP3    H274868   4.743   4.192   1.819  1.7208 -2.3278 -0.9436
17793TIP3   OH274869   5.796   1.532  13.476 -0.2771 -0.2777 -0.1317
17793TIP3    H174870   5.808   1.566  13.565  1.8638 -0.8922 -0.1716
17793TIP3    H274871   5.719   1.579  13.443 -1.0438  0.0291  2.0027
17794TIP3   OH274872   0.521   4.169  10.789  0.0049  0.1044  0.1404
17794TIP3    H174873   0.616   4.167  10.802 -0.2612 -0.5146  2.0596
17794TIP3    H274874   0.485   4.187  10.875 -1.6166  0.9219 -0.6864
17795TIP3   OH274875   2.368   3.044   1.304 -0.3608 -0.5988  0.7148
17795TIP3    H174876   2.432   3.108   1.272 -0.1122 -0.9881  0.4319
17795TIP3    H274877   2.288   3.095   1.318 -0.3143 -0.3278 -0.0046
17796TIP3   OH274878   5.109   5.187  14.820  0.1001  0.1763  0.2021
17796TIP3    H174879   5.155   5.227  14.894  0.4401  0.7393 -0.3075
17796TIP3    H274880   5.178   5.148  14.767 -0.1403 -0.2060  0.1681
17797TIP3   OH274881   5.653   1.833  15.541 -0.5500 -0.1539 -0.6817
17797TIP3    H174882   5.668   1.917  15.584 -1.8942  0.0138 -0.5138
17797TIP3    H274883   5.568   1.842  15.499 -1.3207 -1.8659  0.4341
17798TIP3   OH274884   4.378   0.781  15.562 -0.0177 -0.3317  0.2537
17798TIP3    H174885   4.381   0.830  15.644  1.0645 -0.0610  0.0580
17798TIP3    H274886   4.461   0.734  15.560  0.2920  0.2606 -1.0534
17799TIP3   OH274887   4.016   6.487  11.805 -0.3187  0.0851 -0.3259
17799TIP3    H174888   3.953   6.534  11.860 -0.6288  0.2947 -0.8489
17799TIP3    H274889   3.962   6.425  11.755 -0.1598  0.5238 -1.0488
17800TIP3   OH274890   2.423   6.062   0.596  0.0207  0.5283  0.2662
17800TIP3    H174891   2.442   6.144   0.551  2.8985  0.3755  1.0797
17800TIP3    H274892   2.397   6.002   0.526 -2.3780  2.1611 -0.3067
17801TIP3   OH274893   2.270   3.659   3.264  0.1013  0.0476  0.0398
17801TIP3    H174894   2.268   3.750   3.294 -2.6560  0.0658 -0.0476
17801TIP3    H274895   2.181   3.628   3.277  0.7805 -2.3725 -0.8206
17802TIP3   OH274896   1.722   1.682  11.807 -0.0175 -0.4880 -0.6992
17802TIP3    H174897   1.701   1.618  11.875  2.2311 -1.3952 -0.8203
17802TIP3    H274898   1.638   1.700  11.765 -1.3008 -0.6035  1.6869
17803TIP3   OH274899   4.881   1.274  12.428 -0.8773  0.0487 -0.2930
17803TIP3    H174900   4.863   1.316  12.344 -1.6347 -0.7918 -0.5703
17803TIP3    H274901   4.839   1.188  12.421 -2.1844  0.5026  1.4679
17804TIP3   OH274902   2.497   4.911   4.215 -0.4350 -0.3752 -0.4376
17804TIP3    H174903   2.459   4.984   4.165 -0.3145  0.0098  0.0303
17804TIP3    H274904   2.493   4.837   4.155 -0.2586  0.0921 -1.0377
17805TIP3   OH274905   3.618   5.484  16.547 -0.1106  0.8064  0.4509
17805TIP3    H174906   3.626   5.394  16.514  0.9842  1.0714 -0.0327
17805TIP3    H274907   3.542   5.519  16.500 -0.4536  0.1835  0.5306
17806TIP3   OH274908   0.943   2.704  13.939 -0.4525 -0.2907  0.5061
17806TIP3    H174909   0.929   2.755  13.859 -0.3180 -0.6010  0.2813
17806TIP3    H274910   0.909   2.617  13.918 -0.9307 -0.2161  0.9793
17807TIP3   OH274911   0.142   1.220  16.114  0.5513  0.2149 -0.6820
17807TIP3    H174912   0.092   1.175  16.046  0.1375 -0.9810  0.3991
17807TIP3    H274913   0.108   1.310  16.113  1.8641  0.7552 -3.3268
17808TIP3   OH274914   5.033   4.402  12.890  0.5742  0.1832  0.1098
17808TIP3    H174915   4.988   4.326  12.927 -1.8258  2.5436  2.3042
17808TIP3    H274916   4.963   4.455  12.853  1.6232  3.2549  2.3147
17809TIP3   OH274917   0.251   5.918  13.579  0.2499 -0.1292  0.3713
17809TIP3    H174918   0.219   5.926  13.668 -0.8574  0.4436 -0.0776
17809TIP3    H274919   0.182   5.871  13.532  1.4465 -1.7294  0.1386
17810TIP3   OH274920   3.506   5.265  11.183  0.6627  0.0378  0.2517
17810TIP3    H174921   3.568   5.202  11.220  0.7533 -0.1351 -0.1949
17810TIP3    H274922   3.424   5.247  11.228  0.4628 -0.9999 -0.5152
17811TIP3   OH274923   4.533   4.006  13.061 -0.7185 -0.1269  0.4413
17811TIP3    H174924   4.506   4.087  13.016  0.8197  0.7189  1.0095
17811TIP3    H274925   4.547   4.032  13.152 -0.7471 -1.1571  0.7488
17812TIP3   OH274926   3.910   0.426  15.071 -0.0619 -0.1227  0.3397
17812TIP3    H174927   3.822   0.394  15.088 -0.4460  0.3112 -0.7574
17812TIP3    H274928   3.899   0.520  15.057  0.7040  0.0869  1.0951
17813TIP3   OH274929   2.251   3.039   5.509  0.3390  0.0726 -0.0225
17813TIP3    H174930   2.218   3.108   5.566 -1.8430 -0.3895 -0.6635
17813TIP3    H274931   2.265   2.964   5.567  0.8925  0.4691  0.3611
17814TIP3   OH274932   2.100   2.063   0.380  0.2451 -0.3745  0.0349
17814TIP3    H174933   2.041   2.122   0.333 -1.2441 -0.1068  2.1677
17814TIP3    H274934   2.052   1.980   0.384  0.8274 -0.7045  0.1411
17815TIP3   OH274935   4.513   1.569   3.889 -0.2513 -0.0837 -0.2079
17815TIP3    H174936   4.586   1.508   3.901 -0.3654 -0.2114 -0.1650
17815TIP3    H274937   4.549   1.654   3.915 -0.9192 -0.5819  2.4951
17816TIP3   OH274938   0.990   1.522   5.389  0.2575 -0.0529 -0.3338
17816TIP3    H174939   0.933   1.580   5.440 -0.1824 -2.8096  2.4506
17816TIP3    H274940   0.944   1.511   5.306 -1.8753  0.0414  0.7987
17817TIP3   OH274941   5.959   3.589  17.213 -0.5452 -0.2451 -0.2556
17817TIP3    H174942   5.909   3.618  17.136  1.1078 -0.5225 -1.4722
17817TIP3    H274943   5.998   3.668  17.248 -0.6019 -0.2347 -0.2166
17818TIP3   OH274944   5.630   0.823   3.008  0.2785 -0.9241 -0.2742
17818TIP3    H174945   5.536   0.834   2.993  0.6437  0.9402 -1.3361
17818TIP3    H274946   5.660   0.769   2.936  0.2669 -0.3620 -0.6997
17819TIP3   OH274947   2.219   1.157   2.032  0.1376 -0.2974  0.5218
17819TIP3    H174948   2.214   1.161   2.128 -1.7477  1.1656  0.3881
17819TIP3    H274949   2.292   1.098   2.014 -0.3193 -1.6230  2.8670
17820TIP3   OH274950   3.114   5.209   0.524 -0.4308  0.2059 -0.3800
17820TIP3    H174951   3.089   5.302   0.520 -1.6957 -0.1102 -0.0430
17820TIP3    H274952   3.164   5.201   0.605 -0.3363  0.5863 -0.3970
17821TIP3   OH274953   2.379   1.528  16.837  0.5417  0.1870  0.0480
17821TIP3    H174954   2.413   1.609  16.799 -1.2608  0.7897 -0.3101
17821TIP3    H274955   2.420   1.459  16.785  1.4523  0.8891 -0.1753
17822TIP3   OH274956   3.907   2.540   2.286  0.4968 -0.2734  0.1943
17822TIP3    H174957   3.979   2.499   2.238  1.0343 -0.4932  1.1832
17822TIP3    H274958   3.829   2.489   2.260  1.1648 -2.0075  1.4734
17823TIP3   OH274959   0.232   0.957  11.051  0.0077  0.4698 -0.1779
17823TIP3    H174960   0.223   0.865  11.025 -0.2125  0.6980 -0.9393
17823TIP3    H274961   0.322   0.965  11.080 -0.4157 -0.3592  1.4090
17824TIP3   OH274962   5.781   2.993   4.014 -0.5852  0.0120  0.4392
17824TIP3    H174963   5.839   3.044   3.958  1.5504 -2.7915 -0.0475
17824TIP3    H274964   5.711   2.963   3.955 -0.2551 -0.0304  0.0663
17825TIP3   OH274965   3.843   4.435   6.146  0.0626 -0.1453  0.3296
17825TIP3    H174966   3.888   4.518   6.132 -1.4735  0.4332 -1.3475
17825TIP3    H274967   3.821   4.405   6.057 -1.6489 -1.0830  1.0567
17826TIP3   OH274968   2.409   4.193  12.776  0.6391  0.1500 -0.0212
17826TIP3    H174969   2.426   4.181  12.869 -0.5619 -0.6089  0.1117
17826TIP3    H274970   2.493   4.220  12.739  0.7846  1.9334  1.5288
17827TIP3   OH274971   0.440   2.913  11.061 -0.7756 -0.0758  0.7886
17827TIP3    H174972   0.438   2.819  11.040 -0.2668  0.0906 -0.0185
17827TIP3    H274973   0.362   2.949  11.019 -1.4693 -0.2882  1.8699
17828TIP3   OH274974   1.624   2.869  12.481 -0.8888  0.2823  0.1680
17828TIP3    H174975   1.568   2.939  12.515 -0.5801  0.1859  0.8756
17828TIP3    H274976   1.567   2.821  12.421 -1.0111  1.3123 -0.5426
17829TIP3   OH274977   3.264   4.985  17.189 -0.3110  0.7614 -0.2676
17829TIP3    H174978   3.200   5.051  17.162  0.6465  0.6869 -2.9284
17829TIP3    H274979   3.238   4.906  17.141  0.5411  0.1552  0.2604
17830TIP3   OH274980   2.360   0.750  14.246  0.3750  0.2862  0.5470
17830TIP3    H174981   2.360   0.656  14.266  0.1994  0.3045  0.6403
17830TIP3    H274982   2.451   0.777  14.255  1.0192 -0.5417 -2.6852
17831TIP3   OH274983   0.268   5.456   2.389 -0.3945  0.1846 -0.2752
17831TIP3    H174984   0.253   5.549   2.403 -0.5942  0.1400 -0.1820
17831TIP3    H274985   0.185   5.415   2.415 -0.3437 -0.0076 -0.4200
17832TIP3   OH274986   2.856   4.578  12.095 -0.2349  0.1681  0.1624
17832TIP3    H174987   2.797   4.632  12.147 -0.7965  0.3008 -0.6085
17832TIP3    H274988   2.873   4.631  12.017 -1.2216 -0.9969 -0.8580
17833TIP3   OH274989   1.882   5.696   6.514  0.8825 -0.2999  0.4655
17833TIP3    H174990   1.943   5.661   6.449 -1.0890  0.7113 -1.9485
17833TIP3    H274991   1.884   5.791   6.501  1.4024  0.0431  2.7571
17834TIP3   OH274992   3.229   0.174   2.136  0.1266 -0.2220 -0.1140
17834TIP3    H174993   3.150   0.228   2.140  0.2168 -0.1583  0.9622
17834TIP3    H274994   3.294   0.222   2.188  0.9522 -0.1497 -1.1956
17835TIP3   OH274995   6.570   6.012  12.832  0.1027 -1.2432  0.2140
17835TIP3    H174996   6.662   6.036  12.841  0.1887 -1.9282  1.2214
17835TIP3    H274997   6.560   5.933  12.885 -0.9926 -1.3629 -0.1499
17836TIP3   OH274998   2.800   2.172   4.484  0.3963 -0.0894  0.7856
17836TIP3    H174999   2.794   2.169   4.388 -0.2190  1.0443  0.7801
17836TIP3    H275000   2.797   2.266   4.505 -0.1013 -0.3664  1.9560
17837TIP3   OH275001   5.760   4.279   1.106 -0.5688  0.6034 -0.2634
17837TIP3    H175002   5.767   4.374   1.114  1.0142  0.4647  0.1980
17837TIP3    H275003   5.763   4.247   1.197 -1.5541  0.1427 -0.3898
17838TIP3   OH275004   1.803   3.053   0.493 -0.1337  0.4468 -0.0440
17838TIP3    H175005   1.867   3.015   0.554 -1.5905  0.6541  1.6370
17838TIP3    H275006   1.786   2.982   0.431  0.0689 -0.3649  0.8067
17839TIP3   OH275007   3.252   2.584  12.943 -0.3752  0.0907 -0.1429
17839TIP3    H175008   3.297   2.659  12.982  0.3278 -1.5207  2.2674
17839TIP3    H275009   3.210   2.619  12.865 -2.0121  3.5360  2.1673
17840TIP3   OH275010   2.721   0.987   0.258 -0.3532  0.4605 -0.0773
17840TIP3    H175011   2.793   1.025   0.208 -1.0509 -0.0551 -1.4956
17840TIP3    H275012   2.702   0.905   0.214 -0.1764 -0.6140  1.7814
17841TIP3   OH275013   4.837   2.551   3.583  0.3480 -0.2245 -0.1471
17841TIP3    H175014   4.857   2.461   3.607  0.9113 -0.2335 -0.6208
17841TIP3    H275015   4.848   2.552   3.487 -0.4872  0.1361 -0.2403
17842TIP3   OH275016   4.063   6.705   4.804  0.3547  0.1479  0.2107
17842TIP3    H175017   4.025   6.617   4.801 -1.1682  0.8171 -1.1837
17842TIP3    H275018   4.029   6.743   4.885  1.9936 -0.9317  1.4509
17843TIP3   OH275019   5.367   3.200  17.094 -0.6098 -0.0188 -0.0195
17843TIP3    H175020   5.302   3.152  17.043  1.7998 -0.2323 -3.0764
17843TIP3    H275021   5.354   3.292  17.069  0.6177 -0.1309 -1.1371
17844TIP3   OH275022   2.286   1.392   5.163 -0.4352  0.3149  0.2088
17844TIP3    H175023   2.329   1.309   5.143 -0.1222  0.4519  0.3156
17844TIP3    H275024   2.315   1.414   5.251  0.2075  0.9960 -0.1644
17845TIP3   OH275025   4.460   2.853   2.210  0.5127  0.2829 -0.1903
17845TIP3    H175026   4.372   2.880   2.239  1.2345 -0.2467  2.7072
17845TIP3    H275027   4.467   2.884   2.120 -1.7561  2.4354  0.3353
17846TIP3   OH275028   1.390   3.544   1.830 -0.3126 -0.6949 -0.4729
17846TIP3    H175029   1.397   3.524   1.737 -0.3522 -2.3150 -0.1514
17846TIP3    H275030   1.297   3.562   1.844  0.0930  2.0972 -1.2105
17847TIP3   OH275031   3.629   1.722   3.230 -0.3456 -0.5742 -0.1277
17847TIP3    H175032   3.667   1.788   3.172  0.9736 -0.6011  0.6879
17847TIP3    H275033   3.618   1.645   3.175  2.5507 -1.1513  0.0678
17848TIP3   OH275034   0.750   1.349  15.611  0.4923  0.0439 -0.0401
17848TIP3    H175035   0.750   1.333  15.705  2.9006 -1.6166 -0.2961
17848TIP3    H275036   0.826   1.405  15.596 -0.9384  1.8417 -0.7848
17849TIP3   OH275037   0.620   1.824   6.059  0.4151 -0.4393 -0.9694
17849TIP3    H175038   0.527   1.802   6.068  0.1678 -0.1842 -2.7317
17849TIP3    H275039   0.638   1.883   6.132 -0.8107 -0.4953 -0.6173
17850TIP3   OH275040   1.572   4.433   4.828  0.2977  0.4328  0.1831
17850TIP3    H175041   1.578   4.414   4.921 -0.6450  0.3418  0.2250
17850TIP3    H275042   1.638   4.502   4.813 -0.5237  1.4528  1.1751
17851TIP3   OH275043   2.455   6.528  11.998 -0.4464 -0.4580 -0.1952
17851TIP3    H175044   2.510   6.496  12.069 -0.3144 -0.3275 -0.2393
17851TIP3    H275045   2.400   6.596  12.037  0.5944  0.5928 -0.5251
17852TIP3   OH275046   5.620   5.986   3.312 -0.1689  0.0441  0.0650
17852TIP3    H175047   5.553   6.053   3.323  0.1852  0.5360 -0.6931
17852TIP3    H275048   5.702   6.030   3.337 -0.0160 -0.2917  0.1587
17853TIP3   OH275049   0.234   2.872   6.567  0.2097 -0.5995 -0.2639
17853TIP3    H175050   0.237   2.797   6.627 -0.4196 -0.4970 -0.1044
17853TIP3    H275051   0.313   2.923   6.588 -0.3551 -0.2066  0.9481
17854TIP3   OH275052   1.045   2.482   2.290 -0.1998 -0.0299 -0.3036
17854TIP3    H175053   1.083   2.566   2.317 -2.0194  0.9793 -0.7862
17854TIP3    H275054   0.956   2.483   2.325 -1.1027 -0.6387 -2.4677
17855TIP3   OH275055   0.070   1.769  13.783  0.4769  0.2146 -0.0730
17855TIP3    H175056  -0.023   1.765  13.759  0.6120  1.2473 -0.7906
17855TIP3    H275057   0.070   1.790  13.876 -0.0278 -1.5740  0.3494
17856TIP3   OH275058   5.269   3.545  11.038  0.2308  0.1781  0.6344
17856TIP3    H175059   5.309   3.483  10.978  1.2637  0.3151  1.1667
17856TIP3    H275060   5.176   3.521  11.039  0.2723 -0.0671 -0.7018
17857TIP3   OH275061   6.036   6.180   5.265  0.7437  0.6127  0.1658
17857TIP3    H175062   6.094   6.240   5.217  2.9576 -1.0127  0.7308
17857TIP3    H275063   6.088   6.100   5.276 -1.2518 -0.5246  1.6033
17858TIP3   OH275064   5.214   3.625   4.014 -0.2334  0.1668 -0.5727
17858TIP3    H175065   5.265   3.544   4.007  0.5013  0.4661  1.2606
17858TIP3    H275066   5.277   3.694   3.997 -1.1117  0.3407 -3.3566
17859TIP3   OH275067   6.724   1.304  14.722  0.2901  0.1401  0.3295
17859TIP3    H175068   6.643   1.254  14.735  0.2380  0.4124  1.1167
17859TIP3    H275069   6.726   1.323  14.629 -0.0924 -0.6533  0.1560
17860TIP3   OH275070   5.691   5.282   4.084 -0.2473  0.0607 -0.2713
17860TIP3    H175071   5.712   5.360   4.033 -0.5669  0.6780  0.5285
17860TIP3    H275072   5.633   5.231   4.027  2.6184 -1.2314 -2.1454
17861TIP3   OH275073   5.950   5.426   0.090  0.1176  0.2131 -0.0273
17861TIP3    H175074   5.866   5.393   0.122  1.0866 -1.3676  0.9876
17861TIP3    H275075   6.004   5.436   0.169  0.6396  1.9651 -0.5867
17862TIP3   OH275076   1.406   4.895  10.978 -0.4390 -0.3029  0.4237
17862TIP3    H175077   1.325   4.845  10.976 -0.2680 -0.5400 -2.0569
17862TIP3    H275078   1.401   4.952  10.901  0.5213  1.6705  1.7585
17863TIP3   OH275079   1.916   4.554   0.120 -0.1244  0.5004 -0.1744
17863TIP3    H175080   1.853   4.612   0.162  0.8375  1.4524 -0.0365
17863TIP3    H275081   1.890   4.466   0.148  0.4204  1.0999  2.3287
17864TIP3   OH275082   1.079   4.169   0.266  0.2375 -0.8004 -0.3585
17864TIP3    H175083   1.028   4.143   0.342 -1.6676 -1.0305 -1.6684
17864TIP3    H275084   1.152   4.107   0.262 -0.0792 -1.2449  0.8169
17865TIP3   OH275085   1.733   5.366  11.204  0.0976 -0.1058  0.0761
17865TIP3    H175086   1.731   5.379  11.109  2.4264 -0.5828 -0.0701
17865TIP3    H275087   1.774   5.446  11.238 -4.0253  1.7359  1.0879
17866TIP3   OH275088   3.345   2.518   2.362  0.6382 -0.8020 -0.0298
17866TIP3    H175089   3.343   2.588   2.428 -1.9625 -1.5409  0.7457
17866TIP3    H275090   3.436   2.488   2.361  1.3088  1.1142  1.2099
17867TIP3   OH275091   6.428   0.258  13.697  0.5216 -0.2494  0.1866
17867TIP3    H175092   6.420   0.344  13.738 -0.1695 -0.7069  1.0165
17867TIP3    H275093   6.373   0.264  13.619  1.3884  0.4333 -0.3862
17868TIP3   OH275094   5.019   3.543   3.209  0.2169 -0.1857  0.3049
17868TIP3    H175095   5.006   3.468   3.151  0.0167  0.0647  0.0245
17868TIP3    H275096   5.053   3.505   3.290  0.7864 -0.5042 -0.0819
17869TIP3   OH275097   0.532   0.985  16.201 -0.0750  0.3350 -0.2438
17869TIP3    H175098   0.508   1.031  16.282 -0.6409  1.9900 -1.3239
17869TIP3    H275099   0.449   0.957  16.163  0.1248  0.3727 -0.7176
17870TIP3   OH275100   2.592   3.966   6.170 -0.3146 -0.1380 -0.3523
17870TIP3    H175101   2.601   3.891   6.230  0.1229 -0.9513 -1.4144
17870TIP3    H275102   2.641   4.036   6.212  1.3036 -1.1505 -0.4842
17871TIP3   OH275103   5.433   4.385  16.443  0.3086  0.1618  0.3429
17871TIP3    H175104   5.490   4.428  16.506  1.4253  1.3749 -1.4262
17871TIP3    H275105   5.487   4.316  16.404  0.1622  0.4444 -0.3823
17872TIP3   OH275106   2.243   6.657  14.054  0.1074 -0.0434 -0.9430
17872TIP3    H175107   2.150   6.657  14.073 -0.1952  0.5199 -2.3224
17872TIP3    H275108   2.279   6.588  14.108 -1.0160  0.1368  0.0486
17873TIP3   OH275109   6.250   2.019  11.155  0.7532  0.2597 -0.2236
17873TIP3    H175110   6.231   1.991  11.244  2.7961  0.1988  0.2170
17873TIP3    H275111   6.279   1.940  11.110  0.9116  0.5293 -0.6004
17874TIP3   OH275112   0.121   0.410   4.098  0.2405  0.4126 -0.5436
17874TIP3    H175113   0.203   0.451   4.125 -0.7051  2.3570 -0.5214
17874TIP3    H275114   0.061   0.423   4.172 -0.3178 -0.3565 -0.8454
17875TIP3   OH275115   0.905   4.803  16.757 -0.5778  0.2712 -0.9322
17875TIP3    H175116   0.910   4.724  16.703  1.4469  1.3311 -2.4051
17875TIP3    H275117   0.895   4.874  16.693  1.8599  1.5575  0.0576
17876TIP3   OH275118   1.708   6.261   6.054 -0.3089  0.0747 -0.4930
17876TIP3    H175119   1.773   6.291   6.117 -0.2497 -1.8911  0.4170
17876TIP3    H275120   1.687   6.339   6.003  0.9513  1.2955  0.7899
17877TIP3   OH275121   0.313   1.862   7.076  0.4923 -0.1013  0.4408
17877TIP3    H175122   0.397   1.828   7.047 -0.4229 -1.1746 -1.0186
17877TIP3    H275123   0.254   1.787   7.074 -0.2930  0.4301  2.3580
17878TIP3   OH275124   2.323   5.347   6.463 -0.2790  0.2142 -0.2752
17878TIP3    H175125   2.277   5.311   6.538 -0.0434  1.2244  0.3693
17878TIP3    H275126   2.397   5.395   6.501 -0.1817  0.7723 -1.1458
17879TIP3   OH275127   6.314   2.681   1.860 -0.2626  0.1753 -0.0439
17879TIP3    H175128   6.383   2.742   1.887 -0.3701  0.0782  0.4597
17879TIP3    H275129   6.281   2.716   1.777  0.0945  0.4616 -0.0650
17880TIP3   OH275130   2.576   2.341   5.574  0.7697 -0.1896  0.3754
17880TIP3    H175131   2.586   2.425   5.529  1.9531  0.1047  1.1584
17880TIP3    H275132   2.491   2.308   5.546  0.6607  0.8887 -0.5772
17881TIP3   OH275133   5.921   0.853  14.985  0.1332  0.1653 -0.6100
17881TIP3    H175134   5.921   0.806  14.902  2.0288 -1.0004  0.0435
17881TIP3    H275135   5.852   0.811  15.036 -0.1187 -0.0032 -1.0827
17882TIP3   OH275136   5.656   2.648   2.106 -0.5163 -0.3443  0.3284
17882TIP3    H175137   5.567   2.632   2.135  0.3810 -0.6305  3.0856
17882TIP3    H275138   5.699   2.689   2.182  1.1292  1.7138 -1.6489
17883TIP3   OH275139   1.678   2.971  11.950 -0.4429  0.4227  0.1512
17883TIP3    H175140   1.731   2.942  11.876  0.4456  1.5953  0.3253
17883TIP3    H275141   1.656   3.062  11.931  3.2426  2.1030  3.1963
17884TIP3   OH275142   4.266   5.261   2.692  0.1383  0.7332  0.6245
17884TIP3    H175143   4.303   5.174   2.702  0.1356  0.8266  1.4383
17884TIP3    H275144   4.223   5.279   2.775 -1.9230  0.5369 -0.3633
17885TIP3   OH275145   1.478   1.756  14.510 -0.1386  0.5358 -0.0420
17885TIP3    H175146   1.403   1.753  14.452 -0.2767  2.7214 -0.0140
17885TIP3    H275147   1.452   1.703  14.586  0.3416 -2.9622 -2.2372
17886TIP3   OH275148   0.628   6.487  16.045  0.5893 -1.1452  0.6638
17886TIP3    H175149   0.689   6.540  15.994 -1.2258 -0.7540 -1.1318
17886TIP3    H275150   0.666   6.398  16.043  1.6779 -0.6913  0.5501
17887TIP3   OH275151   5.142   5.336   2.407 -0.0077  0.1086 -0.0655
17887TIP3    H175152   5.063   5.322   2.459 -0.1997  1.5180  0.0497
17887TIP3    H275153   5.118   5.307   2.319 -0.1859 -0.8147  0.2797
17888TIP3   OH275154   4.111   4.855   2.041  0.1457 -0.1297  0.3838
17888TIP3    H175155   4.045   4.923   2.047 -0.3432 -0.6387  0.9790
17888TIP3    H275156   4.108   4.812   2.127  1.3120 -0.0962  0.4473
17889TIP3   OH275157   5.773   2.450  14.816 -0.1272  0.6039 -0.0245
17889TIP3    H175158   5.832   2.460  14.891 -0.2144  1.9531 -0.1158
17889TIP3    H275159   5.747   2.358  14.818  2.1622 -0.0733 -0.1192
17890TIP3   OH275160   2.828   2.992   5.857 -0.2241 -0.0151  0.0779
17890TIP3    H175161   2.785   3.076   5.872 -1.0327 -0.5034  0.5391
17890TIP3    H275162   2.889   3.009   5.786  1.6338  1.6471  2.0022
17891TIP3   OH275163   4.890   1.854   1.303  0.4586  0.4320 -0.3298
17891TIP3    H175164   4.900   1.888   1.392  0.3076 -0.0987 -0.1085
17891TIP3    H275165   4.973   1.809   1.285  0.0296 -0.4979 -0.0036
17892TIP3   OH275166   3.951   4.419   2.425 -0.4555 -0.4414  0.1829
17892TIP3    H175167   3.939   4.344   2.367  0.1171 -1.4038  1.2803
17892TIP3    H275168   3.884   4.482   2.398 -0.6773 -1.1811 -1.0155
17893TIP3   OH275169   4.363   1.240  12.672 -0.5717  0.0637  0.1194
17893TIP3    H175170   4.296   1.287  12.622 -1.3369 -0.8464  0.2829
17893TIP3    H275171   4.321   1.159  12.699  0.9216 -1.0149 -0.6827
17894TIP3   OH275172   3.091   0.051   1.085 -0.1814  0.2121 -0.4475
17894TIP3    H175173   3.025  -0.018   1.089 -0.0035 -0.0828 -2.3720
17894TIP3    H275174   3.068   0.104   1.009  1.4223  0.4954 -0.7682
17895TIP3   OH275175   2.331   2.243  12.883  0.7102 -0.1257 -0.0444
17895TIP3    H175176   2.294   2.331  12.889 -1.4613 -1.0985  1.4909
17895TIP3    H275177   2.379   2.243  12.800 -0.5852  2.0096 -0.8384
17896TIP3   OH275178   4.021   5.272   4.455  0.1083  0.1878 -0.1388
17896TIP3    H175179   4.022   5.333   4.381 -0.5059  0.5901  0.1826
17896TIP3    H275180   3.929   5.262   4.476  0.2765 -0.0290  0.4898
17897TIP3   OH275181   5.009   2.111   4.534  0.2493 -0.0620  0.6528
17897TIP3    H175182   4.929   2.119   4.586  0.3014  0.2178  0.6920
17897TIP3    H275183   5.038   2.201   4.521 -1.4625  0.0872 -2.5596
17898TIP3   OH275184   1.288   2.764  15.757  0.1452 -0.2751 -0.1128
17898TIP3    H175185   1.311   2.700  15.825  2.0957 -2.2377 -2.5355
17898TIP3    H275186   1.193   2.768  15.760  0.1369 -0.9865  2.1340
17899TIP3   OH275187   2.447   1.038   6.154  0.4727  0.4627  0.5261
17899TIP3    H175188   2.473   1.095   6.226  0.9381  1.6958 -0.5942
17899TIP3    H275189   2.530   1.012   6.114  0.3247 -1.9150  1.7042
17900TIP3   OH275190   1.221   0.174   4.333  0.1174 -0.1350 -0.5193
17900TIP3    H175191   1.299   0.218   4.299  0.9004  0.8480  2.3793
17900TIP3    H275192   1.255   0.099   4.381 -0.7931 -0.3984 -0.2734
17901TIP3   OH275193   0.181   1.229   5.916 -0.2739 -0.2186  0.3139
17901TIP3    H175194   0.131   1.147   5.915 -2.2026  0.9378  0.9329
17901TIP3    H275195   0.127   1.291   5.869  1.4525  0.5960 -0.6648
17902TIP3   OH275196   5.995   4.182  11.450  0.0699 -0.4993  0.6437
17902TIP3    H175197   5.944   4.248  11.403  1.8552  0.1935 -0.3728
17902TIP3    H275198   5.994   4.211  11.541  2.0854  1.8007 -0.0183
17903TIP3   OH275199   6.590   1.523   0.485  0.0234 -0.1463 -0.1795
17903TIP3    H175200   6.508   1.475   0.473  0.2229 -0.6426  0.3840
17903TIP3    H275201   6.597   1.535   0.580 -0.1920  1.2978 -0.3406
17904TIP3   OH275202   3.445   6.788  16.729  0.2436 -0.2194  0.4093
17904TIP3    H175203   3.452   6.703  16.773  1.6244  0.0253  0.6917
17904TIP3    H275204   3.443   6.767  16.636  1.0988 -0.5355  0.4599
17905TIP3   OH275205   0.853   1.559  16.402 -0.0469 -0.0167 -0.1519
17905TIP3    H175206   0.809   1.525  16.324 -0.1167  0.1103 -0.1682
17905TIP3    H275207   0.830   1.498  16.472  0.4823 -0.4559 -0.3599
17906TIP3   OH275208   3.305   5.174   3.841  0.0897 -0.7600 -0.6103
17906TIP3    H175209   3.278   5.126   3.763 -0.7088 -2.8798  0.9276
17906TIP3    H275210   3.227   5.176   3.896  0.6967  0.5420  0.2392
17907TIP3   OH275211   3.973   6.375  16.246 -0.2507  0.2862 -0.2692
17907TIP3    H175212   3.892   6.378  16.196 -0.7939 -1.3249  0.4750
17907TIP3    H275213   3.945   6.384  16.337  0.4103 -0.1964 -0.0110
17908TIP3   OH275214   3.492   0.468  11.498  0.3173  0.2074  0.3500
17908TIP3    H175215   3.408   0.505  11.524 -0.0070 -0.2663 -0.0233
17908TIP3    H275216   3.485   0.456  11.403  0.9901  0.6369  0.2416
17909TIP3   OH275217   0.981   6.437  11.538 -0.2270  0.3314 -0.0018
17909TIP3    H175218   1.043   6.454  11.467 -1.5595 -0.2798 -1.3402
17909TIP3    H275219   1.036   6.430  11.616  1.3958 -0.2686 -1.1590
17910TIP3   OH275220   4.009   1.673   4.727  0.3910 -0.2293 -0.3216
17910TIP3    H175221   4.030   1.726   4.650 -1.5096 -0.4951 -1.0459
17910TIP3    H275222   4.035   1.728   4.802 -1.3421  1.6685 -1.0639
17911TIP3   OH275223   5.392   0.569   0.300  0.0899 -0.2282 -0.5463
17911TIP3    H175224   5.314   0.513   0.301 -0.1959  0.1568 -0.9717
17911TIP3    H275225   5.367   0.646   0.351  0.2035 -0.1179 -0.6557
17912TIP3   OH275226   5.353   2.154  16.509 -0.0462  0.7887  0.5842
17912TIP3    H175227   5.416   2.108  16.454 -1.2203  0.2661 -0.3461
17912TIP3    H275228   5.321   2.088  16.570  0.9210  1.2592  1.6263
17913TIP3   OH275229   5.659   1.349  12.273 -0.3366  0.2236  0.1785
17913TIP3    H175230   5.702   1.286  12.216 -0.2441  0.1867  0.2886
17913TIP3    H275231   5.572   1.362  12.234  0.6516  2.1960 -1.4856
17914TIP3   OH275232   6.419   5.033  14.756  0.2646 -0.0046  0.3787
17914TIP3    H175233   6.456   5.060  14.672 -0.1251 -1.1994 -0.1850
17914TIP3    H275234   6.482   5.065  14.821  0.9297  0.2997 -0.4030
17915TIP3   OH275235   0.102   1.328  12.925 -0.4926  0.1321  0.3275
17915TIP3    H175236   0.135   1.239  12.924 -2.4017 -0.5980 -1.2511
17915TIP3    H275237   0.177   1.382  12.952  1.3773 -1.6566 -1.1506
17916TIP3   OH275238   2.355   3.132   0.863 -0.0812 -0.2795 -0.0889
17916TIP3    H175239   2.298   3.069   0.907 -1.6485  1.0954 -0.1053
17916TIP3    H275240   2.427   3.147   0.925 -1.1435  0.0063  1.0944
17917TIP3   OH275241   5.872   0.031   6.299  0.2517  0.0430 -0.1433
17917TIP3    H175242   5.956  -0.014   6.302  0.4564  0.3900 -0.5540
17917TIP3    H275243   5.809  -0.035   6.270  0.2160 -0.4540  1.0359
17918TIP3   OH275244   0.907   0.153  14.566  0.5099 -0.2987  0.0712
17918TIP3    H175245   0.967   0.228  14.570  1.6938 -1.3164  2.0263
17918TIP3    H275246   0.915   0.111  14.652 -2.6558 -0.7499  0.1819
17919TIP3   OH275247   3.981   5.724  12.636  0.0193 -0.6951 -0.2375
17919TIP3    H175248   3.909   5.718  12.573 -0.3032 -0.1354  0.0675
17919TIP3    H275249   4.046   5.778  12.593 -1.1955  1.6828  0.8040
17920TIP3   OH275250   2.035   2.027   2.741 -0.5634  0.7502  0.5023
17920TIP3    H175251   1.977   1.965   2.698 -0.8029  0.1348  1.6992
17920TIP3    H275252   1.990   2.051   2.822  0.0308  1.6338  0.5789
17921TIP3   OH275253   0.838   4.471  13.612 -0.2707  0.1939  0.2579
17921TIP3    H175254   0.889   4.547  13.582 -0.3675  0.1346 -0.0663
17921TIP3    H275255   0.861   4.461  13.704  1.8160 -1.0505 -0.3710
17922TIP3   OH275256   3.576   0.439  16.496 -0.1000 -0.4791 -0.0490
17922TIP3    H175257   3.484   0.462  16.510  0.1020  1.2985 -1.3925
17922TIP3    H275258   3.620   0.524  16.485  1.3099 -1.3817 -1.6135
17923TIP3   OH275259   1.287   1.293   2.141  0.1355 -0.5810 -0.3406
17923TIP3    H175260   1.345   1.326   2.209 -1.3971  0.1503  0.6467
17923TIP3    H275261   1.236   1.370   2.114 -0.5494 -1.2669 -1.0177
17924TIP3   OH275262   4.034   0.440  13.037 -0.8370 -0.4977  0.0348
17924TIP3    H175263   4.000   0.529  13.031 -0.0350 -0.0678  1.6952
17924TIP3    H275264   4.119   0.443  12.993 -0.1941 -0.1049  1.2829
17925TIP3   OH275265   5.712   5.253  12.647 -0.7183 -0.2841 -0.3269
17925TIP3    H175266   5.667   5.175  12.678 -3.7239  1.2686 -0.6867
17925TIP3    H275267   5.736   5.300  12.726  0.7293 -1.3109 -0.1243
17926TIP3   OH275268   3.702   4.739   2.911  0.4897 -0.0687  0.5409
17926TIP3    H175269   3.762   4.715   2.841  0.1377  1.0537 -0.1555
17926TIP3    H275270   3.662   4.657   2.937  1.2061 -0.6097 -0.0273
17927TIP3   OH275271   3.333   4.877   2.461  0.2083 -0.2696 -0.0360
17927TIP3    H175272   3.306   4.820   2.388  3.1345 -0.5092 -1.0009
17927TIP3    H275273   3.364   4.816   2.528  2.7894  0.0720 -0.8405
17928TIP3   OH275274   3.812   0.548  13.854 -0.1522  0.6202 -0.0128
17928TIP3    H175275   3.877   0.501  13.802 -1.5527  1.3805 -2.5109
17928TIP3    H275276   3.821   0.640  13.828 -0.6591  1.0710  1.3261
17929TIP3   OH275277   4.647   6.493  12.850  0.3084  0.1929  0.1430
17929TIP3    H175278   4.682   6.576  12.880 -0.3438  1.0966 -1.5375
17929TIP3    H275279   4.640   6.440  12.929  2.4280  1.0859  0.9807
17930TIP3   OH275280   6.783   5.299  14.718  0.2552 -0.3176 -0.2512
17930TIP3    H175281   6.804   5.233  14.783 -1.8554 -0.7986 -0.0401
17930TIP3    H275282   6.751   5.374  14.768 -1.4108 -0.7034 -0.7078
17931TIP3   OH275283   3.495   3.322  14.042  0.1702 -0.1086  0.3877
17931TIP3    H175284   3.479   3.333  13.948  2.4382 -0.4170 -0.0731
17931TIP3    H275285   3.443   3.246  14.067  0.4462 -0.7199 -0.8733
17932TIP3   OH275286   2.469   4.776   4.712  0.2857 -0.1047  0.1813
17932TIP3    H175287   2.426   4.862   4.717 -0.9728 -0.7386  0.2936
17932TIP3    H275288   2.532   4.786   4.640 -0.3197  0.7156 -0.2510
17933TIP3   OH275289   2.515   1.729   1.098  0.0792 -0.6064 -0.2982
17933TIP3    H175290   2.463   1.708   1.176 -1.2394  1.3311 -0.6209
17933TIP3    H275291   2.483   1.669   1.031  1.1086 -2.1787  0.5940
17934TIP3   OH275292   4.115   1.780   1.835  0.3255  0.0417  0.0047
17934TIP3    H175293   4.138   1.871   1.815  0.6715 -0.1901 -0.6898
17934TIP3    H275294   4.185   1.729   1.795  0.1175 -0.5359  0.3686
17935TIP3   OH275295   5.744   6.335   0.288 -0.1647 -0.3804  0.5366
17935TIP3    H175296   5.821   6.359   0.237 -0.1953 -2.1800 -0.4135
17935TIP3    H275297   5.763   6.366   0.376  0.7086  1.0966 -0.1533
17936TIP3   OH275298   6.675   2.842  17.120  0.5899  0.4331  0.2357
17936TIP3    H175299   6.613   2.904  17.157 -0.5418 -0.8390  0.4928
17936TIP3    H275300   6.746   2.896  17.086  0.0059  1.8061  1.2009
17937TIP3   OH275301   1.913   3.529   0.644  0.0608 -0.5284 -0.3949
17937TIP3    H175302   1.918   3.522   0.739  1.7544 -0.2376 -0.4417
17937TIP3    H275303   1.896   3.622   0.628  1.1469 -0.3342 -0.4151
17938TIP3   OH275304   1.492   0.712  15.197  0.1390  0.4251 -0.2948
17938TIP3    H175305   1.447   0.657  15.133  2.0192 -0.7385 -0.6451
17938TIP3    H275306   1.502   0.797  15.153 -2.3776  0.9486  0.0829
17939TIP3   OH275307   5.978   4.340  16.067  0.1439  0.4433  0.1893
17939TIP3    H175308   5.897   4.377  16.031  0.2520  1.0631  0.5734
17939TIP3    H275309   6.047   4.381  16.015  0.3720  2.3628  1.9560
17940TIP3   OH275310   4.680   3.127   0.314 -0.7912  0.2998  0.1467
17940TIP3    H175311   4.611   3.081   0.266  1.0079 -0.7803 -1.4490
17940TIP3    H275312   4.759   3.111   0.263  0.3474  2.9704  1.0191
17941TIP3   OH275313   5.826   3.514   3.922  0.0915  0.4226  0.8867
17941TIP3    H175314   5.766   3.588   3.918  0.1826  0.4463 -0.3683
17941TIP3    H275315   5.837   3.497   4.015 -1.8414  0.4286  1.1434
17942TIP3   OH275316   2.003   0.996   4.593  0.3889 -0.0747  0.2528
17942TIP3    H175317   1.925   0.980   4.540  0.8191  1.0431 -0.7257
17942TIP3    H275318   2.010   1.091   4.597  2.1209 -0.1631 -0.3025
17943TIP3   OH275319   3.379   2.721   2.538  0.2313 -0.9459 -0.2401
17943TIP3    H175320   3.311   2.789   2.539 -0.0511 -1.2268  1.1288
17943TIP3    H275321   3.461   2.769   2.539  0.0468 -0.6139 -0.7402
17944TIP3   OH275322   0.861   2.882   1.635  0.0371 -0.1459  0.1426
17944TIP3    H175323   0.775   2.875   1.594 -0.0870  0.6680  0.2588
17944TIP3    H275324   0.893   2.969   1.611  0.6113 -0.2455  0.5189
17945TIP3   OH275325   5.092   3.010   2.078  0.1198 -0.1635 -0.2531
17945TIP3    H175326   5.002   3.023   2.107  1.0578 -0.6384  3.0072
17945TIP3    H275327   5.125   3.099   2.062 -0.1274  0.2002  1.1667
17946TIP3   OH275328   6.540   2.445  11.764 -0.6827  0.5658 -0.5172
17946TIP3    H175329   6.572   2.366  11.720  0.0149  1.0089 -0.8086
17946TIP3    H275330   6.481   2.486  11.700 -0.4873  0.6583 -0.6366
17947TIP3   OH275331   6.177   3.927  15.583 -0.1026 -0.7877 -0.1425
17947TIP3    H175332   6.212   3.860  15.523 -2.0539 -1.2884 -0.7491
17947TIP3    H275333   6.088   3.898  15.601 -0.5740  1.0656  0.5047
17948TIP3   OH275334   1.085   2.874   0.303 -0.0013  0.7216 -0.6910
17948TIP3    H175335   1.141   2.950   0.288 -0.0813  0.9007 -0.1004
17948TIP3    H275336   1.123   2.805   0.249  1.2737  0.6080  0.3490
17949TIP3   OH275337   1.518   1.086  16.267 -0.3493  0.0660  0.4842
17949TIP3    H175338   1.554   1.004  16.301  0.7153  0.2582 -0.1703
17949TIP3    H275339   1.522   1.146  16.342  0.8548  0.1354  0.3692
17950TIP3   OH275340   4.414   0.127   3.676  0.0525 -0.2277  0.3741
17950TIP3    H175341   4.475   0.083   3.615 -0.2836 -1.6731  1.0587
17950TIP3    H275342   4.471   0.171   3.739  0.3938 -0.2068  0.0561
17951TIP3   OH275343   3.316   5.689   0.051  0.5140  0.0014  0.1103
17951TIP3    H175344   3.304   5.780   0.024 -0.4200 -0.0369  0.3857
17951TIP3    H275345   3.228   5.650   0.044  1.3096 -1.5261 -2.3345
17952TIP3   OH275346   3.811   0.846  14.573  0.4811  1.0833  0.2950
17952TIP3    H175347   3.893   0.805  14.545  1.3812  2.9701  0.1366
17952TIP3    H275348   3.792   0.912  14.506 -2.1542 -0.5429 -0.6644
17953TIP3   OH275349   5.690   5.489  14.498  0.1617 -0.1491  0.1906
17953TIP3    H175350   5.727   5.410  14.538 -2.5916 -0.8361  1.4824
17953TIP3    H275351   5.679   5.550  14.571 -0.9449  0.1634 -0.2356
17954TIP3   OH275352   6.117   1.424   3.792  0.1672 -0.0438  0.6093
17954TIP3    H175353   6.183   1.435   3.724  1.1053  2.9431  1.9423
17954TIP3    H275354   6.158   1.366   3.856  1.0008  0.7048  0.7665
17955TIP3   OH275355   1.304   5.470  11.376 -1.1801  0.1287  0.1321
17955TIP3    H175356   1.359   5.537  11.337 -1.3848  0.5903  0.6260
17955TIP3    H275357   1.231   5.460  11.315 -0.6528 -0.3494 -0.4292
17956TIP3   OH275358   0.300   2.566   0.295  0.0037  0.4913 -0.2667
17956TIP3    H175359   0.321   2.559   0.201 -0.1064  0.9278 -0.3266
17956TIP3    H275360   0.241   2.493   0.312 -0.7227  0.9673 -0.7488
17957TIP3   OH275361   5.010   4.541  15.677 -0.0139 -0.2032 -0.1861
17957TIP3    H175362   5.074   4.507  15.740 -0.6241  0.6922  0.9539
17957TIP3    H275363   5.041   4.511  15.592  1.0501 -1.1101  0.5109
17958TIP3   OH275364   6.257   5.578  10.837 -0.6887  0.3781 -0.4973
17958TIP3    H175365   6.315   5.634  10.889  0.4103 -1.3520  0.1790
17958TIP3    H275366   6.176   5.628  10.830 -0.0602  1.6434  0.8882
17959TIP3   OH275367   4.950   1.875   5.656 -0.3552  0.3048 -0.1665
17959TIP3    H175368   4.885   1.944   5.661 -0.3770  0.2681  0.0719
17959TIP3    H275369   5.031   1.919   5.630 -0.6428  0.2396 -1.1909
17960TIP3   OH275370   4.439   6.264  13.336  0.0439 -0.3410 -0.7882
17960TIP3    H175371   4.420   6.240  13.426 -0.8423  0.7724 -0.6772
17960TIP3    H275372   4.515   6.210  13.313  0.8321  0.0188  0.8974
17961TIP3   OH275373   0.274   3.045  17.182  0.8488  0.0044 -0.4321
17961TIP3    H175374   0.308   2.994  17.255  3.3449 -0.5234 -1.9022
17961TIP3    H275375   0.279   3.136  17.212  0.8942 -0.2693  0.4057
17962TIP3   OH275376   0.387   1.952  15.470 -0.5733  0.1719  0.1774
17962TIP3    H175377   0.343   1.879  15.425 -0.0293  0.0948 -0.2418
17962TIP3    H275378   0.480   1.927  15.469 -0.4819  0.4939  0.7502
17963TIP3   OH275379   1.573   4.084   0.731 -0.0257 -0.2208  0.7222
17963TIP3    H175380   1.610   4.081   0.643  1.2264  0.7849  1.2048
17963TIP3    H275381   1.613   4.010   0.776  5.0802  3.3959  2.6143
17964TIP3   OH275382   3.470   3.413   2.891  0.3083  0.3138  0.3504
17964TIP3    H175383   3.559   3.415   2.857  0.7603 -0.8370  1.4101
17964TIP3    H275384   3.480   3.393   2.984 -1.0525  0.2184  0.4929
17965TIP3   OH275385   1.104   3.398   1.536 -0.2887 -0.2914 -0.2254
17965TIP3    H175386   1.022   3.444   1.521 -1.7221 -2.9441 -0.8974
17965TIP3    H275387   1.093   3.357   1.622 -0.0106 -1.3455 -0.6873
17966TIP3   OH275388   3.293   4.057  16.504 -0.1263  0.2643 -0.6909
17966TIP3    H175389   3.309   4.131  16.445  2.0005 -0.3126 -0.8800
17966TIP3    H275390   3.214   4.081  16.552 -0.3004  1.9927 -1.7980
17967TIP3   OH275391   4.798   1.884  16.977  0.6238 -0.0993  0.3886
17967TIP3    H175392   4.772   1.925  16.895 -0.9620  1.4070  1.6072
17967TIP3    H275393   4.736   1.812  16.989  0.7437 -0.2067  0.3671
17968TIP3   OH275394   6.747   0.700   1.183  0.4804  0.5491  0.2580
17968TIP3    H175395   6.737   0.759   1.108 -0.9096  0.1931  0.1580
17968TIP3    H275396   6.761   0.614   1.144  0.9683  0.5543  0.4124
17969TIP3   OH275397   0.573   4.644   4.173 -0.2583  0.3230 -0.1991
17969TIP3    H175398   0.555   4.731   4.138 -0.9015  0.2003 -0.1796
17969TIP3    H275399   0.662   4.650   4.209 -1.0554  1.5441  1.6287
17970TIP3   OH275400   2.975   6.431  16.305 -0.1229 -0.1414  0.6395
17970TIP3    H175401   2.885   6.407  16.283  0.0032 -1.9905  2.0688
17970TIP3    H275402   2.966   6.497  16.374 -0.3859 -1.1817  1.6148
17971TIP3   OH275403   5.086   6.600   5.177 -0.4807  0.9734  0.1857
17971TIP3    H175404   5.026   6.568   5.245 -0.8995  1.5790  0.1091
17971TIP3    H275405   5.049   6.685   5.151 -0.2583  0.7981 -0.7151
17972TIP3   OH275406   6.055   1.626  12.529  0.3777 -0.0216  0.3496
17972TIP3    H175407   6.138   1.579  12.526  0.6186  0.4051  0.3673
17972TIP3    H275408   5.988   1.557  12.523  0.7362 -0.2482 -1.4166
17973TIP3   OH275409   4.163   2.230  16.310  0.8266 -0.5511  0.3060
17973TIP3    H175410   4.085   2.256  16.263  1.2943  1.0661  0.4095
17973TIP3    H275411   4.236   2.261  16.257  1.3580  1.6239  2.2293
17974TIP3   OH275412   0.811   1.765   1.288 -0.1692 -0.5919 -0.0553
17974TIP3    H175413   0.806   1.669   1.282  0.3022 -0.6572  0.4487
17974TIP3    H275414   0.788   1.784   1.379  2.3639 -0.4484  0.6049
17975TIP3   OH275415   6.607   5.458  16.354 -0.0464  0.0790  0.3729
17975TIP3    H175416   6.520   5.426  16.329  0.0451  0.2908 -0.2294
17975TIP3    H275417   6.657   5.457  16.273  0.0370  1.4863  0.3886
17976TIP3   OH275418   4.529   1.165  17.008 -0.4778 -0.3258  0.3047
17976TIP3    H175419   4.581   1.186  16.930 -0.7596 -0.0855  0.1742
17976TIP3    H275420   4.494   1.250  17.036 -0.9945 -0.5122  0.2405
17977TIP3   OH275421   0.165   6.250  12.059  0.5977 -0.4391 -0.3008
17977TIP3    H175422   0.126   6.289  11.982 -0.7357 -0.6031  0.2894
17977TIP3    H275423   0.221   6.318  12.096  0.0141  0.1537 -0.5228
17978TIP3   OH275424   6.402   0.922   4.671 -0.2882 -0.1625  0.2638
17978TIP3    H175425   6.419   1.016   4.674  0.7913 -0.3776  1.2278
17978TIP3    H275426   6.307   0.915   4.678 -0.5259  0.9107 -1.4411
17979TIP3   OH275427   2.538   2.255  13.454 -0.0389  0.4026  0.5021
17979TIP3    H175428   2.617   2.234  13.404  0.2073  1.0316  0.6220
17979TIP3    H275429   2.481   2.299  13.391  0.0748  0.7542  0.6390
17980TIP3   OH275430   0.978   0.109  13.929  0.0746 -0.0859  0.0626
17980TIP3    H175431   1.000   0.182  13.987 -0.9833 -0.4153  0.8888
17980TIP3    H275432   0.987   0.031  13.984  1.3743 -0.5973 -0.8651
17981TIP3   OH275433   0.897   6.634   1.296  0.1530  0.3117 -0.5914
17981TIP3    H175434   0.859   6.607   1.379  1.9503 -0.3060  0.0468
17981TIP3    H275435   0.862   6.723   1.282  0.3271  0.6703  1.1254
17982TIP3   OH275436   1.580   1.078   0.460 -0.5492 -0.1176  0.0730
17982TIP3    H175437   1.529   1.006   0.421 -0.5742  0.2579 -0.6013
17982TIP3    H275438   1.522   1.154   0.454 -0.5699 -0.0631  0.9019
17983TIP3   OH275439   0.996   3.456   3.224  0.3134 -0.0868 -0.0170
17983TIP3    H175440   1.020   3.469   3.316  2.0541  2.3027 -0.7700
17983TIP3    H275441   1.056   3.389   3.193 -0.6501 -1.3135  0.7037
17984TIP3   OH275442   0.789   3.435  15.227 -0.2000  0.1982 -0.0632
17984TIP3    H175443   0.868   3.459  15.276 -0.4673 -1.7904  1.4059
17984TIP3    H275444   0.819   3.424  15.137  1.0764  0.1702  0.3532
17985TIP3   OH275445   3.345   6.670  13.686  0.2580  0.0022 -0.2293
17985TIP3    H175446   3.430   6.711  13.704  0.2744 -0.1971  0.1499
17985TIP3    H275447   3.288   6.744  13.665  0.4341  0.1719 -0.1223
17986TIP3   OH275448   0.764   6.298  12.329  0.4271 -0.0392 -0.0956
17986TIP3    H175449   0.751   6.211  12.290 -0.1249  0.4697 -1.0661
17986TIP3    H275450   0.847   6.290  12.377  1.8312 -0.3416 -2.4500
17987TIP3   OH275451   0.811   4.827   0.734 -0.1614 -0.1105  0.0160
17987TIP3    H175452   0.766   4.787   0.660 -1.1137  0.0128  0.5145
17987TIP3    H275453   0.805   4.762   0.804 -0.0746  0.1455  0.2612
17988TIP3   OH275454   0.343   0.012  17.088  0.1363 -0.1472  0.6724
17988TIP3    H175455   0.425   0.040  17.048  0.1028  0.8678  1.3216
17988TIP3    H275456   0.310   0.089  17.135  0.6491 -1.5329  3.4515
17989TIP3   OH275457   2.014   1.570   4.245  0.5027 -0.1822  0.2205
17989TIP3    H175458   1.930   1.580   4.291 -0.6225  0.9145 -1.9613
17989TIP3    H275459   2.006   1.487   4.199  1.1903 -0.7541  1.1217
17990TIP3   OH275460   0.327   5.812   0.624 -0.0569  0.0728 -0.2059
17990TIP3    H175461   0.243   5.783   0.590 -0.0151 -0.6137  0.2563
17990TIP3    H275462   0.344   5.754   0.698  1.3435 -0.5545 -0.9888
17991TIP3   OH275463   6.462   3.523  14.931 -0.3850 -0.0902  0.3835
17991TIP3    H175464   6.423   3.484  15.009  1.0399 -1.2799  0.5213
17991TIP3    H275465   6.497   3.607  14.961 -1.9235  0.5281  0.4780
17992TIP3   OH275466   0.496   4.828  16.808 -1.0170 -0.7396  0.0840
17992TIP3    H175467   0.402   4.837  16.823 -1.2823 -1.6223 -0.9761
17992TIP3    H275468   0.536   4.852  16.891 -2.1788 -0.4230  0.5642
17993TIP3   OH275469   2.576   5.597   0.898  0.2408 -0.4363  0.3016
17993TIP3    H175470   2.544   5.561   0.981 -1.7344  2.0958  0.7124
17993TIP3    H275471   2.622   5.677   0.923 -0.2918  0.2959 -0.9954
17994TIP3   OH275472   6.180   4.482   5.940  0.3062  0.1565 -0.1967
17994TIP3    H175473   6.100   4.507   5.894 -0.5464  0.2820  1.3271
17994TIP3    H275474   6.215   4.565   5.973 -0.2542 -0.1574  1.2213
17995TIP3   OH275475   5.114   2.075   3.940  0.0438 -0.2083 -0.6222
17995TIP3    H175476   5.075   1.999   3.898  1.4765  0.3177 -2.9862
17995TIP3    H275477   5.208   2.067   3.923  0.6770  0.1426  2.3357
17996TIP3   OH275478   4.386   6.461   5.866  0.1623 -0.1431 -0.1260
17996TIP3    H175479   4.349   6.526   5.925  0.8227 -0.3443  0.5228
17996TIP3    H275480   4.403   6.385   5.922  0.1479 -0.5863 -0.7140
17997TIP3   OH275481   1.919   5.036  14.853  0.0340  0.0927 -0.1319
17997TIP3    H175482   1.972   5.098  14.903  1.1168 -0.0378 -1.1026
17997TIP3    H275483   1.981   4.968  14.826 -1.3785 -2.2140  2.1340
17998TIP3   OH275484   3.946   1.840   1.121  0.0489 -0.0523  0.1778
17998TIP3    H175485   3.942   1.911   1.186 -0.0596  0.4112 -0.3284
17998TIP3    H275486   3.940   1.760   1.173  1.4249  0.2761  0.8711
17999TIP3   OH275487   5.905   3.153   3.862 -0.7986  0.3193 -0.4082
17999TIP3    H175488   5.884   3.234   3.816 -1.6053  0.5993  0.4292
17999TIP3    H275489   5.990   3.127   3.828 -1.7207  0.1131 -2.5880
18000TIP3   OH275490   2.543   0.496  13.768  0.0434  0.5397  0.1303
18000TIP3    H175491   2.469   0.440  13.745 -0.7306  1.2289  0.9262
18000TIP3    H275492   2.508   0.585  13.767  0.8808  0.8826  0.4164
18001TIP3   OH275493   1.581   1.179  10.918 -0.3080 -0.2963  0.2669
18001TIP3    H175494   1.670   1.145  10.930 -0.0664  0.2270 -0.0114
18001TIP3    H275495   1.528   1.101  10.904  0.4570 -0.5074 -1.6632
18002TIP3   OH275496   2.868   2.092  15.616 -0.9971 -0.1910  0.8953
18002TIP3    H175497   2.960   2.068  15.605 -1.1878 -0.5312  0.0212
18002TIP3    H275498   2.830   2.086  15.528 -1.7837  0.2604  1.1919
18003TIP3   OH275499   3.160   0.100  13.642  0.0309 -0.0157  0.1615
18003TIP3    H175500   3.181   0.160  13.714  0.4430  0.2168 -0.1491
18003TIP3    H275501   3.211   0.133  13.568 -2.0714  1.1085 -0.8723
18004TIP3   OH275502   5.665   4.783  13.600 -0.1315  0.5116 -0.2622
18004TIP3    H175503   5.736   4.844  13.579 -0.1842  0.7943  0.3633
18004TIP3    H275504   5.705   4.721  13.662 -0.6089  1.0686  0.6137
18005TIP3   OH275505   6.487   3.472  13.981  0.3589  0.4604 -0.1869
18005TIP3    H175506   6.484   3.515  13.896 -0.4917  2.8811  1.0296
18005TIP3    H275507   6.498   3.543  14.044 -0.0869 -1.1887  1.8067
18006TIP3   OH275508   2.269   5.867  11.287 -0.6080  0.1943 -0.9739
18006TIP3    H175509   2.280   5.876  11.381  1.4574 -0.8574 -1.0907
18006TIP3    H275510   2.251   5.956  11.256 -2.1066  0.4288  0.4792
18007TIP3   OH275511   3.362   0.224  16.677  0.4457  0.0574 -0.0956
18007TIP3    H175512   3.404   0.140  16.659 -0.1916 -0.0574 -1.0550
18007TIP3    H275513   3.345   0.262  16.591  1.3681  1.5051  0.3247
18008TIP3   OH275514   6.200   5.320  13.558  0.7263 -0.1300 -0.2558
18008TIP3    H175515   6.207   5.401  13.507 -2.6895 -0.0645 -0.7517
18008TIP3    H275516   6.170   5.349  13.644  1.3551 -0.7120  0.1591
18009TIP3   OH275517   5.343   6.005   3.456 -0.5546  0.1831 -0.2092
18009TIP3    H175518   5.422   5.964   3.491  0.1039  0.9723 -0.7587
18009TIP3    H275519   5.289   6.024   3.533  0.5741  1.2672  0.3262
18010TIP3   OH275520   1.622   0.481   4.692 -0.1189 -0.2479  0.5459
18010TIP3    H175521   1.627   0.472   4.597  2.9380 -2.2891  0.8046
18010TIP3    H275522   1.556   0.548   4.707 -1.0322 -0.2647 -2.9847
18011TIP3   OH275523   5.956   2.316   2.906 -0.4076  0.1408 -0.7808
18011TIP3    H175524   5.954   2.410   2.891 -0.1140  0.2213 -0.3144
18011TIP3    H275525   5.864   2.288   2.896 -0.7282  0.7073  0.5529
18012TIP3   OH275526   2.312   0.347  11.930  0.2193 -0.1788 -0.6823
18012TIP3    H175527   2.219   0.346  11.955  0.3658 -1.5965 -0.1522
18012TIP3    H275528   2.339   0.438  11.944 -1.5178  0.6414 -2.4675
18013TIP3   OH275529   0.596   6.241   1.523 -0.0758 -0.2186  0.2890
18013TIP3    H175530   0.580   6.168   1.582  0.0017  0.6021  1.3303
18013TIP3    H275531   0.688   6.234   1.499  0.3374  0.4720  1.6614
18014TIP3   OH275532   6.749   5.245   1.193  0.0482  0.0046 -0.6569
18014TIP3    H175533   6.719   5.247   1.283  1.3605  0.7528 -0.2147
18014TIP3    H275534   6.672   5.267   1.141 -0.3945  0.9349  0.3731
18015TIP3   OH275535   2.140   4.162  11.269  0.0822  0.4392 -0.2554
18015TIP3    H175536   2.206   4.220  11.307 -0.7609  0.7593  0.7557
18015TIP3    H275537   2.138   4.186  11.176  2.9623 -1.1205 -0.7792
18016TIP3   OH275538   5.527   5.499   2.536  0.0734  0.1955  0.1054
18016TIP3    H175539   5.510   5.590   2.511 -0.3277  0.7254  2.2355
18016TIP3    H275540   5.623   5.491   2.533  0.0432  0.2612 -1.4808
18017TIP3   OH275541   1.713   6.511   0.829 -0.8936 -0.0994 -0.3357
18017TIP3    H175542   1.752   6.439   0.780  3.1245 -0.4118  3.0999
18017TIP3    H275543   1.630   6.477   0.861  0.3289 -2.7577  0.0818
18018TIP3   OH275544   3.570   4.547   5.534 -0.4363 -0.9317 -0.1351
18018TIP3    H175545   3.642   4.494   5.500  0.9683  0.9034 -0.1328
18018TIP3    H275546   3.613   4.624   5.572 -2.4682  0.9030 -1.4101
18019TIP3   OH275547   5.537   1.974  13.522 -0.3528  0.0853 -0.2771
18019TIP3    H175548   5.535   2.056  13.571 -0.5942 -0.6849  1.0358
18019TIP3    H275549   5.623   1.937  13.542 -0.7614 -0.6120  0.2277
18020TIP3   OH275550   1.395   0.462   6.525 -0.1516  0.8245 -0.4521
18020TIP3    H175551   1.426   0.550   6.550  0.4181  0.5446 -0.1443
18020TIP3    H275552   1.450   0.403   6.577  0.6209  0.2336 -1.9080
18021TIP3   OH275553   1.029   5.457   4.082  0.3315 -0.3073  0.0358
18021TIP3    H175554   1.013   5.453   3.987  2.6162 -0.5166 -0.3672
18021TIP3    H275555   1.118   5.423   4.092  0.4555  0.6341  2.1702
18022TIP3   OH275556   1.174   6.720  11.737  0.0030  0.5133  0.4790
18022TIP3    H175557   1.202   6.631  11.714  0.7090  0.1782  2.5101
18022TIP3    H275558   1.255   6.769  11.746 -0.3657  1.2299 -0.0811
18023TIP3   OH275559   0.440   0.244   5.311  0.1207  0.4436 -0.4433
18023TIP3    H175560   0.499   0.271   5.381 -0.6709 -0.5977  0.6450
18023TIP3    H275561   0.486   0.171   5.268 -0.3924 -0.4090  0.4439
18024TIP3   OH275562   6.626   0.128  16.710 -0.1643 -0.0481  0.2894
18024TIP3    H175563   6.541   0.097  16.679 -0.7168  2.0922 -0.4393
18024TIP3    H275564   6.656   0.187  16.642  2.7026 -2.0007 -0.2352
18025TIP3   OH275565   1.276   4.196   3.204 -0.6645 -0.1049  0.2599
18025TIP3    H175566   1.351   4.167   3.150 -1.6264 -0.8294 -0.7090
18025TIP3    H275567   1.307   4.187   3.294  0.1503 -1.1777 -0.1072
18026TIP3   OH275568   3.197   1.942  12.784  0.1731 -0.4367 -0.4438
18026TIP3    H175569   3.162   1.927  12.871 -0.5457 -0.8077 -0.7953
18026TIP3    H275570   3.236   1.859  12.758 -0.4129 -0.5935 -0.8371
18027TIP3   OH275571   1.460   5.584  10.802  0.5324  0.2376  0.1262
18027TIP3    H175572   1.544   5.559  10.765  0.8885  0.1216  0.9999
18027TIP3    H275573   1.481   5.649  10.869  0.2087 -1.8394  2.2887
18028TIP3   OH275574   0.035   1.589   5.617 -0.3842 -0.1158 -0.0219
18028TIP3    H175575  -0.053   1.566   5.645 -0.9579  1.7344 -0.2123
18028TIP3    H275576   0.023   1.638   5.535  0.7265  0.8655  0.3744
18029TIP3   OH275577   3.161   2.699  16.514  0.0184  0.1952 -0.2874
18029TIP3    H175578   3.068   2.702  16.537  0.1918 -0.1097  0.4601
18029TIP3    H275579   3.183   2.606  16.514  0.5852  0.3339  0.5927
18030TIP3   OH275580   2.109   4.996  15.233 -0.7201  0.0861  0.1259
18030TIP3    H175581   2.022   4.988  15.194 -0.2837 -0.4912 -0.7549
18030TIP3    H275582   2.141   5.080  15.202 -1.3907  0.7990  1.3388
18031TIP3   OH275583   6.251   2.156   3.434 -1.0057 -0.2113 -0.2955
18031TIP3    H175584   6.324   2.160   3.371 -0.4337  0.5607  0.4062
18031TIP3    H275585   6.267   2.229   3.494  0.3047 -2.8475  2.7402
18032TIP3   OH275586   5.450   2.902   6.136  0.5083  0.2484 -0.2371
18032TIP3    H175587   5.383   2.874   6.198  0.8744 -1.4930 -0.6062
18032TIP3    H275588   5.405   2.961   6.076 -0.4515 -0.1177  0.1235
18033TIP3   OH275589   2.484   4.986  11.322  0.6840 -0.0046  0.2669
18033TIP3    H175590   2.475   4.981  11.227  0.0267 -1.5697  0.4008
18033TIP3    H275591   2.396   5.010  11.353  0.7756 -0.0031  0.5240
18034TIP3   OH275592   5.561   2.487  14.378  0.4785  0.0951  0.6264
18034TIP3    H175593   5.469   2.508  14.394  0.2140  0.7856 -1.5292
18034TIP3    H275594   5.563   2.392  14.371 -0.1289  0.0891  0.4984
18035TIP3   OH275595   1.314   5.196   2.293 -0.0344  0.0816 -0.4356
18035TIP3    H175596   1.242   5.256   2.312  0.4515  0.5029  0.0774
18035TIP3    H275597   1.334   5.211   2.201 -0.5011  0.0770 -0.5383
18036TIP3   OH275598   3.713   2.370   0.503 -0.5092 -0.2437  0.0193
18036TIP3    H175599   3.686   2.325   0.423  0.9974  0.9243 -1.2063
18036TIP3    H275600   3.728   2.301   0.566 -0.4703 -1.2921 -1.1207
18037TIP3   OH275601   0.746   3.711   0.570 -0.4574  0.1135  0.5576
18037TIP3    H175602   0.655   3.684   0.582 -0.1315 -1.6717 -0.8133
18037TIP3    H275603   0.796   3.630   0.571  0.7162  0.7213 -2.1302
18038TIP3   OH275604   5.344   5.118   0.877  0.1632  0.4479 -0.2086
18038TIP3    H175605   5.255   5.139   0.904 -0.2125 -1.3316 -0.0402
18038TIP3    H275606   5.377   5.200   0.840 -0.2100  2.2189  3.1527
18039TIP3   OH275607   4.160   4.882  11.756 -0.5060  0.2076 -0.6363
18039TIP3    H175608   4.223   4.810  11.755 -0.1595  0.5204 -2.2958
18039TIP3    H275609   4.074   4.839  11.750 -0.5055 -0.2478  2.1536
18040TIP3   OH275610   4.817   3.027  13.157  0.3092 -0.6482  0.3694
18040TIP3    H175611   4.891   3.084  13.136 -0.3188  0.0146 -0.0778
18040TIP3    H275612   4.774   3.011  13.073 -1.6435  1.2095  0.9879
18041TIP3   OH275613   0.888   3.249  12.165 -0.6431  0.7866  0.7527
18041TIP3    H175614   0.802   3.281  12.191 -0.3884  0.3656  2.1509
18041TIP3    H275615   0.929   3.222  12.247  0.1225 -0.7169 -0.1105
18042TIP3   OH275616   6.224   0.471  16.676  0.6646  0.3739 -0.2095
18042TIP3    H175617   6.178   0.441  16.597  4.0938  0.4133 -2.3231
18042TIP3    H275618   6.219   0.566  16.672  0.9091  0.3789 -0.4598
18043TIP3   OH275619   0.244   2.106   2.346  0.5946 -0.1393  0.3040
18043TIP3    H175620   0.219   2.019   2.313  0.5403 -0.3857  0.9816
18043TIP3    H275621   0.160   2.150   2.362  0.6273  0.4571 -1.1150
18044TIP3   OH275622   6.202   4.093  17.180 -0.1464  0.1460  0.2465
18044TIP3    H175623   6.175   4.090  17.271 -1.0673  0.2589 -0.0198
18044TIP3    H275624   6.208   4.186  17.159 -0.4987  0.1169  0.0225
18045TIP3   OH275625   0.076   5.143  12.855  0.0818  0.1681  0.0947
18045TIP3    H175626   0.163   5.116  12.886  0.4610  1.5163  0.2102
18045TIP3    H275627   0.033   5.180  12.931 -0.6457 -0.5984  0.0624
18046TIP3   OH275628   0.609   3.130  11.684  0.1541 -0.2100 -0.0082
18046TIP3    H175629   0.671   3.099  11.618  1.2828 -0.1750  1.0257
18046TIP3    H275630   0.576   3.051  11.725 -1.4659 -0.2870 -1.4276
18047TIP3   OH275631   3.039   0.872  14.625  0.2540 -0.0297  0.1951
18047TIP3    H175632   3.129   0.875  14.658  0.0648  0.7640  0.6589
18047TIP3    H275633   3.047   0.889  14.531  1.0012 -4.3565 -0.6243
18048TIP3   OH275634   2.963   3.581  15.543 -0.2771  0.2022  0.3001
18048TIP3    H175635   2.988   3.489  15.553  1.6877  0.7269  0.3003
18048TIP3    H275636   2.900   3.596  15.613  0.4281 -0.7712  1.1635
18049TIP3   OH275637   3.599   5.684  14.504 -0.0836 -0.3194 -0.1466
18049TIP3    H175638   3.578   5.739  14.580 -0.1227  0.2397 -0.5604
18049TIP3    H275639   3.582   5.595  14.534 -1.5657  0.0139  0.0096
18050TIP3   OH275640   5.504   6.104   2.525  0.1937  0.1413  0.6195
18050TIP3    H175641   5.450   6.027   2.510 -1.0570  1.3123 -1.1435
18050TIP3    H275642   5.591   6.069   2.544 -0.6185 -1.7098  1.0185
18051TIP3   OH275643   5.993   4.056   2.858  0.2334 -0.0073  0.2631
18051TIP3    H175644   5.928   4.018   2.917 -0.4498 -0.9842 -1.0806
18051TIP3    H275645   5.957   4.042   2.770  1.3855  1.1110 -0.4155
18052TIP3   OH275646   1.253   1.489   6.688  0.0940 -0.1582 -0.5523
18052TIP3    H175647   1.264   1.473   6.781 -0.5504 -0.3786 -0.5082
18052TIP3    H275648   1.202   1.571   6.684 -0.1082 -0.2900 -0.7021
18053TIP3   OH275649   2.271   6.238  14.490 -0.3914 -0.0361  0.3447
18053TIP3    H175650   2.253   6.155  14.534  1.2957  1.0050  3.1262
18053TIP3    H275651   2.185   6.268  14.460 -1.1077 -2.4226 -0.1383
18054TIP3   OH275652   3.589   1.428  11.075  0.5109  0.1788  0.2191
18054TIP3    H175653   3.529   1.449  11.003 -0.4028  2.4503  1.5845
18054TIP3    H275654   3.543   1.361  11.126  1.0020 -1.1672 -1.0721
18055TIP3   OH275655   0.162   4.743  16.365  0.2475  0.2414  0.0234
18055TIP3    H175656   0.243   4.706  16.331 -1.3290 -1.4289 -2.0799
18055TIP3    H275657   0.178   4.837  16.371  2.3705 -0.0920 -0.1991
18056TIP3   OH275658   0.221   6.548  16.280 -0.1673 -0.5244 -0.7024
18056TIP3    H175659   0.204   6.633  16.240  1.2720  0.5646  0.9187
18056TIP3    H275660   0.189   6.557  16.370 -0.2326 -1.7732 -0.5901
18057TIP3   OH275661   5.485   4.948   6.709 -0.1854  0.5822 -0.0074
18057TIP3    H175662   5.397   4.978   6.733 -0.1689  0.1156  0.6420
18057TIP3    H275663   5.543   5.018   6.738 -0.1457 -0.0644  1.5174
18058TIP3   OH275664   1.867   0.095  12.847  0.3394  0.4004  0.9267
18058TIP3    H175665   1.773   0.077  12.849  0.0853  1.1182 -2.3917
18058TIP3    H275666   1.908   0.010  12.858 -0.7315 -0.2812 -0.2165
18059TIP3   OH275667   5.671   1.701   3.061 -0.3709  0.0771  0.3291
18059TIP3    H175668   5.618   1.629   3.097  1.9195 -2.3943 -1.0068
18059TIP3    H275669   5.723   1.731   3.135  1.1285 -1.9934  0.1551
18060TIP3   OH275670   1.146   5.561  13.079 -0.1393 -0.4715 -0.0334
18060TIP3    H175671   1.096   5.587  13.001 -1.6998 -2.3081  0.3008
18060TIP3    H275672   1.145   5.638  13.135 -0.2618  0.3941 -1.1990
18061TIP3   OH275673   4.972   2.330  16.312  0.0209  0.2882  0.5743
18061TIP3    H175674   4.943   2.239  16.309  0.5082  0.0937  1.5156
18061TIP3    H275675   5.029   2.335  16.389 -0.5882  1.5550  0.9701
18062TIP3   OH275676   5.701   4.822  11.627  0.0768 -0.0872 -0.3408
18062TIP3    H175677   5.609   4.801  11.644 -0.2601 -0.0144 -1.9490
18062TIP3    H275678   5.697   4.890  11.559  1.3009  0.3641  0.0353
18063TIP3   OH275679   4.663   5.497   0.906  0.1245  0.1581  0.4639
18063TIP3    H175680   4.678   5.544   0.824 -0.4125 -1.2835 -0.4854
18063TIP3    H275681   4.738   5.439   0.915 -0.4645 -0.6518  0.2853
18064TIP3   OH275682   2.464   5.995  16.793 -1.0137 -0.4318 -0.3358
18064TIP3    H175683   2.472   6.091  16.794  1.6959 -0.6353  1.4166
18064TIP3    H275684   2.381   5.979  16.749 -0.8231  2.6955 -2.0178
18065TIP3   OH275685   6.407   2.187  15.093  0.1860 -0.0162 -0.0902
18065TIP3    H175686   6.491   2.219  15.124  0.1899 -1.1373  1.0874
18065TIP3    H275687   6.422   2.165  15.001  0.7435  1.2683 -0.3259
18066TIP3   OH275688   1.903   0.223  11.715 -0.1058 -0.1212 -0.2671
18066TIP3    H175689   1.904   0.311  11.676  1.5928  0.6037  1.3464
18066TIP3    H275690   1.818   0.187  11.690 -0.5764  1.7463 -1.4710
18067TIP3   OH275691   2.470   1.405  15.721 -0.1299 -0.1033 -0.0130
18067TIP3    H175692   2.512   1.439  15.801  0.4570 -1.0151  0.0706
18067TIP3    H275693   2.393   1.460  15.710  0.4089  0.7871  0.5407
18068TIP3   OH275694   4.853   6.298   3.619 -0.2655  0.2694  0.1604
18068TIP3    H175695   4.864   6.359   3.546  0.2572  0.5237  0.4570
18068TIP3    H275696   4.869   6.212   3.580 -2.2598  0.1879 -0.5493
18069TIP3   OH275697   1.938   4.857   2.008 -0.0780  0.0954  0.0886
18069TIP3    H175698   1.951   4.774   1.960  0.2420 -0.2237  0.7158
18069TIP3    H275699   2.011   4.912   1.979 -0.1678  0.0753 -0.1713
18070TIP3   OH275700   3.119   5.951   0.705  0.6610  0.0144 -0.3836
18070TIP3    H175701   3.185   5.940   0.636  0.1354  0.4646 -0.9659
18070TIP3    H275702   3.160   6.013   0.766  0.2123  1.4644 -1.5061
18071TIP3   OH275703   1.219   5.178   1.925 -0.1742 -0.2003 -0.5822
18071TIP3    H175704   1.313   5.163   1.924 -0.2675 -0.7728 -1.9960
18071TIP3    H275705   1.209   5.269   1.952  0.7061 -0.5555  1.0362
18072TIP3   OH275706   6.433   6.765   5.410  0.0807  0.0095  0.5619
18072TIP3    H175707   6.418   6.696   5.474  1.7170 -0.7452  0.1663
18072TIP3    H275708   6.492   6.826   5.453  0.7200 -0.2009  0.0037
18073TIP3   OH275709   3.404   5.935   3.716 -0.2794  0.3696  0.5557
18073TIP3    H175710   3.438   6.024   3.708 -2.3248  1.1168 -0.1168
18073TIP3    H275711   3.322   5.945   3.763  0.1265 -1.3360  1.6557
18074TIP3   OH275712   1.999   4.878  15.812  0.2095  0.2115  0.1894
18074TIP3    H175713   1.923   4.902  15.759  0.1856 -0.0616  0.1002
18074TIP3    H275714   2.062   4.843  15.750 -0.2145 -1.0713  0.4611
18075TIP3   OH275715   1.649   3.375   0.776  0.2006  0.2686  0.1930
18075TIP3    H175716   1.691   3.359   0.691 -0.1798 -0.8603  0.2125
18075TIP3    H275717   1.564   3.333   0.770  0.9235 -1.4846  1.7994
18076TIP3   OH275718   3.164   2.047   1.037 -0.2560 -0.2065 -0.5491
18076TIP3    H175719   3.077   2.011   1.021  0.4093 -2.1073  0.0151
18076TIP3    H275720   3.200   2.063   0.950 -0.3552 -1.4243 -0.8217
18077TIP3   OH275721   1.165   3.857  11.913 -0.2536  0.1097 -0.2494
18077TIP3    H175722   1.236   3.867  11.850  1.1464 -0.4865  1.2106
18077TIP3    H275723   1.100   3.804  11.867  1.3886 -1.5591 -0.7118
18078TIP3   OH275724   6.082   4.008  14.891 -0.0223  0.0156 -0.3594
18078TIP3    H175725   6.124   4.093  14.877  1.3444 -0.2840  1.7154
18078TIP3    H275726   6.000   4.014  14.842  1.4271  1.4120 -2.7117
18079TIP3   OH275727   4.662   0.904  10.798 -0.1184 -0.5747 -0.0875
18079TIP3    H175728   4.573   0.924  10.825  0.8429 -0.5954  3.3466
18079TIP3    H275729   4.708   0.988  10.801  0.6893 -1.0443  1.1782
18080TIP3   OH275730   3.209   0.420   5.775  0.1766 -0.0729 -0.3159
18080TIP3    H175731   3.178   0.343   5.823 -3.3755  1.4595 -0.0208
18080TIP3    H275732   3.242   0.479   5.842  2.7030 -1.1982 -0.5245
18081TIP3   OH275733   5.397   6.560  16.505 -0.1943  0.4052  0.1541
18081TIP3    H175734   5.376   6.640  16.456 -0.6196  0.3891  0.3105
18081TIP3    H275735   5.406   6.589  16.596 -1.1332  0.1577  0.3399
18082TIP3   OH275736   5.926   1.109   2.543  0.6292  0.0778  0.1482
18082TIP3    H175737   5.852   1.170   2.547  0.5832  0.0177  0.2025
18082TIP3    H275738   5.960   1.106   2.632  1.0289  0.5224  0.0154
18083TIP3   OH275739   5.665   3.663  11.839 -0.5131 -0.2162  0.0800
18083TIP3    H175740   5.669   3.695  11.749  0.1178 -0.7772 -0.0985
18083TIP3    H275741   5.589   3.605  11.841 -0.9717  0.3946  0.1030
18084TIP3   OH275742   6.494   0.017   4.917  0.7459 -0.0058  0.3419
18084TIP3    H175743   6.437   0.084   4.879  1.7322 -0.6621 -2.4419
18084TIP3    H275744   6.536   0.059   4.992  1.1691  2.4061 -1.2219
18085TIP3   OH275745   1.150   4.039   3.027  0.0278 -0.0311 -0.3452
18085TIP3    H175746   1.180   4.081   3.108 -0.6449  0.5698 -0.4089
18085TIP3    H275747   1.183   3.949   3.033 -1.0747 -0.3462  1.1753
18086TIP3   OH275748   0.381   2.053  13.730 -0.3284 -0.3750 -0.7185
18086TIP3    H175749   0.342   1.976  13.688 -1.8575 -0.0372  0.0682
18086TIP3    H275750   0.405   2.111  13.657  0.7898 -1.5498 -1.3158
18087TIP3   OH275751   6.464   3.799   5.006 -0.8632 -0.5688 -0.5352
18087TIP3    H175752   6.497   3.873   5.058 -1.1808 -0.0262 -1.0908
18087TIP3    H275753   6.370   3.815   5.000 -0.7872 -0.4819 -1.5032
18088TIP3   OH275754   5.181   0.269  14.849  0.4488  0.0110  0.1942
18088TIP3    H175755   5.159   0.355  14.884 -0.1253  0.4039 -1.1048
18088TIP3    H275756   5.168   0.209  14.922 -1.7810  0.6761  0.3579
18089TIP3   OH275757   1.065   4.848  15.411 -0.3308  0.0098 -0.5276
18089TIP3    H175758   1.096   4.811  15.493  0.0785 -1.4673 -1.3241
18089TIP3    H275759   1.004   4.782  15.377 -2.6854  1.8785 -0.0473
18090TIP3   OH275760   3.964   0.826   6.136 -0.3512 -0.1196 -0.3064
18090TIP3    H175761   3.886   0.773   6.123 -0.0642 -0.5498 -0.2559
18090TIP3    H275762   3.932   0.904   6.182 -0.6478 -0.5803  0.2760
18091TIP3   OH275763   4.252   0.087  14.245  0.5805  0.9022  0.4047
18091TIP3    H175764   4.272   0.000  14.211  0.7811  1.1472 -0.1023
18091TIP3    H275765   4.271   0.147  14.173  0.0564  1.3335  0.6165
18092TIP3   OH275766   2.432   5.063  12.254  0.1414  0.0167 -0.1771
18092TIP3    H175767   2.445   5.145  12.207 -2.2810  0.2966 -0.4102
18092TIP3    H275768   2.452   4.995  12.189  3.4850  0.3575  0.4007
18093TIP3   OH275769   4.583   2.830  12.224  0.5816 -0.2503 -0.1225
18093TIP3    H175770   4.565   2.924  12.214  1.2864  0.2340  2.8424
18093TIP3    H275771   4.617   2.804  12.138  1.7317  2.5118 -0.5819
18094TIP3   OH275772   1.317   6.130   3.248 -0.0835 -0.7220 -0.0269
18094TIP3    H175773   1.394   6.089   3.209 -0.4265 -0.2030 -1.2888
18094TIP3    H275774   1.270   6.168   3.173 -0.7657  0.2809  0.9031
18095TIP3   OH275775   4.834   4.711  12.401  0.0064 -0.1363  0.1465
18095TIP3    H175776   4.785   4.631  12.420  0.3333  0.3274  3.1049
18095TIP3    H275777   4.918   4.698  12.445  1.1992  0.6207 -1.8319
18096TIP3   OH275778   4.784   5.547   2.843  0.1243 -0.0352 -0.1336
18096TIP3    H175779   4.774   5.454   2.866  0.8273  0.3345  1.7337
18096TIP3    H275780   4.868   5.551   2.797 -0.0708 -0.3705 -0.5288
18097TIP3   OH275781   6.676   5.903   5.613  0.2830 -0.2523 -0.1214
18097TIP3    H175782   6.611   5.844   5.650 -0.7471  1.4216  0.7773
18097TIP3    H275783   6.750   5.846   5.590 -0.4648 -1.7966  1.2401
18098TIP3   OH275784   3.709   1.225   2.513 -0.2389 -0.1807 -0.3672
18098TIP3    H175785   3.654   1.165   2.563  0.4036  0.5537  1.2603
18098TIP3    H275786   3.758   1.169   2.454  0.3675 -1.2834  1.1406
18099TIP3   OH275787   0.637   4.773  13.534 -0.1170 -0.3609  0.0068
18099TIP3    H175788   0.552   4.737  13.561  0.7191 -2.0074  0.5146
18099TIP3    H275789   0.678   4.701  13.485  0.8094  0.5787 -0.6028
18100TIP3   OH275790   5.088   4.287   0.845 -0.2264 -0.0132  0.0004
18100TIP3    H175791   5.000   4.325   0.848  0.3424  1.3987 -0.5591
18100TIP3    H275792   5.111   4.288   0.752  1.0137  1.1576  0.2977
18101TIP3   OH275793   5.823   5.717   3.610 -0.0975 -0.0460 -0.5646
18101TIP3    H175794   5.883   5.775   3.562  0.1646 -0.4915 -0.7717
18101TIP3    H275795   5.861   5.630   3.601 -0.8633 -0.3579 -0.8470
18102TIP3   OH275796   0.472   6.660   6.739  0.0924 -1.0179 -0.3165
18102TIP3    H175797   0.485   6.574   6.778 -2.0537 -1.5009 -0.6193
18102TIP3    H275798   0.560   6.691   6.719  1.0675 -1.8791  2.4670
18103TIP3   OH275799   0.674   6.041  14.974  0.0183 -0.0436 -0.4554
18103TIP3    H175800   0.627   5.962  15.002 -0.4322  0.3622 -0.0573
18103TIP3    H275801   0.766   6.015  14.973  0.2415  0.4616  3.2016
18104TIP3   OH275802   0.302   4.137  16.269 -0.5791  0.6367  0.3809
18104TIP3    H175803   0.300   4.120  16.174 -2.5336 -1.5497  0.7889
18104TIP3    H275804   0.382   4.093  16.299 -0.4385  0.5504 -0.1012
18105TIP3   OH275805   2.250   0.820   5.776 -0.0652 -0.4816  0.6649
18105TIP3    H175806   2.339   0.791   5.753 -0.1421 -0.0020 -0.2543
18105TIP3    H275807   2.263   0.883   5.846  0.1906 -1.8284  1.8591
18106TIP3   OH275808   2.426   0.311   4.887 -0.4682 -0.5484  0.2159
18106TIP3    H175809   2.376   0.392   4.878 -1.3470 -1.0910  0.1575
18106TIP3    H275810   2.419   0.270   4.801  0.4661 -0.4083  0.0703
18107TIP3   OH275811   6.237   0.647  12.842 -0.1099  0.5328  0.3276
18107TIP3    H175812   6.163   0.703  12.865 -0.0841  0.2671  1.0720
18107TIP3    H275813   6.230   0.635  12.747 -2.8136 -1.9980  0.7678
18108TIP3   OH275814   3.489   4.457   1.910  0.0006 -0.0273 -0.4202
18108TIP3    H175815   3.513   4.367   1.932 -0.5484 -0.0955 -0.0919
18108TIP3    H275816   3.439   4.449   1.829 -0.5380 -0.0744 -0.0825
18109TIP3   OH275817   5.111   1.556   0.853 -0.3437  0.0111  0.3733
18109TIP3    H175818   5.070   1.595   0.930 -0.8382 -1.4600  0.8720
18109TIP3    H275819   5.054   1.482   0.830  1.5634 -1.5997  0.6074
18110TIP3   OH275820   6.143   5.350   6.172  0.2032 -0.1328  0.0913
18110TIP3    H175821   6.145   5.435   6.129 -1.5938  0.3016  0.8551
18110TIP3    H275822   6.144   5.287   6.100  1.5515  0.5036 -0.4769
18111TIP3   OH275823   2.882   5.064   0.835 -0.1243 -0.5835 -0.1625
18111TIP3    H175824   2.855   4.979   0.869  1.4223  0.5096  4.1229
18111TIP3    H275825   2.973   5.050   0.807 -0.2959 -0.6629 -0.6782
18112TIP3   OH275826   4.357   2.726   6.106  0.0845  0.1297 -0.4019
18112TIP3    H175827   4.355   2.801   6.165  0.4400 -1.0998  1.2168
18112TIP3    H275828   4.304   2.659   6.150  2.3074 -1.6212 -0.3115
18113TIP3   OH275829   4.198   6.268  14.565  0.0553 -0.5382  0.4285
18113TIP3    H175830   4.289   6.270  14.536  0.1106  0.2926  0.6662
18113TIP3    H275831   4.186   6.349  14.613 -0.6806 -0.8664  0.8066
18114TIP3   OH275832   2.009   1.215   1.157  0.2193 -0.2646 -0.9000
18114TIP3    H175833   2.021   1.184   1.067 -2.2399 -0.8534 -1.0754
18114TIP3    H275834   1.990   1.308   1.148  0.2365 -0.2682 -0.9725
18115TIP3   OH275835   0.958   6.178   2.167  0.4086  0.5587  0.2419
18115TIP3    H175836   0.964   6.129   2.249  1.7268 -0.4902 -0.4538
18115TIP3    H275837   0.877   6.147   2.126  0.7713 -0.3775  0.2270
18116TIP3   OH275838   1.187   3.659  15.520  0.2770 -0.0690 -0.0847
18116TIP3    H175839   1.154   3.570  15.506 -1.1819  0.5398 -0.6071
18116TIP3    H275840   1.220   3.658  15.610  0.0020 -1.0652  0.0134
18117TIP3   OH275841   2.966   4.243  12.426  0.3213  0.3050 -0.4113
18117TIP3    H175842   2.871   4.239  12.438  0.4898  2.1556  1.9692
18117TIP3    H275843   2.978   4.305  12.354 -0.2454  0.2485 -0.5625
18118TIP3   OH275844   2.135   2.355  15.545 -0.3183  0.2058  0.4968
18118TIP3    H175845   2.119   2.370  15.638 -0.4147  1.0219  0.3558
18118TIP3    H275846   2.052   2.318  15.513  0.2535 -1.5921  1.0492
18119TIP3   OH275847   1.431   0.104  16.944 -0.7069  0.0449  0.1688
18119TIP3    H175848   1.365   0.047  16.986 -1.3589  1.4961  1.1752
18119TIP3    H275849   1.513   0.057  16.955 -1.0801 -0.2552  1.9102
18120TIP3   OH275850   3.482   4.471  12.712  0.1760  0.5026  0.2676
18120TIP3    H175851   3.494   4.536  12.781  0.5365  1.5309 -0.7559
18120TIP3    H275852   3.437   4.517  12.642 -2.5291 -1.2036  0.7975
18121TIP3   OH275853   0.844   3.269  13.000 -0.2532  0.4662  0.2187
18121TIP3    H175854   0.792   3.347  13.021  1.8590  2.0974 -0.3722
18121TIP3    H275855   0.848   3.220  13.083 -0.3600  1.7560  0.9998
18122TIP3   OH275856   2.020   2.978  14.082 -0.4797 -0.4278 -0.0769
18122TIP3    H175857   2.102   3.025  14.070 -1.1861  0.2540 -2.4262
18122TIP3    H275858   1.952   3.045  14.076 -1.2859 -1.1680  0.5385
18123TIP3   OH275859   3.142   3.848   3.644 -0.0456  0.1266 -0.8559
18123TIP3    H175860   3.085   3.832   3.720 -0.4794 -0.5430 -1.3205
18123TIP3    H275861   3.081   3.853   3.570  0.5944 -1.6690 -1.5145
18124TIP3   OH275862   1.847   1.860   0.814  0.2366 -0.4320 -0.0677
18124TIP3    H175863   1.818   1.853   0.723 -1.2175  1.7279  0.1941
18124TIP3    H275864   1.942   1.869   0.809 -0.0942  2.6973 -1.5694
18125TIP3   OH275865   1.082   0.857  16.342 -0.4763  0.4341  0.2522
18125TIP3    H175866   1.045   0.769  16.340  0.0101  0.2315  0.2710
18125TIP3    H275867   1.012   0.913  16.307 -0.9692  0.1119  0.7297
18126TIP3   OH275868   0.302   6.716  13.237  0.0190 -0.0129 -0.6907
18126TIP3    H175869   0.371   6.778  13.213  0.6479  0.7483  2.8394
18126TIP3    H275870   0.349   6.639  13.268 -0.7714 -1.3941 -2.8206
18127TIP3   OH275871   6.159   6.077  10.590 -0.1672 -0.2985 -0.8158
18127TIP3    H175872   6.189   6.151  10.537 -0.0925  0.1688 -0.1370
18127TIP3    H275873   6.238   6.046  10.634 -0.5824  0.6609  0.6448
18128TIP3   OH275874   0.349   0.181  14.532 -0.2341  0.3055 -0.1641
18128TIP3    H175875   0.434   0.209  14.499  1.4815 -2.5433  1.6327
18128TIP3    H275876   0.348   0.208  14.623 -0.4740 -1.2233  0.3116
18129TIP3   OH275877   2.546   0.365   2.724 -0.1886 -0.3844 -0.8174
18129TIP3    H175878   2.501   0.385   2.806  3.4500 -0.4946  1.3418
18129TIP3    H275879   2.559   0.270   2.726 -0.3863 -0.4332 -1.6784
18130TIP3   OH275880   4.864   3.830  14.605  0.1659  0.0655  0.2732
18130TIP3    H175881   4.807   3.764  14.643  0.8759 -1.1322 -0.6974
18130TIP3    H275882   4.890   3.794  14.520  0.8324  1.4424 -0.1381
18131TIP3   OH275883   6.668   4.600  13.427  0.6357  0.3245 -0.1027
18131TIP3    H175884   6.638   4.562  13.344 -1.6995  4.1128 -1.1022
18131TIP3    H275885   6.618   4.553  13.494  0.3490 -0.7255 -1.0250
18132TIP3   OH275886   5.780   2.413  12.212 -0.3040  0.2001 -0.1210
18132TIP3    H175887   5.823   2.341  12.257 -1.8549 -0.1643  0.8136
18132TIP3    H275888   5.842   2.438  12.143  0.6570 -1.3924  0.1253
18133TIP3   OH275889   5.577   3.179  12.053  0.1653  0.5576 -0.0931
18133TIP3    H175890   5.495   3.214  12.087  0.5737  0.0017  1.5341
18133TIP3    H275891   5.638   3.186  12.127  1.8048  1.7356 -1.5338
18134TIP3   OH275892   2.775   0.443   1.967  0.0932  0.0959  0.2059
18134TIP3    H175893   2.694   0.425   2.017  0.8922 -1.6193  0.9193
18134TIP3    H275894   2.745   0.456   1.877 -0.7539 -3.1919 -0.0436
18135TIP3   OH275895   2.988   0.200   0.262  0.3561  0.1087  0.1170
18135TIP3    H175896   2.930   0.130   0.233 -0.6949  1.0725 -0.1223
18135TIP3    H275897   3.048   0.158   0.324 -2.0355 -0.4268  2.1374
18136TIP3   OH275898   5.007   4.145  16.866  0.0274 -0.0656 -0.4872
18136TIP3    H175899   4.985   4.106  16.782 -0.3984  0.7989 -0.7902
18136TIP3    H275900   4.934   4.205  16.884  0.4544  0.2617  0.1641
18137TIP3   OH275901   2.065   3.695  11.973  0.2114 -0.2962  0.4001
18137TIP3    H175902   2.147   3.676  12.019  0.4889 -0.6173 -0.2244
18137TIP3    H275903   2.038   3.781  12.007  0.5350 -0.4178  0.9836
18138TIP3   OH275904   2.309   4.712  16.660 -0.6915  0.2273  0.3552
18138TIP3    H175905   2.298   4.621  16.632 -0.5011  0.1887  0.4028
18138TIP3    H275906   2.390   4.711  16.711 -0.9937  0.3190  0.8338
18139TIP3   OH275907   5.782   6.501  15.986  0.0753  0.2607 -0.1448
18139TIP3    H175908   5.746   6.475  15.902  0.5291  1.7082 -0.8128
18139TIP3    H275909   5.736   6.583  16.007 -0.6599 -0.5385  1.4310
18140TIP3   OH275910   6.581   2.780  14.595  0.4181  0.3664  0.0264
18140TIP3    H175911   6.508   2.839  14.612  2.6049  2.7612  1.5172
18140TIP3    H275912   6.591   2.781  14.500  0.0319  1.9679 -0.0106
18141TIP3   OH275913   0.977   2.086  13.894  0.7011  0.4555 -0.7942
18141TIP3    H175914   0.926   2.139  13.954 -0.4371 -1.0052 -0.4366
18141TIP3    H275915   0.944   2.109  13.807  1.0131  1.1694 -0.7232
18142TIP3   OH275916   5.057   4.767   1.394 -0.5739  0.2079 -0.2096
18142TIP3    H175917   5.136   4.811   1.364 -0.5582 -1.6438 -3.0188
18142TIP3    H275918   5.085   4.678   1.417 -1.4238  0.2331  0.9868
18143TIP3   OH275919   4.497   1.677  11.805  0.1678  0.7238  0.3043
18143TIP3    H175920   4.410   1.671  11.765  0.7349  0.8959 -0.9802
18143TIP3    H275921   4.487   1.636  11.891 -0.9059 -0.3048 -0.2969
18144TIP3   OH275922   2.860   3.377   1.262  0.3726  0.5317  0.0589
18144TIP3    H175923   2.812   3.447   1.306 -1.9884 -1.5714  0.8783
18144TIP3    H275924   2.930   3.354   1.323 -0.3599  0.4670  0.8773
18145TIP3   OH275925   1.007   2.196  11.151 -0.1604  0.1212  0.0958
18145TIP3    H175926   0.923   2.234  11.178 -0.3995 -0.9062  0.8438
18145TIP3    H275927   0.984   2.129  11.087  0.2617  1.2404 -1.2404
18146TIP3   OH275928   4.127   5.997   3.800 -0.0225 -0.0233 -0.5371
18146TIP3    H175929   4.112   5.977   3.708 -1.3511 -1.1877 -0.0766
18146TIP3    H275930   4.153   5.914   3.840 -0.0722  0.3341  0.2616
18147TIP3   OH275931   6.267   5.451   1.054 -0.1553  0.5118  0.1775
18147TIP3    H175932   6.312   5.446   0.970  0.5994  1.0848  0.5397
18147TIP3    H275933   6.205   5.378   1.053  0.4175  0.0337 -0.5466
18148TIP3   OH275934   2.059   5.393   5.494 -0.3207  0.0543 -0.4020
18148TIP3    H175935   2.117   5.386   5.418 -0.3960  0.5579 -0.5032
18148TIP3    H275936   2.116   5.424   5.565 -0.5603  1.0034 -0.6167
18149TIP3   OH275937   0.251   5.855  15.273 -0.1536  0.5710 -0.1512
18149TIP3    H175938   0.189   5.901  15.330  0.8893  3.4317 -1.2482
18149TIP3    H275939   0.335   5.895  15.292  0.7450 -0.6903 -1.4151
18150TIP3   OH275940   3.614   6.388  12.780 -0.1610 -0.0261 -0.1464
18150TIP3    H175941   3.597   6.315  12.721  1.6232 -1.6010  1.2461
18150TIP3    H275942   3.527   6.424  12.799 -1.0288 -1.6209 -1.0311
18151TIP3   OH275943   2.613   1.251   0.539  0.0076 -0.4890  0.1303
18151TIP3    H175944   2.592   1.336   0.500  1.2700  0.0874  0.6777
18151TIP3    H275945   2.553   1.190   0.497 -0.6455  0.6082 -0.5601
18152TIP3   OH275946   6.369   6.714  13.362 -0.5355  0.3514 -0.1567
18152TIP3    H175947   6.432   6.679  13.425 -1.9422 -1.6012  0.1808
18152TIP3    H275948   6.314   6.774  13.413 -2.1118 -1.7457  0.6580
18153TIP3   OH275949   0.621   2.247  11.431 -0.6126 -0.2177 -0.4739
18153TIP3    H175950   0.685   2.254  11.360  0.6091  0.9758  0.7264
18153TIP3    H275951   0.631   2.158  11.464 -0.4111 -0.4210 -1.0843
18154TIP3   OH275952   0.945   6.643   3.762  0.4801  0.5017 -0.4858
18154TIP3    H175953   0.913   6.689   3.839  3.1087 -0.0675  1.0161
18154TIP3    H275954   1.028   6.687   3.740  1.9304 -2.0581 -0.3344
18155TIP3   OH275955   4.652   1.018  15.936  0.9014 -0.3401  0.3552
18155TIP3    H175956   4.630   1.111  15.926  0.2606 -0.5673 -0.4897
18155TIP3    H275957   4.700   0.996  15.856 -0.8200 -1.2363 -0.4871
18156TIP3   OH275958   2.978   6.734  14.173  0.2985  0.4852  0.1639
18156TIP3    H175959   3.025   6.817  14.170 -0.3093  0.9128  1.9939
18156TIP3    H275960   3.002   6.690  14.091  0.3147  2.6273 -1.0247
18157TIP3   OH275961   1.813   4.608   5.559  0.0314 -0.7642  0.4296
18157TIP3    H175962   1.888   4.624   5.502  0.4417 -0.8843  0.9272
18157TIP3    H275963   1.810   4.685   5.617 -0.4341 -0.6014  0.1950
18158TIP3   OH275964   1.953   6.141  12.206  0.4698  0.6642  0.8668
18158TIP3    H175965   2.007   6.069  12.240  0.2934 -0.3581 -0.9720
18158TIP3    H275966   1.863   6.113  12.223  0.2826 -0.8873 -2.3233
18159TIP3   OH275967   4.947   4.821  14.338 -0.4101  0.1167  0.3439
18159TIP3    H175968   5.036   4.812  14.372 -0.1135 -4.0527 -1.1889
18159TIP3    H275969   4.901   4.874  14.403  1.9888 -1.5459  3.5035
18160TIP3   OH275970   2.566   0.497  16.929  0.2583 -0.1336  0.2572
18160TIP3    H175971   2.569   0.592  16.944  1.8667 -0.1771  0.2622
18160TIP3    H275972   2.577   0.488  16.834  3.9407 -0.4508  0.6465
18161TIP3   OH275973   0.853   6.057   2.753  0.8817  0.2994 -0.5659
18161TIP3    H175974   0.842   6.134   2.808  2.3893  0.9242 -1.1371
18161TIP3    H275975   0.849   6.090   2.663 -2.1644 -0.7807 -0.8988
18162TIP3   OH275976   0.375   1.673  14.191  0.4626  0.2244 -0.3225
18162TIP3    H175977   0.360   1.750  14.245  1.7436  0.8914 -0.9047
18162TIP3    H275978   0.297   1.619  14.204 -1.6138  2.7477 -1.8822
18163TIP3   OH275979   5.802   5.435  12.216 -0.0618  0.4272  0.0666
18163TIP3    H175980   5.834   5.449  12.305 -3.0555 -0.4988  1.3598
18163TIP3    H275981   5.803   5.522  12.176  1.1860  0.8753  1.0403
18164TIP3   OH275982   3.181   4.997  16.375  0.3465  0.1320 -0.2764
18164TIP3    H175983   3.182   5.031  16.285 -0.8426  1.4683  0.1846
18164TIP3    H275984   3.250   5.047  16.420 -0.2122  0.6979 -0.0358
18165TIP3   OH275985   1.237   5.114   2.611 -0.1960 -0.2186  0.4955
18165TIP3    H175986   1.283   5.053   2.668 -0.8759 -1.8097 -0.6290
18165TIP3    H275987   1.275   5.099   2.524 -0.8473  0.4838  0.0825
18166TIP3   OH275988   1.268   5.955  11.212  0.5397  0.6235 -0.0114
18166TIP3    H175989   1.357   5.929  11.237  0.3433  2.2270  2.5660
18166TIP3    H275990   1.248   5.902  11.135  3.1603 -0.8465  0.2616
18167TIP3   OH275991   2.717   4.383  11.879 -0.5229  0.4837  0.3933
18167TIP3    H175992   2.667   4.455  11.840 -0.0564  1.0146  0.7629
18167TIP3    H275993   2.808   4.401  11.855 -0.3277  0.3800  1.0404
18168TIP3   OH275994   5.956   2.827   5.831  0.1427  0.0966 -0.3003
18168TIP3    H175995   5.996   2.760   5.888  1.1911  0.7711 -0.2345
18168TIP3    H275996   5.992   2.809   5.744 -1.7059 -1.1356 -0.8525
18169TIP3   OH275997   4.022   4.945   3.615  0.0417  0.7379 -0.1182
18169TIP3    H175998   4.067   4.862   3.623 -1.3628  0.0807  1.4267
18169TIP3    H275999   4.084   5.003   3.572  1.6029 -0.6820  0.1969
18170TIP3   OH276000   6.691   0.160  14.372  0.0547  0.5801  0.3001
18170TIP3    H176001   6.736   0.215  14.308 -0.2652 -0.4457 -0.8277
18170TIP3    H276002   6.644   0.221  14.428  1.3082  1.5546  0.3067
18171TIP3   OH276003   6.732   6.440  15.523 -0.3225  0.0182 -0.9299
18171TIP3    H176004   6.731   6.529  15.559 -1.7392 -0.7137  0.9327
18171TIP3    H276005   6.639   6.417  15.514  0.0369 -0.9398 -2.2358
18172TIP3   OH276006   1.021   2.183   2.249  0.3615 -0.4075  0.2745
18172TIP3    H176007   1.029   2.199   2.155  2.4934 -3.1790 -0.0671
18172TIP3    H276008   0.927   2.169   2.263 -0.0511  0.6196 -1.3233
18173TIP3   OH276009   2.000   4.069   5.476  0.3702 -0.0118  0.4402
18173TIP3    H176010   1.972   4.039   5.390 -0.1658 -0.2593  0.6966
18173TIP3    H276011   1.950   4.014   5.538  2.7127 -1.7042  0.9144
18174TIP3   OH276012   2.893   1.494  12.876  0.1311 -0.5340 -0.7700
18174TIP3    H176013   2.820   1.540  12.917  0.9488  0.5409 -0.5124
18174TIP3    H276014   2.859   1.405  12.861 -0.5258 -0.6771  1.3279
18175TIP3   OH276015   0.637   3.716  16.851 -0.0738 -0.5832  0.0572
18175TIP3    H176016   0.616   3.808  16.835 -0.5338 -0.8745 -1.1032
18175TIP3    H276017   0.553   3.670  16.844 -0.0076 -0.9675  1.6389
18176TIP3   OH276018   4.099   4.217  17.000  0.8504  0.9778  0.0483
18176TIP3    H176019   4.182   4.264  16.996  0.2930  2.0842  1.0657
18176TIP3    H276020   4.076   4.218  17.093 -1.0106  1.9341 -0.3970
18177TIP3   OH276021   5.203   0.686  14.469 -0.2609 -0.6326  0.3295
18177TIP3    H176022   5.212   0.594  14.495  1.2582 -0.4354  0.5287
18177TIP3    H276023   5.115   0.691  14.430 -1.0331 -1.7865  1.8485
18178TIP3   OH276024   3.141   1.157  13.197  0.2118  0.5733 -0.4626
18178TIP3    H176025   3.173   1.247  13.208 -1.0614  0.9298  0.3922
18178TIP3    H276026   3.063   1.166  13.142 -0.0946  0.0155 -0.1179
18179TIP3   OH276027   2.066   5.293  15.584 -0.7168 -0.0181  0.1767
18179TIP3    H176028   2.040   5.210  15.543 -1.1452  0.2859 -0.1726
18179TIP3    H276029   1.987   5.347  15.580 -0.3547  0.5055  0.1491
18180TIP3   OH276030   2.550   3.546   0.657 -0.4699 -0.0406 -0.1712
18180TIP3    H176031   2.536   3.502   0.741 -1.0313  0.4306 -0.0138
18180TIP3    H276032   2.534   3.479   0.591 -1.8217  0.0401  0.0547
18181TIP3   OH276033   5.043   0.563  11.302 -0.2272 -0.4016 -0.1964
18181TIP3    H176034   4.953   0.567  11.269 -0.0753  0.3519 -0.5251
18181TIP3    H276035   5.035   0.587  11.395 -0.1697  1.1979 -0.5958
18182TIP3   OH276036   4.154   0.602  14.857  0.2060  0.6146  0.6175
18182TIP3    H176037   4.170   0.685  14.812  1.3854  0.4026  0.6222
18182TIP3    H276038   4.077   0.565  14.813 -0.3236  1.6969  0.6097
18183TIP3   OH276039   4.688   4.670  11.818 -0.1508  0.3970  0.2410
18183TIP3    H176040   4.723   4.756  11.839 -3.6009  2.4474 -1.9117
18183TIP3    H276041   4.737   4.642  11.741 -0.5275  1.4367 -0.3786
18184TIP3   OH276042   3.053   1.327   0.892 -0.2833 -0.3108  0.0170
18184TIP3    H176043   3.026   1.395   0.953  1.8833 -0.3715  1.0751
18184TIP3    H276044   3.130   1.362   0.848 -1.0583 -0.7827 -1.7879
18185TIP3   OH276045   1.516   1.794   2.614 -0.5652  0.3288  0.3790
18185TIP3    H176046   1.492   1.877   2.573  0.7895 -0.2484 -1.6213
18185TIP3    H276047   1.475   1.727   2.560  1.2817 -0.4453 -0.0974
18186TIP3   OH276048   3.516   5.963   1.677 -0.2256  0.1180 -0.3551
18186TIP3    H176049   3.461   5.994   1.748 -0.7558  0.7558 -1.0349
18186TIP3    H276050   3.457   5.915   1.620  0.6535 -2.4507  0.8496
18187TIP3   OH276051   2.284   5.097  14.456 -0.4432 -0.0415  0.0154
18187TIP3    H176052   2.317   5.145  14.380 -1.9048  2.0717  0.6495
18187TIP3    H276053   2.335   5.016  14.458  0.9490  0.7422 -2.0726
18188TIP3   OH276054   0.589   5.175  15.291 -0.4691  0.4169 -0.1619
18188TIP3    H176055   0.555   5.262  15.273  1.4360  1.5324  1.4495
18188TIP3    H276056   0.682   5.181  15.271 -0.4436 -1.4529 -0.7053
18189TIP3   OH276057   1.346   5.296  14.928  0.3326  0.1255  0.3658
18189TIP3    H176058   1.351   5.216  14.875  1.6494  0.0589  0.5853
18189TIP3    H276059   1.437   5.322  14.942 -0.0731  1.3557  0.7738
18190TIP3   OH276060   3.978   0.759   5.294 -0.4180 -0.3463 -0.0674
18190TIP3    H176061   4.041   0.690   5.275 -0.3694 -0.0019 -1.1731
18190TIP3    H276062   4.028   0.840   5.284 -0.9127 -0.0925 -0.4660
18191TIP3   OH276063   6.360   6.395   1.507  0.1072 -0.3495  0.6079
18191TIP3    H176064   6.397   6.318   1.463  0.0935 -0.3847  0.6575
18191TIP3    H276065   6.342   6.457   1.437  1.8611  0.3357  0.7321
18192TIP3   OH276066   4.423   2.081   2.737 -0.5154 -0.5907  0.1443
18192TIP3    H176067   4.414   2.088   2.832 -1.4334  2.5513 -0.0889
18192TIP3    H276068   4.361   2.146   2.703  0.1426 -1.3394 -2.5860
18193TIP3   OH276069   3.455   4.860  16.669 -0.4277  0.3512 -0.0823
18193TIP3    H176070   3.363   4.887  16.665 -0.6869 -0.7498 -1.9470
18193TIP3    H276071   3.471   4.843  16.762 -1.7738  1.6920  0.4021
18194TIP3   OH276072   1.597   6.253   4.902  0.9571  0.4877 -0.3027
18194TIP3    H176073   1.627   6.253   4.811  2.1959  2.0200  0.0744
18194TIP3    H276074   1.675   6.277   4.952  0.6560 -1.7410  1.3105
18195TIP3   OH276075   5.587   0.080   2.959  0.2781 -0.1233 -0.6859
18195TIP3    H176076   5.584   0.142   2.886 -0.9206 -1.2964 -1.6619
18195TIP3    H276077   5.513   0.020   2.943  1.4048 -1.8039  0.2202
18196TIP3   OH276078   4.854   4.374  15.474 -0.3575  0.4135 -0.5731
18196TIP3    H176079   4.944   4.392  15.446  0.7014 -4.7331 -1.0014
18196TIP3    H276080   4.800   4.398  15.399  1.3920 -2.6535 -2.9176
18197TIP3   OH276081   4.606   5.113   5.777  0.3694 -0.3503  0.1867
18197TIP3    H176082   4.637   5.202   5.759 -0.3717 -0.1932 -0.3752
18197TIP3    H276083   4.677   5.056   5.747 -0.6211 -0.0810 -2.9308
18198TIP3   OH276084   6.276   2.581   3.290 -0.3331 -0.4855 -0.0646
18198TIP3    H176085   6.342   2.515   3.313 -0.8263 -1.4565 -1.3923
18198TIP3    H276086   6.277   2.642   3.364  2.5979 -0.0486 -0.4054
18199TIP3   OH276087   3.373   4.039  10.533 -0.0806  0.2261 -0.0581
18199TIP3    H176088   3.375   4.133  10.550 -0.5884  0.2142  0.0720
18199TIP3    H276089   3.322   4.031  10.453  0.3277  0.0940 -0.3045
18200TIP3   OH276090   2.554   1.609  11.350  0.5363 -0.0675  0.1037
18200TIP3    H176091   2.531   1.639  11.262  0.2810  0.2378  0.2720
18200TIP3    H276092   2.471   1.614  11.399  0.3738 -1.5507  0.0010
18201TIP3   OH276093   0.725   0.093   4.209  0.1515  0.0465  1.0471
18201TIP3    H176094   0.752   0.114   4.299 -0.8625 -0.0918  1.3902
18201TIP3    H276095   0.637   0.058   4.218 -0.3523  0.9689 -0.1211
18202TIP3   OH276096   2.771   4.286  10.708  0.1398 -0.1304  0.2491
18202TIP3    H176097   2.704   4.332  10.759  0.7183  0.6003  0.3499
18202TIP3    H276098   2.843   4.273  10.769  0.6046  0.2235 -0.2210
18203TIP3   OH276099   2.998   0.096   3.013  0.7464 -0.2479 -0.1761
18203TIP3    H176100   2.911   0.134   3.028  0.9770 -0.4577  1.7986
18203TIP3    H276101   3.052   0.170   2.984  0.7805  0.6565  2.0571
18204TIP3   OH276102   2.150   5.013   0.589 -0.7083 -0.3376  0.2036
18204TIP3    H176103   2.169   5.090   0.536 -3.5903 -0.1383 -0.5909
18204TIP3    H276104   2.232   4.995   0.635  0.6921  1.7726 -1.3959
18205TIP3   OH276105   1.757   1.519   0.653 -0.5796 -0.0074 -0.3135
18205TIP3    H176106   1.750   1.458   0.580  1.0197  0.3434 -0.7796
18205TIP3    H276107   1.802   1.596   0.616 -0.9277  0.7057  0.7098
18206TIP3   OH276108   1.362   5.633  16.538  0.0572 -0.5382  0.3644
18206TIP3    H176109   1.449   5.673  16.531 -0.2247  0.1044  0.4868
18206TIP3    H276110   1.374   5.543  16.508  0.4564 -0.0113 -1.1121
18207TIP3   OH276111   2.454   2.494  13.244 -0.1087  0.5028 -0.8321
18207TIP3    H176112   2.434   2.575  13.290 -1.0110 -0.6092  0.7609
18207TIP3    H276113   2.543   2.472  13.272  0.0103  0.7500 -1.0094
18208TIP3   OH276114   2.106   1.899  12.106 -0.1047  0.3743  0.1615
18208TIP3    H176115   2.028   1.844  12.117 -1.1323  1.8288  0.4198
18208TIP3    H276116   2.179   1.838  12.098 -1.1870 -0.9988  0.6890
18209TIP3   OH276117   6.702   0.072  10.778 -0.2945  0.3448 -0.3376
18209TIP3    H176118   6.619   0.053  10.734 -0.3394  1.0016 -0.5284
18209TIP3    H276119   6.706   0.167  10.782  0.6365  0.3175 -0.6693
18210TIP3   OH276120   5.697   1.777  11.738  0.5015  0.0041 -0.3760
18210TIP3    H176121   5.724   1.740  11.654  1.6377 -1.5597  0.6275
18210TIP3    H276122   5.603   1.762  11.742  0.7096 -1.4577 -0.6612
18211TIP3   OH276123   2.826   3.125  15.529  0.3569 -0.2893 -0.4920
18211TIP3    H176124   2.834   3.053  15.592  0.5079  1.3905  1.4496
18211TIP3    H276125   2.734   3.124  15.503  0.0865 -0.4301  0.4469
18212TIP3   OH276126   1.210   6.009  14.442 -0.2002 -0.3611  0.3394
18212TIP3    H176127   1.251   6.062  14.374 -1.1212  2.4267  1.8754
18212TIP3    H276128   1.160   5.943  14.393  1.7392 -0.4750 -1.6003
18213TIP3   OH276129   4.565   0.457  16.825 -0.4561 -0.3678 -0.2835
18213TIP3    H176130   4.596   0.544  16.851  0.0222 -0.7871  0.5560
18213TIP3    H276131   4.495   0.437  16.887 -1.4486 -0.0463 -1.2769
18214TIP3   OH276132   2.938   4.096   1.879  0.0581  0.3726 -0.2852
18214TIP3    H176133   2.874   4.048   1.932  0.3446  0.3329  0.0291
18214TIP3    H276134   2.890   4.172   1.847 -0.0707  0.4904  0.1796
18215TIP3   OH276135   3.076   4.576   3.139 -0.1552 -0.1872  0.2630
18215TIP3    H176136   3.112   4.488   3.144 -1.3066 -0.6233  1.1639
18215TIP3    H276137   3.022   4.576   3.061  0.7065  0.0599 -0.3416
18216TIP3   OH276138   3.116   0.907   4.724 -0.3604  0.6687  0.0360
18216TIP3    H176139   3.096   0.818   4.752  0.2365 -0.4144 -2.8158
18216TIP3    H276140   3.179   0.939   4.788 -0.5154 -0.9972  1.0376
18217TIP3   OH276141   5.993   2.003  16.214  0.1256 -0.1374  0.1230
18217TIP3    H176142   5.970   2.075  16.272 -0.1439 -1.1017  1.2247
18217TIP3    H276143   5.916   1.946  16.214  0.0943 -0.1237 -1.2298
18218TIP3   OH276144   6.128   0.436   1.987  0.6492  0.2418 -0.3900
18218TIP3    H176145   6.155   0.518   1.945  0.1842 -0.2354 -1.6400
18218TIP3    H276146   6.141   0.369   1.919  0.2345 -0.6017  0.3522
18219TIP3   OH276147   4.509   2.286  12.738  0.3023  0.5092 -0.6030
18219TIP3    H176148   4.595   2.319  12.766 -0.3170  0.9329  0.8320
18219TIP3    H276149   4.471   2.358  12.687  0.7534  0.3596 -1.1561
18220TIP3   OH276150   6.652   0.443  14.602  0.5174  0.7068 -0.1237
18220TIP3    H176151   6.741   0.446  14.637 -0.2393  0.1191  1.8858
18220TIP3    H276152   6.650   0.511  14.535  2.1515  1.4530  0.5770
18221TIP3   OH276153   0.090   2.104  12.442  0.0424 -0.1443 -1.1263
18221TIP3    H176154   0.085   2.107  12.346  1.9171  1.2245 -1.2016
18221TIP3    H276155   0.173   2.146  12.463 -0.3068 -0.5239  1.1139
18222TIP3   OH276156   6.554   1.932  15.211 -0.0652  0.5008  0.1866
18222TIP3    H176157   6.596   1.847  15.223 -0.5073  0.4732  1.5628
18222TIP3    H276158   6.466   1.922  15.248 -0.0458  1.6149  0.5624
18223TIP3   OH276159   5.556   6.134  11.834  0.2612  0.1638  0.1224
18223TIP3    H176160   5.492   6.077  11.791  0.9821 -0.9513  0.4879
18223TIP3    H276161   5.640   6.110  11.794  1.1468 -1.8003  2.9870
18224TIP3   OH276162   0.113   0.638   2.778 -0.0523 -0.8342  0.1368
18224TIP3    H176163   0.117   0.597   2.692  0.2156  0.2047 -0.3506
18224TIP3    H276164   0.045   0.705   2.769 -1.6794 -2.2464  1.4041
18225TIP3   OH276165   1.496   0.843  16.402 -0.0521  0.0594  0.3179
18225TIP3    H176166   1.566   0.814  16.343  0.0574 -0.0796  0.5191
18225TIP3    H276167   1.484   0.771  16.463 -1.0220 -0.3076 -0.2833
18226TIP3   OH276168   0.921   6.210   5.994 -0.6813  0.4083  0.1799
18226TIP3    H176169   0.978   6.284   5.975  1.8001 -1.5518 -0.2925
18226TIP3    H276170   0.901   6.173   5.908 -2.0101  0.5679  0.4013
18227TIP3   OH276171   3.512   3.148   1.478  0.2494 -0.1718 -0.0968
18227TIP3    H176172   3.532   3.227   1.529  1.8133 -0.0614 -0.8665
18227TIP3    H276173   3.453   3.098   1.535 -0.3507  1.2965  0.6157
18228TIP3   OH276174   5.743   6.544   5.114 -0.2600 -0.2927  0.3255
18228TIP3    H176175   5.703   6.515   5.196  0.1787 -1.7736  0.0405
18228TIP3    H276176   5.766   6.635   5.130 -1.8287 -0.0242  1.2145
18229TIP3   OH276177   0.578   5.844   5.325  0.0723 -0.2850  0.4692
18229TIP3    H176178   0.544   5.897   5.253  1.5756 -0.2331 -0.2137
18229TIP3    H276179   0.640   5.901   5.371  0.7688 -1.0315  0.4785
18230TIP3   OH276180   3.444   6.363  16.630 -0.0322  0.0192  0.1993
18230TIP3    H176181   3.473   6.342  16.541  0.7956  1.6885  0.0559
18230TIP3    H276182   3.368   6.420  16.619  0.2773  0.5064  0.5601
18231TIP3   OH276183   6.319   2.485  11.320 -0.4110  0.2407  0.3153
18231TIP3    H176184   6.293   2.559  11.265 -1.5631 -0.1423  0.3501
18231TIP3    H276185   6.403   2.457  11.284 -1.8049 -0.8850 -2.1387
18232TIP3   OH276186   2.805   2.574   6.261 -0.5742  0.1928 -0.1310
18232TIP3    H176187   2.742   2.552   6.329  0.6391 -0.7464  0.6999
18232TIP3    H276188   2.877   2.618   6.308  0.6038 -1.1140 -0.6822
18233TIP3   OH276189   4.429   5.598   2.082  0.0336 -0.2934  0.2955
18233TIP3    H176190   4.519   5.574   2.101  0.1509  2.5890  4.0123
18233TIP3    H276191   4.380   5.567   2.158 -1.8018 -0.1349 -0.7947
18234TIP3   OH276192   5.488   6.331   1.088  0.2238  1.1776 -0.5221
18234TIP3    H176193   5.392   6.337   1.087  0.2183  1.5203  0.6593
18234TIP3    H276194   5.514   6.340   0.997 -1.0229 -1.5066 -1.1770
18235TIP3   OH276195   5.991   6.812   1.718  0.0310  0.0115  0.7333
18235TIP3    H176196   6.042   6.821   1.798  0.5798  1.4559  0.2302
18235TIP3    H276197   5.934   6.889   1.716 -0.9766 -0.7235  0.4314
18236TIP3   OH276198   5.290   3.601  14.604 -0.2283  0.0523  0.3746
18236TIP3    H176199   5.220   3.610  14.669 -1.2342 -1.9746 -0.3736
18236TIP3    H276200   5.260   3.654  14.529 -1.1512 -1.1088 -0.0851
18237TIP3   OH276201   2.785   1.489   1.608  0.5097 -0.0284  0.0297
18237TIP3    H176202   2.831   1.489   1.692  0.9597  0.7461 -0.2200
18237TIP3    H276203   2.852   1.513   1.544 -0.0233  0.1746 -0.4525
18238TIP3   OH276204   1.308   0.252   6.376  0.6404 -0.2218 -0.1425
18238TIP3    H176205   1.249   0.281   6.446 -0.7160 -2.0815 -0.4638
18238TIP3    H276206   1.375   0.320   6.371 -0.6823  1.2261  1.2165
18239TIP3   OH276207   5.048   1.166   1.797 -0.3198  0.1910 -0.1468
18239TIP3    H176208   4.960   1.166   1.835 -0.2834  2.0607 -0.0244
18239TIP3    H276209   5.057   1.252   1.757  1.1341 -0.3058 -0.9276
18240TIP3   OH276210   2.762   1.559  11.887  0.2142  0.0269 -0.3389
18240TIP3    H176211   2.832   1.620  11.912  0.6221 -0.5091 -0.1778
18240TIP3    H276212   2.689   1.616  11.861 -0.4366  0.6114  2.5707
18241TIP3   OH276213   5.429   4.022  15.760  0.5131 -0.2145 -0.1309
18241TIP3    H176214   5.429   4.112  15.728  0.1439 -0.4518 -0.8195
18241TIP3    H276215   5.421   3.969  15.680  0.1975 -0.8351  0.3131
18242TIP3   OH276216   4.397   4.650   3.615 -0.7940 -0.2703 -0.0475
18242TIP3    H176217   4.383   4.563   3.578 -0.9108 -0.2598 -0.0270
18242TIP3    H276218   4.424   4.704   3.541  0.8447 -0.7011  0.2161
18243TIP3   OH276219   4.752   5.395  11.521  0.5305 -0.2380  0.0023
18243TIP3    H176220   4.759   5.405  11.426  2.0572  0.8916  0.2161
18243TIP3    H276221   4.827   5.442  11.555  1.1807 -2.3984  1.6832
18244TIP3   OH276222   4.977   5.431  14.360  0.1987  0.4942  0.1082
18244TIP3    H176223   5.049   5.438  14.422  0.7914 -0.8487 -0.4173
18244TIP3    H276224   5.011   5.469  14.279  0.9039 -1.6408 -0.6206
18245TIP3   OH276225   2.305   1.354  17.049 -0.2957 -0.1693 -0.0932
18245TIP3    H176226   2.326   1.277  16.996  1.4977  0.0733  0.2520
18245TIP3    H276227   2.315   1.428  16.989 -0.9307 -0.1114 -0.1289
18246TIP3   OH276228   1.704   1.135   3.685 -0.3731  0.8629  0.1593
18246TIP3    H176229   1.682   1.043   3.674  1.0889  0.6533 -1.1331
18246TIP3    H276230   1.677   1.176   3.602  1.0022  1.1921 -0.1291
18247TIP3   OH276231   1.734   5.266   2.929  0.1513  0.1432 -0.0592
18247TIP3    H176232   1.751   5.171   2.927  0.8620  0.2803 -0.9134
18247TIP3    H276233   1.783   5.297   3.005 -0.4895 -0.2419  0.5223
18248TIP3   OH276234   0.622   6.374   0.724  0.2769  0.2227  0.6649
18248TIP3    H176235   0.673   6.360   0.644 -2.2659 -0.2335 -0.9314
18248TIP3    H276236   0.685   6.360   0.795  2.3773 -0.2487 -1.2176
18249TIP3   OH276237   5.999   1.411  12.286 -0.7103  0.1603  0.7271
18249TIP3    H176238   5.975   1.394  12.377  0.1109 -2.1437  0.5428
18249TIP3    H276239   5.941   1.353  12.235  0.3868 -0.2226 -0.0991
18250TIP3   OH276240   0.839   3.523   0.133  0.2827  0.4050  0.3287
18250TIP3    H176241   0.892   3.443   0.139  1.0000  0.8703  0.3527
18250TIP3    H276242   0.753   3.498   0.167  0.6218 -0.2452  0.7254
18251TIP3   OH276243   0.344   0.089  15.660  0.3321 -0.6875  0.8453
18251TIP3    H176244   0.430   0.127  15.679  0.1453  0.2446 -0.1205
18251TIP3    H276245   0.282   0.157  15.687 -0.0130 -0.4098 -0.6117
18252TIP3   OH276246   5.226   3.830  17.049  0.1982  0.3999  0.0163
18252TIP3    H176247   5.247   3.915  17.088  1.3140 -0.3951  1.1665
18252TIP3    H276248   5.230   3.768  17.122 -1.3427 -0.5374 -0.6722
18253TIP3   OH276249   0.186   1.500  14.372 -0.2236 -0.0358 -0.5419
18253TIP3    H176250   0.217   1.429  14.315  0.7839 -0.6861  0.7716
18253TIP3    H276251   0.259   1.516  14.431 -0.9995  1.1031  0.1147
18254TIP3   OH276252   3.998   3.592  10.863  0.2260  0.3486  0.4576
18254TIP3    H176253   3.962   3.673  10.829  1.9055  0.6294 -0.7332
18254TIP3    H276254   4.037   3.549  10.787 -0.0588 -1.2623  1.1914
18255TIP3   OH276255   3.526   2.472  13.869 -0.2670  0.3696 -0.6230
18255TIP3    H176256   3.517   2.531  13.944 -1.5257  0.7894 -1.1000
18255TIP3    H276257   3.617   2.483  13.842  0.1162  0.4604  0.6372
18256TIP3   OH276258   1.315   5.696  14.585 -0.4619  0.4086  0.1304
18256TIP3    H176259   1.365   5.618  14.607 -1.6738 -1.0445 -2.1359
18256TIP3    H276260   1.375   5.748  14.531 -0.0414  0.5181  0.7051
18257TIP3   OH276261   0.806   4.596   2.450  0.1495 -0.6904 -0.0217
18257TIP3    H176262   0.773   4.653   2.381  0.7667 -0.5939 -0.2408
18257TIP3    H276263   0.829   4.655   2.522  1.1782 -0.6201 -0.4044
18258TIP3   OH276264   1.954   0.114  14.981 -0.2013 -0.4223 -0.1318
18258TIP3    H176265   1.886   0.050  15.005  1.0170 -0.8346  2.4672
18258TIP3    H276266   1.913   0.199  14.997 -0.6806 -0.6360 -0.2090
18259TIP3   OH276267   4.823   3.939   5.033  0.1503 -0.0437 -0.6257
18259TIP3    H176268   4.794   4.017   4.985  1.8337  0.0653 -1.4700
18259TIP3    H276269   4.745   3.911   5.082 -0.6502  1.7599 -0.8534
18260TIP3   OH276270   4.109   4.032   5.514 -0.3816  0.1009 -0.1632
18260TIP3    H176271   4.022   4.006   5.482 -0.8725  0.4623  0.8453
18260TIP3    H276272   4.154   3.949   5.529 -0.1701 -0.0703 -1.7135
18261TIP3   OH276273   3.153   6.090   2.625 -0.1078 -0.3549  0.2390
18261TIP3    H176274   3.191   6.050   2.703  0.6003 -0.1795 -0.0133
18261TIP3    H276275   3.228   6.118   2.573 -0.5912  0.8046  0.1511
18262TIP3   OH276276   0.478   3.627  11.659 -0.6766  0.0942  0.2268
18262TIP3    H176277   0.428   3.688  11.605 -1.0240  1.0132  1.5664
18262TIP3    H276278   0.431   3.624  11.742  0.5381 -0.3626  0.9040
18263TIP3   OH276279   0.330   6.769   5.903 -0.0910 -0.1888 -0.3338
18263TIP3    H176280   0.377   6.719   5.969 -2.9485 -1.1347  1.0831
18263TIP3    H276281   0.274   6.828   5.954 -1.1520  0.1956 -1.9219
18264TIP3   OH276282   0.948   6.261   0.152 -0.1859  0.1435  0.2636
18264TIP3    H176283   1.010   6.192   0.176 -0.3185  0.1231  0.5447
18264TIP3    H276284   0.881   6.216   0.100 -0.7002 -0.0893  1.1185
18265TIP3   OH276285   3.472   2.125  15.583 -0.2052 -0.0374 -0.1818
18265TIP3    H176286   3.541   2.109  15.519  1.2068  0.5593  1.1698
18265TIP3    H276287   3.454   2.219  15.576 -0.4236 -0.0721 -0.0830
18266TIP3   OH276288   0.615   0.103   3.005  0.0151  0.3775 -0.0490
18266TIP3    H176289   0.614   0.009   2.992 -0.1376  0.1532  1.4572
18266TIP3    H276290   0.603   0.140   2.918  2.8111 -0.9559 -1.0526
18267TIP3   OH276291   0.158   1.883  14.590 -0.0755  0.1040  0.0572
18267TIP3    H176292   0.231   1.945  14.579 -0.8854  0.9531 -0.5871
18267TIP3    H276293   0.090   1.933  14.635 -1.2316  0.0774 -1.6320
18268TIP3   OH276294   5.682   0.345   0.763  0.0668  0.3038  0.9481
18268TIP3    H176295   5.693   0.400   0.686 -0.2822 -0.9119  0.0181
18268TIP3    H276296   5.753   0.371   0.821 -0.3709  2.0540  0.7239
18269TIP3   OH276297   2.322   4.283  11.513  0.0470  0.1136  0.2981
18269TIP3    H176298   2.322   4.305  11.421 -0.9908 -1.1868 -0.0356
18269TIP3    H276299   2.410   4.249  11.530  0.1873  0.2094 -0.2468
18270TIP3   OH276300   6.322   6.353  15.915 -0.3209 -0.0930 -0.1801
18270TIP3    H176301   6.409   6.337  15.951 -0.5319  1.1308  0.9098
18270TIP3    H276302   6.315   6.448  15.910 -0.6774 -0.2119 -2.5982
18271TIP3   OH276303   5.297   3.845  12.223  0.0533  1.3073  0.4376
18271TIP3    H176304   5.201   3.838  12.216 -0.0487  2.1005  0.9703
18271TIP3    H276305   5.316   3.933  12.190  0.8764  0.1996 -2.2122
18272TIP3   OH276306   0.335   3.343   1.510 -0.1962 -0.0250 -0.9879
18272TIP3    H176307   0.287   3.261   1.522  0.2397 -0.0276  0.9025
18272TIP3    H276308   0.424   3.315   1.488 -0.0507 -0.0559 -0.3556
18273TIP3   OH276309   5.212   3.508   4.446 -0.2907 -0.1863  0.0246
18273TIP3    H176310   5.249   3.575   4.503  1.2293 -0.4240 -0.6727
18273TIP3    H276311   5.185   3.438   4.505  1.2827 -0.4320  0.4557
18274TIP3   OH276312   2.367   2.643  16.876  0.0285  0.3857 -0.3446
18274TIP3    H176313   2.337   2.655  16.786  0.4001  0.6117 -0.4415
18274TIP3    H276314   2.343   2.553  16.898 -0.4670  0.4755 -0.5131
18275TIP3   OH276315   2.894   0.063   2.644  0.5520  0.0590  0.3706
18275TIP3    H176316   2.861   0.048   2.732  2.2834 -2.4844  0.6362
18275TIP3    H276317   2.981   0.101   2.656  0.8177 -0.3501 -0.2303
18276TIP3   OH276318   5.569   1.294  15.518 -0.1560  0.0602 -0.6123
18276TIP3    H176319   5.569   1.244  15.600 -0.6225  1.9007  0.5430
18276TIP3    H276320   5.556   1.385  15.545 -1.0197  0.6279 -2.7930
18277TIP3   OH276321   5.545   4.546  14.035  0.3815  0.3882 -0.2474
18277TIP3    H176322   5.616   4.539  14.099 -0.3549  0.4176  0.5902
18277TIP3    H276323   5.484   4.478  14.061 -0.6865  1.4444  0.0617
18278TIP3   OH276324   3.428   3.693  12.845 -0.1930  0.3913  0.0975
18278TIP3    H176325   3.472   3.705  12.929 -0.6422  0.1710  0.3672
18278TIP3    H276326   3.444   3.775  12.798 -2.8672  1.9402  1.7545
18279TIP3   OH276327   0.110   0.297  15.351  0.1427 -0.1784  0.7478
18279TIP3    H176328   0.198   0.261  15.354 -1.0178 -3.3697 -0.6357
18279TIP3    H276329   0.100   0.330  15.262 -0.3562 -0.6424  0.6293
18280TIP3   OH276330   4.713   4.974   3.556  0.1771 -0.0862  0.3325
18280TIP3    H176331   4.649   4.914   3.516  1.0088 -0.9095  0.2260
18280TIP3    H276332   4.661   5.048   3.585 -0.5160  0.3241 -1.8907
18281TIP3   OH276333   0.722   4.716  17.172  0.3254  1.2976  1.0074
18281TIP3    H176334   0.627   4.707  17.176  0.3803  0.0696 -0.2819
18281TIP3    H276335   0.737   4.777  17.100  0.6302 -0.9745 -0.8879
18282TIP3   OH276336   5.100   3.738   0.735 -0.8699  0.5624  0.0421
18282TIP3    H176337   5.104   3.719   0.829 -1.4393 -0.6437 -0.1633
18282TIP3    H276338   5.041   3.671   0.700  1.5303 -0.7779 -1.6126
18283TIP3   OH276339   3.289   2.510   2.679  0.2766 -0.6737 -0.0151
18283TIP3    H176340   3.335   2.571   2.622  2.3159 -2.0340  0.1203
18283TIP3    H276341   3.202   2.548   2.690  1.1718  1.6707 -0.7459
18284TIP3   OH276342   1.858   2.351  16.308  0.2501 -0.2545 -0.1401
18284TIP3    H176343   1.843   2.379  16.218 -0.0203 -1.5956 -0.5178
18284TIP3    H276344   1.887   2.260  16.300  0.4555 -0.2996  1.1116
18285TIP3   OH276345   3.544   3.972  16.690 -0.6207  0.0716  0.0886
18285TIP3    H176346   3.482   3.945  16.623 -0.5114  1.3252 -0.5378
18285TIP3    H276347   3.532   4.067  16.697 -0.1181  0.0592  1.3166
18286TIP3   OH276348   5.652   4.348  11.555  0.4174 -0.3182  0.2279
18286TIP3    H176349   5.664   4.291  11.630 -0.1573  0.0285  0.5874
18286TIP3    H276350   5.557   4.360  11.548  0.6149  2.4040  1.5435
18287TIP3   OH276351   2.936   2.124  11.670 -0.0833 -0.7487 -0.7214
18287TIP3    H176352   2.984   2.149  11.749 -0.8294  2.1943 -1.1296
18287TIP3    H276353   2.931   2.205  11.619  0.9166 -2.6927 -4.1024
18288TIP3   OH276354   0.079   0.722  13.288 -0.1276  0.2061 -0.1921
18288TIP3    H176355   0.117   0.734  13.201  0.7033 -0.1863  0.1122
18288TIP3    H276356  -0.015   0.711  13.272 -0.0710  0.8176 -0.9805
18289TIP3   OH276357   5.203   2.694   3.018 -0.7273  0.4542 -0.3512
18289TIP3    H176358   5.168   2.663   3.101  3.2686 -1.5849  0.7164
18289TIP3    H276359   5.167   2.634   2.953 -0.0280 -0.9917  0.5722
18290TIP3   OH276360   3.081   5.141  13.246  0.7731 -0.3449 -0.9114
18290TIP3    H176361   3.140   5.216  13.249  1.4604 -0.9136  0.0386
18290TIP3    H276362   3.088   5.101  13.333 -0.0361 -1.1665 -1.2127
18291TIP3   OH276363   2.407   5.228   2.680  0.0844  0.2663  0.2297
18291TIP3    H176364   2.341   5.210   2.612  1.2968 -0.4174 -0.7899
18291TIP3    H276365   2.420   5.144   2.724  0.9281  0.1752 -0.1798
18292TIP3   OH276366   6.622   1.062  13.258 -0.8281  0.4783  0.4982
18292TIP3    H176367   6.571   1.033  13.182 -1.0167  1.1338  0.3716
18292TIP3    H276368   6.558   1.068  13.329 -0.7914  0.5874  0.5209
18293TIP3   OH276369   1.040   1.179   4.976 -0.5835 -0.0664 -0.2166
18293TIP3    H176370   1.023   1.101   5.028 -0.3968  1.1012  1.6516
18293TIP3    H276371   1.127   1.165   4.940  0.2398  0.0565  1.6351
18294TIP3   OH276372   1.975   1.366   5.419 -0.4016  0.2677  0.3061
18294TIP3    H176373   2.036   1.398   5.485  0.5746  0.6041 -0.7464
18294TIP3    H276374   1.893   1.353   5.466  1.3673 -3.6277  2.5792
18295TIP3   OH276375   5.587   1.074  11.948 -0.1808  0.5231  0.3956
18295TIP3    H176376   5.583   1.037  12.036  1.0757  2.5996  1.3549
18295TIP3    H276377   5.497   1.099  11.929 -0.4408  0.1518  1.1120
18296TIP3   OH276378   2.163   0.860   5.512 -0.4404 -0.0823  0.3484
18296TIP3    H176379   2.086   0.917   5.502 -2.2225 -2.4724  0.0623
18296TIP3    H276380   2.182   0.861   5.606  0.9456  2.7253  0.0831
18297TIP3   OH276381   1.903   0.742  15.254 -0.5328 -0.4191  0.0961
18297TIP3    H176382   1.997   0.729  15.262 -0.8155 -1.4555  2.0243
18297TIP3    H276383   1.892   0.837  15.251  0.6867 -0.3192 -1.9302
18298TIP3   OH276384   2.325   5.348   5.649  0.2435  0.1362  0.2802
18298TIP3    H176385   2.331   5.269   5.703 -1.2069  0.1593  0.4710
18298TIP3    H276386   2.403   5.345   5.593  1.4206 -0.2325  1.9061
18299TIP3   OH276387   0.095   5.907   6.576 -0.1273  0.1068 -0.0051
18299TIP3    H176388   0.150   5.977   6.541 -0.2663  0.7222  0.9971
18299TIP3    H276389   0.075   5.852   6.500 -0.2912  1.3319 -0.8532
18300TIP3   OH276390   0.444   2.738  13.292  0.2631  0.0119 -0.4163
18300TIP3    H176391   0.376   2.796  13.328  1.5435  2.1710 -1.3894
18300TIP3    H276392   0.526   2.776  13.322  1.1357 -1.4840 -0.8663
18301TIP3   OH276393   1.159   2.067   1.235  0.2792 -0.1526 -0.2425
18301TIP3    H176394   1.175   1.973   1.223  0.4228 -0.0672 -0.7549
18301TIP3    H276395   1.167   2.081   1.329  0.3370 -0.6401 -0.1713
18302TIP3   OH276396   6.530   3.024   3.205  0.7246  0.0813 -0.3656
18302TIP3    H176397   6.544   3.055   3.116 -2.5570  1.4462 -0.4810
18302TIP3    H276398   6.482   2.942   3.194 -0.6331  0.7998  0.1490
18303TIP3   OH276399   2.967   6.018  16.737 -0.2356 -0.5499  0.2683
18303TIP3    H176400   3.046   6.022  16.683  0.4572 -2.5878  1.0438
18303TIP3    H276401   2.897   5.995  16.676 -0.0120  0.0515 -0.2225
18304TIP3   OH276402   2.242   4.319  14.759  0.5651 -0.2878  0.3582
18304TIP3    H176403   2.168   4.336  14.700 -0.2266  0.3308  1.5197
18304TIP3    H276404   2.259   4.225  14.749 -2.3546 -1.0706  2.3332
18305TIP3   OH276405   1.858   3.456   0.008  0.3076  0.1584 -0.2185
18305TIP3    H176406   1.879   3.440   0.100 -2.4886  3.1744  1.0660
18305TIP3    H276407   1.794   3.388  -0.014 -0.0273  0.2453  0.4815
18306TIP3   OH276408   1.990   3.711   1.466  0.2638 -0.2323  0.1940
18306TIP3    H176409   2.033   3.796   1.458 -0.4118 -0.1162 -3.1781
18306TIP3    H276410   1.907   3.722   1.419  0.7573 -3.0864 -1.4794
18307TIP3   OH276411   0.347   3.386  11.569 -0.3260  0.0854 -0.0375
18307TIP3    H176412   0.382   3.471  11.594  2.1261 -1.0704  0.5597
18307TIP3    H276413   0.394   3.362  11.489  1.6307 -2.2495  1.7132
18308TIP3   OH276414   3.420   3.526   4.050  0.5944 -0.2139  0.8931
18308TIP3    H176415   3.371   3.450   4.018  2.0165 -1.0675  0.7104
18308TIP3    H276416   3.360   3.600   4.036  0.4022 -0.8258 -1.9496
18309TIP3   OH276417   1.968   2.842   1.212 -0.4621 -0.6399  0.1508
18309TIP3    H176418   1.984   2.794   1.293 -0.3285  0.9515  1.0793
18309TIP3    H276419   2.033   2.808   1.151 -0.1386 -1.3772  0.8957
18310TIP3   OH276420   2.152   1.810  16.856  0.6480 -0.5548  0.1909
18310TIP3    H176421   2.233   1.813  16.907  1.7757  2.0895 -1.6354
18310TIP3    H276422   2.084   1.840  16.917  1.4091 -0.6910  1.1064
18311TIP3   OH276423   2.194   6.034  13.900  0.2369  0.3078 -0.7510
18311TIP3    H176424   2.227   6.123  13.910  1.3518 -0.0551 -1.0176
18311TIP3    H276425   2.099   6.042  13.902  0.3421  1.3597  0.4107
18312TIP3   OH276426   2.759   1.232   1.036 -0.1281  0.8174  0.1601
18312TIP3    H176427   2.738   1.145   1.070  0.9493 -0.3648 -2.0308
18312TIP3    H276428   2.679   1.261   0.994 -0.1087  0.3054 -0.2380
18313TIP3   OH276429   3.791   6.563  13.925 -0.0068  0.2956 -0.2894
18313TIP3    H176430   3.808   6.479  13.968 -2.9859 -0.7065 -0.9642
18313TIP3    H276431   3.697   6.579  13.940  0.2813  2.9881 -1.0816
18314TIP3   OH276432   0.448   3.865  15.844  0.1468  0.1149 -0.2151
18314TIP3    H176433   0.531   3.833  15.878  0.3978  0.5321 -0.4174
18314TIP3    H276434   0.405   3.788  15.807  0.4559 -0.0992 -0.1288
18315TIP3   OH276435   1.927   5.394   3.759 -0.2436  0.4105 -0.4026
18315TIP3    H176436   1.970   5.332   3.818 -1.0538 -0.5028 -0.7526
18315TIP3    H276437   1.999   5.432   3.708  0.4258  0.9551  0.9296
18316TIP3   OH276438   0.583   0.732  16.956  0.1848 -0.3436  0.7951
18316TIP3    H176439   0.517   0.664  16.968  0.8457 -1.2637 -0.6757
18316TIP3    H276440   0.629   0.736  17.040 -0.4223 -1.1115  1.1658
18317TIP3   OH276441   4.573   0.250  16.130 -0.0046  0.3293  0.0330
18317TIP3    H176442   4.480   0.246  16.150 -0.2156  0.7951 -0.8852
18317TIP3    H276443   4.587   0.177  16.069  0.3315 -0.0539  0.5616
18318TIP3   OH276444   0.190   2.260   2.610 -0.0550 -0.4574  0.6350
18318TIP3    H176445   0.211   2.246   2.703 -2.7052 -0.2034  1.3039
18318TIP3    H276446   0.158   2.350   2.606 -1.2047 -0.9070 -0.2993
18319TIP3   OH276447   3.555   0.098   3.436  0.2733 -0.4382  1.1169
18319TIP3    H176448   3.610   0.173   3.459 -1.8554  1.5296 -0.0089
18319TIP3    H276449   3.469   0.120   3.471 -1.0249 -1.1152 -1.5798
18320TIP3   OH276450   5.811   6.658   4.620  0.6799  0.0767  0.2432
18320TIP3    H176451   5.793   6.635   4.529  0.3207  1.4577 -0.0447
18320TIP3    H276452   5.906   6.667   4.624  0.7949 -1.0656  0.2764
18321TIP3   OH276453   3.282   4.079  11.749 -0.2244 -0.5273 -0.0159
18321TIP3    H176454   3.223   4.025  11.697  2.5949 -1.2522 -2.6472
18321TIP3    H276455   3.262   4.169  11.724  1.1665 -0.8665 -2.5547
18322TIP3   OH276456   4.072   5.809   4.215  0.3443 -0.4803  0.2455
18322TIP3    H176457   4.125   5.815   4.136  2.0817 -1.6098  1.2928
18322TIP3    H276458   3.983   5.789   4.183  0.8573 -0.1317 -1.4446
18323TIP3   OH276459   6.437   3.317   1.817  0.0499  0.3287 -0.0089
18323TIP3    H176460   6.423   3.344   1.727 -0.8137 -0.0840 -0.0063
18323TIP3    H276461   6.422   3.396   1.869 -0.4965  0.3182 -0.1492
18324TIP3   OH276462   3.751   2.157   3.273 -0.4090  0.0821  0.4651
18324TIP3    H176463   3.820   2.117   3.327 -1.6655 -1.6126  0.8721
18324TIP3    H276464   3.673   2.104   3.291 -0.6177 -1.3073 -3.8789
18325TIP3   OH276465   2.743   5.447  11.996 -0.1940  0.2321  0.0784
18325TIP3    H176466   2.789   5.459  12.080 -0.6896 -0.5205  0.4613
18325TIP3    H276467   2.748   5.353  11.980 -0.4534  0.3260 -0.5441
18326TIP3   OH276468   4.089   4.199  14.404  0.3248  0.3518 -0.1472
18326TIP3    H176469   4.167   4.167  14.358 -0.2707 -0.0003 -0.9188
18326TIP3    H276470   4.019   4.194  14.339 -0.7113 -0.9469  1.0408
18327TIP3   OH276471   3.762   4.039   2.928  0.0932 -0.1821 -0.1924
18327TIP3    H176472   3.705   3.982   2.876 -2.6024 -0.2405  2.6918
18327TIP3    H276473   3.809   3.980   2.986 -0.1310  0.2436  0.4230
18328TIP3   OH276474   5.359   5.648  13.818  0.3269  0.1058 -0.2107
18328TIP3    H176475   5.375   5.690  13.734 -0.2332  2.2724  0.7344
18328TIP3    H276476   5.428   5.680  13.875 -1.3602  1.4797  1.1165
18329TIP3   OH276477   2.971   1.815  16.476 -0.5288  0.7806  0.0725
18329TIP3    H176478   3.054   1.810  16.524  0.3725  1.9131 -1.3369
18329TIP3    H276479   2.909   1.768  16.532  1.2690 -0.9688  0.6881
18330TIP3   OH276480   3.467   4.355   4.939  0.9030  0.4155  0.3668
18330TIP3    H176481   3.537   4.347   4.875  0.2677  2.1591 -0.5788
18330TIP3    H276482   3.397   4.299   4.907 -0.3999  3.1914 -1.8813
18331TIP3   OH276483   2.212   0.211  12.552 -0.1005 -0.4681  0.6006
18331TIP3    H176484   2.261   0.235  12.631  0.0347  2.2437 -0.2681
18331TIP3    H276485   2.133   0.266  12.555  0.6980  0.8944 -1.9506
18332TIP3   OH276486   5.046   3.283  14.864  0.2830  0.1758 -0.1441
18332TIP3    H176487   5.095   3.281  14.946 -0.0665 -1.6680  0.0432
18332TIP3    H276488   5.083   3.211  14.812 -0.8885  0.0000 -0.7648
18333TIP3   OH276489   6.018   0.182   3.757  0.2137 -0.2696  0.4307
18333TIP3    H176490   6.037   0.181   3.851 -1.1847 -0.8334  0.7226
18333TIP3    H276491   6.101   0.158   3.716  0.5197 -1.2924  1.5960
18334TIP3   OH276492   5.322   1.661   2.793 -0.5289 -0.6496  0.5590
18334TIP3    H176493   5.301   1.754   2.779  1.0757 -0.2808  0.4695
18334TIP3    H276494   5.327   1.652   2.888  0.5756 -0.3286  0.5443
18335TIP3   OH276495   3.327   1.603   2.311  0.2568 -0.2534 -0.5030
18335TIP3    H176496   3.373   1.635   2.388  0.7926  1.0600 -1.3630
18335TIP3    H276497   3.315   1.509   2.328 -0.2996  0.1490  1.5091
18336TIP3   OH276498   4.049   1.865  10.516 -0.6801  0.0919 -0.0615
18336TIP3    H176499   4.102   1.902  10.586  0.3400 -0.5860 -0.4571
18336TIP3    H276500   3.978   1.819  10.561 -0.3985  0.2069  0.5083
18337TIP3   OH276501   1.364   6.318  16.416 -0.1621 -0.1687  0.0995
18337TIP3    H176502   1.301   6.371  16.464  0.9752 -1.8937  3.6407
18337TIP3    H276503   1.321   6.233  16.405 -0.1051 -0.0342 -1.3600
18338TIP3   OH276504   3.056   1.578   3.760 -0.5029 -0.2262 -0.4151
18338TIP3    H176505   3.137   1.574   3.811 -0.3346 -1.4556 -0.7507
18338TIP3    H276506   3.078   1.632   3.685  0.2287 -1.1404 -0.8713
18339TIP3   OH276507   3.175   2.566  16.986  0.0986  0.6176 -0.2249
18339TIP3    H176508   3.180   2.494  17.048  0.3904  0.3465 -0.5623
18339TIP3    H276509   3.105   2.541  16.925  1.4798 -0.2851 -1.4830
18340TIP3   OH276510   1.501   1.065   2.962  0.2544  0.6273  0.1709
18340TIP3    H176511   1.500   0.975   2.929 -0.8488  1.0826 -1.0639
18340TIP3    H276512   1.493   1.120   2.884 -1.9365  1.7436  1.1304
18341TIP3   OH276513   6.058   3.431  11.394 -0.1144  0.5526 -0.2790
18341TIP3    H176514   6.100   3.513  11.369 -1.6036  1.5463  0.4195
18341TIP3    H276515   5.971   3.457  11.426 -1.2863 -1.4342 -1.7089
18342TIP3   OH276516   1.917   4.558  16.395  0.0203 -0.2587  0.0732
18342TIP3    H176517   1.998   4.583  16.439  0.0738 -2.6320  1.3947
18342TIP3    H276518   1.862   4.521  16.465 -0.5120 -2.6117 -1.5291
18343TIP3   OH276519   0.535   6.040  16.763 -0.1373 -0.2822  0.4151
18343TIP3    H176520   0.595   6.003  16.827 -0.7390  0.5838  1.4937
18343TIP3    H276521   0.524   5.971  16.697  1.0297 -0.9100  0.8712
18344TIP3   OH276522   2.860   2.879  14.354 -0.5710  0.3012 -0.2816
18344TIP3    H176523   2.898   2.966  14.362 -1.7711  0.6618  1.9177
18344TIP3    H276524   2.795   2.886  14.285 -0.1872  0.9680 -0.5720
18345TIP3   OH276525   4.380   6.709   6.059 -0.8156 -0.5691 -0.1990
18345TIP3    H176526   4.290   6.740   6.062 -0.5165  0.3999 -0.8387
18345TIP3    H276527   4.424   6.754   6.131 -0.3592  0.5802 -1.1823
18346TIP3   OH276528   4.852   4.970  17.065 -0.1648 -0.0644 -0.2134
18346TIP3    H176529   4.779   4.918  17.030 -0.4886 -0.3163  0.8194
18346TIP3    H276530   4.872   4.930  17.150  1.0868  0.0951 -0.4246
18347TIP3   OH276531   2.517   1.520  12.289  0.3855 -0.2002  0.1382
18347TIP3    H176532   2.488   1.537  12.200 -0.7103  0.3293  0.5783
18347TIP3    H276533   2.602   1.563  12.297  0.3664 -0.0383 -0.5711
18348TIP3   OH276534   2.531   5.362  16.653 -0.2660  0.2485  0.5993
18348TIP3    H176535   2.489   5.371  16.568 -0.5452  1.1699  0.8325
18348TIP3    H276536   2.569   5.448  16.671 -0.6807  0.2274  1.6535
18349TIP3   OH276537   2.739   5.193  15.694  0.6016 -0.1563  0.3770
18349TIP3    H176538   2.669   5.258  15.699  0.1324 -0.5423 -0.9655
18349TIP3    H276539   2.806   5.236  15.640 -1.2934 -2.1539 -3.7965
18350TIP3   OH276540   0.101   2.722  11.839  0.0572 -0.2300 -0.2547
18350TIP3    H176541   0.159   2.653  11.871 -1.1137 -1.5323 -0.8639
18350TIP3    H276542   0.030   2.725  11.902  0.0969  0.4373 -0.2335
18351TIP3   OH276543   3.805   2.225  11.751  0.2021 -0.4027  0.0009
18351TIP3    H176544   3.776   2.315  11.764 -1.3182 -0.8183 -0.2823
18351TIP3    H276545   3.816   2.216  11.656  0.7597 -0.3855  0.0689
18352TIP3   OH276546   5.812   4.787   3.882  0.2034 -0.3079 -0.0630
18352TIP3    H176547   5.729   4.784   3.931 -0.5653 -1.3164 -1.3860
18352TIP3    H276548   5.879   4.769   3.948 -0.6344  0.3591  0.9992
18353TIP3   OH276549   5.661   6.695   2.803  0.2525  0.4299 -0.2265
18353TIP3    H176550   5.605   6.759   2.758 -0.3047  1.2435  1.5977
18353TIP3    H276551   5.741   6.693   2.751  0.1869  2.4557 -0.4358
18354TIP3   OH276552   0.006   5.863   1.491 -0.5168 -0.0857  0.3302
18354TIP3    H176553   0.094   5.835   1.515 -0.6576 -1.6338 -0.8634
18354TIP3    H276554  -0.047   5.844   1.568 -0.3097 -1.7252  0.0935
18355TIP3   OH276555   5.829   0.654  14.337  0.1127  0.1318  0.3264
18355TIP3    H176556   5.920   0.673  14.358 -0.0698  1.0908  0.2647
18355TIP3    H276557   5.793   0.616  14.417  1.3461 -3.1049 -0.5671
18356TIP3   OH276558   6.594   1.331   4.803 -0.5033 -0.4581  0.8932
18356TIP3    H176559   6.572   1.411   4.756 -0.1264 -1.2289 -0.6075
18356TIP3    H276560   6.651   1.360   4.874 -1.2977  0.7431  1.0591
18357TIP3   OH276561   1.583   5.302  13.097 -0.3852  0.1276 -0.1254
18357TIP3    H176562   1.673   5.293  13.064  0.0502  2.5057  0.3483
18357TIP3    H276563   1.532   5.323  13.019 -0.1302  1.1448 -0.0193
18358TIP3   OH276564   3.244   5.497  12.850  0.1941  0.3680 -0.2622
18358TIP3    H176565   3.325   5.537  12.818  0.4369  0.5989  0.6118
18358TIP3    H276566   3.245   5.408  12.814  1.0576  0.2304  0.0850
18359TIP3   OH276567   2.353   5.516  17.244  0.7068  0.0035 -0.4707
18359TIP3    H176568   2.383   5.530  17.334 -1.7509  0.2444  0.3694
18359TIP3    H276569   2.373   5.425  17.225 -3.2454 -1.5904  2.2378
18360TIP3   OH276570   2.623   4.972   1.635 -0.3883 -0.6030  0.0859
18360TIP3    H176571   2.678   5.002   1.708 -1.4444  0.1596  0.5902
18360TIP3    H276572   2.634   4.877   1.634  0.4027 -0.5225  0.6154
18361TIP3   OH276573   0.226   2.622  15.848  0.4006  0.3930 -0.2999
18361TIP3    H176574   0.173   2.572  15.785 -2.2333 -0.5054  2.5280
18361TIP3    H276575   0.228   2.711  15.812 -2.4630  0.2885 -0.8336
18362TIP3   OH276576   0.614   5.794  15.097  0.2701  0.4914 -0.1083
18362TIP3    H176577   0.663   5.809  15.178 -0.8542  2.2303  0.2663
18362TIP3    H276578   0.540   5.739  15.123 -0.2566  1.2976  0.1112
18363TIP3   OH276579   3.636   0.505   1.431  0.4632 -0.2140 -0.4695
18363TIP3    H176580   3.725   0.472   1.448  1.5457  2.0621 -1.5774
18363TIP3    H276581   3.597   0.439   1.374  2.0998 -0.3169 -1.4950
18364TIP3   OH276582   2.797   5.474   1.028 -1.0462  0.3472  0.2784
18364TIP3    H176583   2.736   5.513   1.091 -0.4718  0.0688  1.0215
18364TIP3    H276584   2.788   5.528   0.950 -1.7973  0.6815  0.5845
18365TIP3   OH276585   5.474   5.284  16.900 -0.6478  0.0820 -0.6501
18365TIP3    H176586   5.538   5.219  16.926 -1.9587 -1.2239 -0.6183
18365TIP3    H276587   5.521   5.341  16.839  0.8910 -0.0786  0.3652
18366TIP3   OH276588   1.613   4.227  16.346 -0.2852 -0.2674  0.4164
18366TIP3    H176589   1.555   4.291  16.388 -1.4323 -0.1185 -1.3227
18366TIP3    H276590   1.588   4.143  16.384 -1.7806 -0.2202 -0.4204
18367TIP3   OH276591   1.966   0.739  12.539 -0.2198  0.4347  0.3508
18367TIP3    H176592   1.981   0.833  12.536  1.2589  0.1567 -1.4464
18367TIP3    H276593   1.873   0.729  12.518  0.1903  1.3359 -1.9462
18368TIP3   OH276594   2.136   3.513  16.636  0.0776 -0.2787 -0.1211
18368TIP3    H176595   2.125   3.607  16.619  1.5794 -0.3927 -1.8622
18368TIP3    H276596   2.184   3.509  16.719 -1.0108  0.4385  0.5667
18369TIP3   OH276597   6.149   2.193  13.329  0.4587 -0.1613 -0.3713
18369TIP3    H176598   6.166   2.282  13.359  0.6025 -0.3301  0.0654
18369TIP3    H276599   6.062   2.172  13.364  0.7000 -0.4207  0.0851
18370TIP3   OH276600   3.959   4.985  11.190  0.0067 -0.6543 -0.0457
18370TIP3    H176601   3.887   5.043  11.214  1.0720  0.4390  0.6422
18370TIP3    H276602   3.933   4.946  11.107 -0.9613  0.4611 -0.2797
18371TIP3   OH276603   5.399   3.474   3.829  0.0853 -0.2703 -0.0009
18371TIP3    H176604   5.347   3.404   3.789  1.3826 -0.5719 -1.1942
18371TIP3    H276605   5.431   3.437   3.911 -0.5665 -0.5048  0.1535
18372TIP3   OH276606   3.514   2.439  17.053  0.4999 -0.1263 -0.7717
18372TIP3    H176607   3.513   2.531  17.082 -0.4348 -0.7026  1.1371
18372TIP3    H276608   3.578   2.437  16.982  0.7457  1.9499 -0.6493
18373TIP3   OH276609   2.207   5.820   0.272 -0.0220 -0.7369 -0.3106
18373TIP3    H176610   2.260   5.894   0.240 -0.7174 -1.3258 -2.9372
18373TIP3    H276611   2.272   5.756   0.302  0.6495  0.0991  0.0467
18374TIP3   OH276612   3.459   6.057  17.016 -0.1155 -0.5660  0.2913
18374TIP3    H176613   3.382   6.053  16.959 -1.0974 -0.5547  1.5937
18374TIP3    H276614   3.514   6.125  16.977 -1.4270  0.4345  0.1652
18375TIP3   OH276615   1.786   0.105  17.222  0.5374 -0.2155  0.0491
18375TIP3    H176616   1.856   0.167  17.198 -0.1279  0.9658  1.0635
18375TIP3    H276617   1.749   0.076  17.138  1.1559  0.4325 -0.4531
18376TIP3   OH276618   2.160   4.022   0.925  0.5419 -0.6157 -0.0612
18376TIP3    H176619   2.178   4.064   1.009 -1.8399 -2.6648  1.5546
18376TIP3    H276620   2.213   3.942   0.926 -2.6272 -2.7776  1.3914
18377TIP3   OH276621   2.406   2.264  11.302 -0.2582  0.0381  0.0833
18377TIP3    H176622   2.352   2.284  11.225 -0.7984  0.3737  0.5505
18377TIP3    H276623   2.415   2.347  11.348  1.8415  0.2817 -0.7297
18378TIP3   OH276624   2.058   3.115  17.177 -0.0449 -0.2147  0.0593
18378TIP3    H176625   1.974   3.127  17.134 -0.7472 -2.0654  0.8710
18378TIP3    H276626   2.036   3.083  17.264  1.4586  0.7884  0.8400
18379TIP3   OH276627   2.400   2.150   6.444 -0.4180  0.5242  0.9359
18379TIP3    H176628   2.309   2.137   6.470 -1.3650  1.5804 -1.6305
18379TIP3    H276629   2.407   2.244   6.427  1.1825  0.4660  1.2371
18380TIP3   OH276630   3.490   3.964   5.084  0.4143 -0.3352 -0.1878
18380TIP3    H176631   3.570   3.948   5.133  0.4182  1.8496  0.5973
18380TIP3    H276632   3.510   4.039   5.028 -0.6384 -0.6903 -1.0726
18381TIP3   OH276633   2.226   1.572   1.542 -0.5071 -0.3576  0.3468
18381TIP3    H176634   2.175   1.569   1.623 -4.3091  0.0245 -1.9006
18381TIP3    H276635   2.217   1.484   1.505  1.9537 -0.7956  0.7317
18382TIP3   OH276636   4.541   0.487   4.453 -0.1277 -0.4235  0.0338
18382TIP3    H176637   4.508   0.402   4.482 -2.2547  0.6164  0.8134
18382TIP3    H276638   4.471   0.522   4.398  2.1176 -0.5598 -3.0268
18383TIP3   OH276639   3.196   6.565  15.039 -0.0493  0.0898 -0.4083
18383TIP3    H176640   3.277   6.571  15.089 -0.9554  1.8261  0.9221
18383TIP3    H276641   3.150   6.647  15.057 -1.8550 -0.6096 -1.5863
18384TIP3   OH276642   4.445   2.739   0.915 -0.0575  0.2032  0.2500
18384TIP3    H176643   4.528   2.739   0.964  0.1292 -0.0844 -0.0637
18384TIP3    H276644   4.468   2.775   0.830 -0.0637 -0.6946 -0.1450
18385TIP3   OH276645   5.035   2.386  11.238  0.1166  0.1428  0.1487
18385TIP3    H176646   5.082   2.315  11.195  0.0467 -0.4964  1.1007
18385TIP3    H276647   5.041   2.460  11.177  1.1914 -0.3268 -0.3281
18386TIP3   OH276648   0.222   4.868   3.459  0.2269  0.2318 -0.8130
18386TIP3    H176649   0.288   4.799   3.470  0.2326  0.4310  0.5068
18386TIP3    H276650   0.272   4.950   3.466 -0.1101  0.3804 -0.1280
18387TIP3   OH276651   2.656   5.785  13.071  0.2957 -0.5283  0.0029
18387TIP3    H176652   2.637   5.878  13.055  0.0915 -0.6139 -0.2591
18387TIP3    H276653   2.631   5.772  13.162  0.2087 -0.3525  0.0060
18388TIP3   OH276654   6.393   2.445   5.386 -0.3267  0.2906  0.8128
18388TIP3    H176655   6.441   2.371   5.421 -1.5601 -0.2695  1.3472
18388TIP3    H276656   6.410   2.442   5.291  0.9224  0.2874  1.0348
18389TIP3   OH276657   0.562   1.527   2.769 -0.9206 -0.7663 -0.0505
18389TIP3    H176658   0.541   1.474   2.693  0.3537 -0.0756 -0.9067
18389TIP3    H276659   0.646   1.568   2.748 -0.2613 -1.0092  1.9553
18390TIP3   OH276660   6.564   1.770   1.023 -0.2439  0.1880 -0.1028
18390TIP3    H176661   6.547   1.826   0.948  0.8363  0.8816  0.1623
18390TIP3    H276662   6.649   1.730   1.005 -1.0200 -1.4253 -0.3157
18391TIP3   OH276663   0.665   6.018  13.944 -0.3460  0.1892 -0.4278
18391TIP3    H176664   0.709   6.070  14.012  0.6668 -0.6151 -0.4441
18391TIP3    H276665   0.729   6.014  13.873 -0.2721 -1.3271 -0.2940
18392TIP3   OH276666   3.209   4.580  13.362  0.4836 -0.2108 -0.7007
18392TIP3    H176667   3.144   4.574  13.432 -0.5704  0.6820 -1.5806
18392TIP3    H276668   3.213   4.492  13.325 -0.7749 -0.0966 -1.1227
18393TIP3   OH276669   4.443   1.926  15.279  0.1667  0.3573  0.0466
18393TIP3    H176670   4.427   1.984  15.354 -1.1193  0.0187  0.0400
18393TIP3    H276671   4.534   1.899  15.289 -0.1420 -0.0952  1.7801
18394TIP3   OH276672   2.344   0.926   0.108  0.6300 -0.0709  0.9058
18394TIP3    H176673   2.317   0.846   0.153  1.5113 -1.3757 -0.7974
18394TIP3    H276674   2.318   0.912   0.017  2.4681  0.7670  0.2188
18395TIP3   OH276675   0.185   2.553   3.177  0.0868 -0.3422  0.5974
18395TIP3    H176676   0.252   2.621   3.166  0.3875 -0.8787 -1.0946
18395TIP3    H276677   0.109   2.598   3.212  0.9160  0.5188  1.2882
18396TIP3   OH276678   6.273   0.158   5.367  0.8283 -0.6925 -0.3091
18396TIP3    H176679   6.326   0.079   5.375  1.1107 -0.5691 -0.9445
18396TIP3    H276680   6.324   0.225   5.412  1.0924 -0.6312 -0.6995
18397TIP3   OH276681   4.622   6.518   1.059  0.1983  0.1376 -0.0217
18397TIP3    H176682   4.693   6.476   1.108 -0.6383  0.9589  1.9445
18397TIP3    H276683   4.579   6.446   1.013  0.3405 -0.8055  1.3093
18398TIP3   OH276684   2.859   5.068   4.031  0.1206 -0.1170 -0.2253
18398TIP3    H176685   2.850   4.977   4.060  0.3685 -0.0153  0.1714
18398TIP3    H276686   2.810   5.119   4.095 -1.9961 -0.1830 -1.7537
18399TIP3   OH276687   4.197   0.362   5.410  0.0585  0.0666  0.4986
18399TIP3    H176688   4.151   0.313   5.478 -0.2627 -1.4248 -0.7839
18399TIP3    H276689   4.127   0.393   5.352  0.5391 -0.9443 -0.6300
18400TIP3   OH276690   5.940   5.031   0.098  0.5717 -0.3094 -0.0705
18400TIP3    H176691   6.025   5.005   0.063  0.4912  0.4549 -0.8349
18400TIP3    H276692   5.876   4.996   0.036  0.3923  0.3664 -0.2675
18401TIP3   OH276693   5.884   5.260  16.413  0.4115  0.1326  0.0892
18401TIP3    H176694   5.878   5.313  16.492  1.0876 -0.7412  0.7336
18401TIP3    H276695   5.832   5.307  16.349  1.7779  2.0714  0.3682
18402TIP3   OH276696   0.252   2.727   3.905  0.7192 -0.2644 -0.1255
18402TIP3    H176697   0.320   2.759   3.845  0.1481 -1.3223 -1.3379
18402TIP3    H276698   0.218   2.648   3.864 -0.8886 -0.0445  0.7357
18403TIP3   OH276699   5.640   3.229  13.075  0.6453 -0.7351 -0.0783
18403TIP3    H176700   5.734   3.212  13.080  0.8813  0.4269 -0.2388
18403TIP3    H276701   5.622   3.236  12.981  0.7987  1.0477  0.0039
18404TIP3   OH276702   3.075   4.367   2.079 -0.1098  0.4571 -0.0860
18404TIP3    H176703   3.018   4.424   2.028 -2.0043 -0.1493  1.2962
18404TIP3    H276704   3.064   4.396   2.169  1.2381 -0.1254  0.2863
18405TIP3   OH276705   0.211   1.488  13.741  0.5628 -0.2573 -0.4708
18405TIP3    H176706   0.204   1.482  13.836 -0.6383 -0.6326 -0.5819
18405TIP3    H276707   0.180   1.576  13.720 -1.0534 -0.8716 -0.6917
18406TIP3   OH276708   1.780   3.125  11.481  0.4335  0.1330 -0.2345
18406TIP3    H176709   1.804   3.185  11.410 -0.0276 -1.5858 -1.8825
18406TIP3    H276710   1.686   3.114  11.472  0.0113  1.5670  2.0133
18407TIP3   OH276711   3.815   5.796   5.976 -0.1357  0.3473 -0.5625
18407TIP3    H176712   3.848   5.886   5.967 -0.1625  0.5559  1.3317
18407TIP3    H276713   3.739   5.804   6.033  0.8973 -1.1085  1.0696
18408TIP3   OH276714   5.983   0.861  11.313  0.2533 -0.3455 -0.4470
18408TIP3    H176715   5.978   0.862  11.217  1.4611 -1.0964 -0.5192
18408TIP3    H276716   5.956   0.773  11.338 -0.3317 -0.0664 -0.0676
18409TIP3   OH276717   0.574   4.395   5.563 -0.4858 -0.3200 -0.0632
18409TIP3    H176718   0.623   4.442   5.630  0.3075  0.8058 -1.3970
18409TIP3    H276719   0.484   4.425   5.573 -0.5389 -0.8681  1.0983
18410TIP3   OH276720   3.197   1.682   0.521  0.4193  0.1903 -0.6043
18410TIP3    H176721   3.118   1.630   0.506  1.4892 -1.4034 -0.8502
18410TIP3    H276722   3.186   1.717   0.609  0.4682 -1.9499  0.2919
18411TIP3   OH276723   4.973   3.860  11.760  0.2636  0.5071  0.6985
18411TIP3    H176724   5.027   3.933  11.728  0.7524 -0.5737 -0.9890
18411TIP3    H276725   4.884   3.895  11.760  0.7899  1.9359  2.4127
18412TIP3   OH276726   2.068   0.683   2.478  0.3293  0.0393 -0.3315
18412TIP3    H176727   2.049   0.632   2.399 -1.1686 -0.8253  0.5613
18412TIP3    H276728   2.035   0.629   2.550 -1.6849  2.4301  0.6192
18413TIP3   OH276729   0.339   1.754   1.564  0.1095  0.1873 -0.0258
18413TIP3    H176730   0.260   1.701   1.564 -0.2403  0.6484  2.4074
18413TIP3    H276731   0.328   1.814   1.490 -1.3855 -0.3645 -0.2682
18414TIP3   OH276732   0.517   5.685   1.804  0.2037 -0.0660 -0.3123
18414TIP3    H176733   0.575   5.659   1.732  1.7996  1.3798  0.4229
18414TIP3    H276734   0.429   5.666   1.771  0.9264  0.0529 -2.4294
18415TIP3   OH276735   4.137   3.050   0.361 -0.2075 -0.4522  0.0631
18415TIP3    H176736   4.121   3.074   0.270 -1.7753  0.7231  0.6218
18415TIP3    H276737   4.089   2.967   0.372  1.5450 -1.6007 -0.6601
18416TIP3   OH276738   5.199   3.381  16.397 -0.3108 -0.5718  0.0477
18416TIP3    H176739   5.263   3.418  16.458  0.1329  0.3730 -0.9524
18416TIP3    H276740   5.114   3.408  16.432 -0.1106 -0.8494  0.7589
18417TIP3   OH276741   3.555   2.081  16.818 -0.1413  0.0431 -0.4027
18417TIP3    H176742   3.647   2.065  16.797 -0.7580 -2.0946 -1.6091
18417TIP3    H276743   3.549   2.071  16.913  0.5510 -1.5408 -0.5211
18418TIP3   OH276744   1.243   3.926   4.739 -0.5585  0.4490  0.1529
18418TIP3    H176745   1.296   3.879   4.674 -0.1416  0.9775  0.1077
18418TIP3    H276746   1.153   3.911   4.711 -0.3422  2.5435 -1.9008
18419TIP3   OH276747   0.753   2.954   0.248  0.0891  0.4030 -0.7135
18419TIP3    H176748   0.706   2.871   0.240 -0.8561  0.9387 -0.8830
18419TIP3    H276749   0.818   2.953   0.179  0.6031 -0.5304 -0.2231
18420TIP3   OH276750   2.535   2.452  14.817 -0.0804  0.4927  0.3447
18420TIP3    H176751   2.512   2.412  14.901 -0.9323  1.2664  0.4907
18420TIP3    H276752   2.546   2.377  14.758  0.7344 -0.0641  1.1915
18421TIP3   OH276753   1.837   3.570  12.037  0.6259 -0.2500 -0.3561
18421TIP3    H176754   1.906   3.627  12.003  0.7429  1.2094  2.1844
18421TIP3    H276755   1.756   3.610  12.006  0.6897  1.5988  1.7542
18422TIP3   OH276756   4.816   6.082   2.661 -0.5661 -0.1109 -0.4013
18422TIP3    H176757   4.860   6.165   2.680  0.7550 -0.7969 -0.4198
18422TIP3    H276758   4.815   6.035   2.745  0.3673 -0.8496 -0.7953
18423TIP3   OH276759   1.751   3.742  11.411  0.4140 -0.0896 -0.0742
18423TIP3    H176760   1.754   3.744  11.315  0.7181 -0.8463 -0.0798
18423TIP3    H276761   1.808   3.670  11.435  0.5799  0.3014  0.6961
18424TIP3   OH276762   4.123   0.869   3.466  0.2889 -0.5207 -0.2767
18424TIP3    H176763   4.096   0.789   3.511 -0.1662 -0.8994 -1.2032
18424TIP3    H276764   4.064   0.876   3.391  0.8869  0.2183 -0.6942
18425TIP3   OH276765   4.940   1.384  13.324  0.0686 -0.3240 -0.3956
18425TIP3    H176766   4.880   1.351  13.258 -1.6504  1.1783  0.3816
18425TIP3    H276767   5.002   1.439  13.276  0.7303 -1.7400 -1.1751
18426TIP3   OH276768   4.526   5.429   3.097 -0.1337  0.3351  0.1034
18426TIP3    H176769   4.591   5.374   3.054 -0.5377 -0.8803  1.0149
18426TIP3    H276770   4.546   5.422   3.191 -1.3138  0.2597  0.3687
18427TIP3   OH276771   5.376   2.667   3.680 -0.4352 -0.8143  0.0010
18427TIP3    H176772   5.412   2.740   3.629  0.1375 -0.8793  0.3065
18427TIP3    H276773   5.335   2.710   3.756  0.5074 -0.8471  0.5397
18428TIP3   OH276774   4.004   2.380   5.401  0.1286  0.1326 -0.6496
18428TIP3    H176775   3.909   2.368   5.403  0.0980  0.3320 -0.9643
18428TIP3    H276776   4.019   2.448   5.336  0.5652 -0.6970 -1.4430
18429TIP3   OH276777   1.854   3.242  12.354  0.0487  0.2525 -0.4924
18429TIP3    H176778   1.850   3.258  12.260  0.6128 -1.3428 -0.8046
18429TIP3    H276779   1.860   3.147  12.362 -1.8744  0.2516  1.2262
18430TIP3   OH276780   2.247   4.748  13.434  0.2154  0.2226 -0.0983
18430TIP3    H176781   2.212   4.708  13.514  0.3162 -1.7212 -1.0048
18430TIP3    H276782   2.335   4.710  13.425  0.2609  0.5477 -1.0610
18431TIP3   OH276783   4.407   3.214  12.034  0.4889 -0.8646  0.5864
18431TIP3    H176784   4.469   3.181  12.099 -0.9296 -1.5514  1.6358
18431TIP3    H276785   4.321   3.193  12.071 -0.4222  1.7956  0.0918
18432TIP3   OH276786   0.669   1.717  12.870  0.0354 -0.3483  0.1889
18432TIP3    H176787   0.573   1.720  12.869  0.0171 -1.0573 -0.6872
18432TIP3    H276788   0.696   1.808  12.856 -0.5147 -0.3223 -0.7695
18433TIP3   OH276789   2.205   5.131  17.009 -0.5017 -0.1211  0.2034
18433TIP3    H176790   2.196   5.057  16.949  2.0795 -0.8990  0.7389
18433TIP3    H276791   2.276   5.183  16.972 -0.4634  0.6446  1.3372
18434TIP3   OH276792   4.804   5.993   1.981  0.4142 -0.5173 -0.0534
18434TIP3    H176793   4.824   5.979   2.073  1.1468 -1.7520 -0.3825
18434TIP3    H276794   4.709   5.993   1.976  0.2863  2.8010  1.1662
18435TIP3   OH276795   3.386   3.058  15.884  0.1855  0.3818 -0.1982
18435TIP3    H176796   3.356   3.078  15.795  1.4911  0.5584 -0.6115
18435TIP3    H276797   3.313   3.011  15.924 -0.2544 -0.0553 -1.4951
18436TIP3   OH276798   5.058   4.863  14.691 -0.7174 -0.3507 -0.1251
18436TIP3    H176799   5.041   4.923  14.618 -2.5463 -0.9039 -0.1669
18436TIP3    H276800   5.015   4.904  14.766 -0.0396 -0.4893  0.3419
18437TIP3   OH276801   5.372   2.294  14.494  0.5437  0.1938 -0.6942
18437TIP3    H176802   5.350   2.220  14.550  1.7138  0.3867  0.0477
18437TIP3    H276803   5.406   2.254  14.413 -2.5918 -0.1068 -1.9440
18438TIP3   OH276804   0.913   3.746  12.730  0.3510 -0.0289  0.4181
18438TIP3    H176805   0.973   3.703  12.791  1.2579  0.9520  0.2413
18438TIP3    H276806   0.883   3.824  12.777  0.8918  0.6158 -0.2869
18439TIP3   OH276807   5.069   5.108  11.417  0.3655 -0.7911 -0.5519
18439TIP3    H176808   4.977   5.087  11.402  0.4140 -1.0920 -0.4184
18439TIP3    H276809   5.069   5.203  11.430  0.0409 -0.8281 -0.2726
18440TIP3   OH276810   0.241   6.743   5.150  0.4031 -0.2686 -0.4383
18440TIP3    H176811   0.235   6.761   5.244  1.7855 -1.4279 -0.1153
18440TIP3    H276812   0.195   6.816   5.109  0.7816  0.8531  1.0869
18441TIP3   OH276813   3.791   0.024  13.363 -0.4698 -0.2542 -0.3821
18441TIP3    H176814   3.851   0.036  13.289 -1.4457  0.6404 -1.0411
18441TIP3    H276815   3.778  -0.071  13.368  0.7797 -0.4258 -0.4116
18442TIP3   OH276816   5.802   3.781  12.975 -0.2662 -0.3941  0.0423
18442TIP3    H176817   5.878   3.813  13.023  0.1948  1.2375 -1.6916
18442TIP3    H276818   5.774   3.703  13.022  3.5550 -2.0569 -0.3332
18443TIP3   OH276819   4.769   2.757   5.553  0.1521 -0.3961  1.2679
18443TIP3    H176820   4.781   2.796   5.639 -0.4779  0.3087  1.0450
18443TIP3    H276821   4.825   2.809   5.495 -2.4925  1.7553  0.5463
18444TIP3   OH276822   4.207   6.598  14.498 -0.5799  0.3247 -0.6540
18444TIP3    H176823   4.265   6.617  14.572  1.2239  1.8883 -2.4290
18444TIP3    H276824   4.155   6.677  14.487 -1.3022 -0.1447 -0.6672
18445TIP3   OH276825   4.894   0.556  10.745 -0.0272 -0.5246  0.3427
18445TIP3    H176826   4.939   0.483  10.703 -0.7502 -1.2313  0.7862
18445TIP3    H276827   4.865   0.611  10.672  0.7557 -0.5328  0.0180
18446TIP3   OH276828   0.759   4.949   0.104  0.2812  0.0038 -0.0140
18446TIP3    H176829   0.797   4.877   0.055  0.3011  1.1256 -1.7084
18446TIP3    H276830   0.786   4.935   0.194  1.2359 -1.4653 -0.5281
18447TIP3   OH276831   5.338   0.383  15.185 -0.4234 -0.3150  0.2765
18447TIP3    H176832   5.431   0.361  15.179 -0.5229 -0.5761 -0.3313
18447TIP3    H276833   5.309   0.341  15.266 -0.2928 -1.2702 -0.1721
18448TIP3   OH276834   4.860   1.747   5.204  0.4120  0.1276 -0.4753
18448TIP3    H176835   4.837   1.812   5.271 -0.9768  0.9613 -1.7181
18448TIP3    H276836   4.882   1.799   5.127  1.9668 -0.8308 -0.7004
18449TIP3   OH276837   2.937   0.950  16.323  0.0992 -0.1211 -0.2448
18449TIP3    H176838   2.971   0.980  16.408 -0.8397 -0.0205  0.1042
18449TIP3    H276839   3.014   0.940  16.268  0.7345 -0.3266  0.6712
18450TIP3   OH276840   3.218   3.127   2.214 -0.4950  0.6131 -0.3607
18450TIP3    H176841   3.273   3.089   2.283 -0.6562  2.5813  0.9138
18450TIP3    H276842   3.174   3.053   2.173  0.0359 -0.6371  1.3034
18451TIP3   OH276843   1.715   2.873  13.352 -0.2977 -0.5056  0.3023
18451TIP3    H176844   1.713   2.857  13.446  2.3561  0.7214  0.6010
18451TIP3    H276845   1.773   2.806  13.316 -1.1157 -0.8292 -0.4383
18452TIP3   OH276846   1.549   4.680  12.957 -0.0929  0.2097 -0.3341
18452TIP3    H176847   1.634   4.639  12.971  0.1275  0.5108 -0.7576
18452TIP3    H276848   1.512   4.688  13.044  0.3027  0.0488 -0.1472
18453TIP3   OH276849   3.671   6.015  16.745  0.3382  0.0049 -0.1319
18453TIP3    H176850   3.643   5.927  16.770 -0.6151  0.3548  0.0879
18453TIP3    H276851   3.763   6.006  16.719 -0.3217 -1.4447 -2.1202
18454TIP3   OH276852   1.457   4.817  12.051  0.2942 -0.6780  0.2286
18454TIP3    H176853   1.541   4.860  12.070  0.0081 -0.3492  0.7828
18454TIP3    H276854   1.445   4.829  11.957  0.1835  0.5479  0.3801
18455TIP3   OH276855   4.001   3.261   4.824  0.4550  0.8391  0.5643
18455TIP3    H176856   4.038   3.309   4.750  0.4195  0.7347  0.4792
18455TIP3    H276857   3.937   3.202   4.784  0.0475  1.1661  0.7254
18456TIP3   OH276858   4.552   3.707  14.415  0.3317 -0.4098  0.6203
18456TIP3    H176859   4.487   3.657  14.464  0.8818 -2.7243 -0.8945
18456TIP3    H276860   4.627   3.647  14.408  1.3406  0.9578 -0.5305
18457TIP3   OH276861   0.695   0.081  11.273  0.2826  0.1900 -0.0112
18457TIP3    H176862   0.775   0.031  11.259 -0.2572 -0.4096 -0.9930
18457TIP3    H276863   0.715   0.168  11.239  0.9130  0.4000  0.8603
18458TIP3   OH276864   2.631   6.635  16.413  0.3975 -0.6173  0.0777
18458TIP3    H176865   2.607   6.708  16.356  0.9078 -0.1378  0.4640
18458TIP3    H276866   2.556   6.624  16.470  0.3886 -0.2768  0.1313
18459TIP3   OH276867   2.205   2.643  15.311 -0.1739 -0.2351  0.1541
18459TIP3    H176868   2.296   2.633  15.337  0.0641  0.1092 -0.5382
18459TIP3    H276869   2.198   2.597  15.228  0.1909  2.5950 -1.4932
18460TIP3   OH276870   1.783   1.465   2.058 -0.4301  0.2729  0.2459
18460TIP3    H176871   1.813   1.377   2.082 -1.1617  0.0113  0.1888
18460TIP3    H276872   1.738   1.497   2.136 -0.0379  0.6552  0.3168
18461TIP3   OH276873   6.080   2.485   4.541 -0.8022  0.0309  0.3069
18461TIP3    H176874   6.138   2.512   4.469 -1.9220 -2.9474 -1.7997
18461TIP3    H276875   5.994   2.516   4.515 -1.1183 -0.5385  0.6762
18462TIP3   OH276876   2.403   6.711   5.458  0.2494  0.0088 -0.7568
18462TIP3    H176877   2.342   6.690   5.387 -0.7239  0.3347 -0.0299
18462TIP3    H276878   2.361   6.675   5.536  1.4548 -0.6060 -0.3860
18463TIP3   OH276879   0.631   4.281   3.519 -0.3285  0.6468 -0.2346
18463TIP3    H176880   0.694   4.352   3.518 -0.7356  1.0332  1.0629
18463TIP3    H276881   0.555   4.315   3.566 -0.8724 -0.3495 -0.3549
18464TIP3   OH276882   1.428   2.805   5.156 -0.7199  0.4950 -0.2702
18464TIP3    H176883   1.408   2.760   5.074 -1.0022 -0.0681  0.1052
18464TIP3    H276884   1.519   2.833   5.146 -0.9314  0.9232 -1.0007
18465TIP3   OH276885   6.135   0.017   1.241  0.0691  0.2015 -0.1729
18465TIP3    H176886   6.057   0.029   1.296 -0.8697  0.2037 -1.4828
18465TIP3    H276887   6.103  -0.029   1.164  1.8121 -1.9128  0.3243
18466TIP3   OH276888   3.628   6.334  15.976  0.0337 -0.1611 -0.1663
18466TIP3    H176889   3.605   6.384  16.054  4.1574 -1.3226  1.9581
18466TIP3    H276890   3.654   6.248  16.010  0.6828 -1.1128 -2.9555
18467TIP3   OH276891   5.158   0.976   2.574  0.1499 -0.4837 -0.4095
18467TIP3    H176892   5.124   0.979   2.484  0.5488 -0.2509 -0.5553
18467TIP3    H276893   5.221   1.048   2.578 -0.6501  0.1865  0.3880
18468TIP3   OH276894   0.755   0.723  13.154 -0.3772 -0.5398 -0.2692
18468TIP3    H176895   0.669   0.695  13.186 -0.2113 -3.2041 -1.9736
18468TIP3    H276896   0.817   0.687  13.217 -0.4446  0.6093  0.4650
18469TIP3   OH276897   4.444   6.438   0.223 -0.0229  0.1578 -0.7226
18469TIP3    H176898   4.412   6.447   0.134  0.1226  0.6187 -0.7283
18469TIP3    H276899   4.364   6.435   0.277 -0.0974  0.6139 -0.8011
18470TIP3   OH276900   0.100   2.988  13.777 -0.1442 -0.2987  0.4725
18470TIP3    H176901   0.179   2.989  13.723 -0.4072 -1.5421  0.0362
18470TIP3    H276902   0.124   3.035  13.857  0.0855  2.0377 -0.9419
18471TIP3   OH276903   4.153   0.902  10.677 -0.1359  0.0541 -0.1586
18471TIP3    H176904   4.091   0.907  10.750  1.4739  0.0534  1.2380
18471TIP3    H276905   4.233   0.943  10.710  0.3742  0.7904 -2.2126
18472TIP3   OH276906   6.028   5.760   4.911 -0.0364  0.0035  0.0717
18472TIP3    H176907   6.121   5.764   4.932  0.5704  1.6285 -2.6899
18472TIP3    H276908   6.011   5.667   4.894  0.5871 -0.5864  2.5016
18473TIP3   OH276909   2.333   2.707   5.937 -0.2308 -0.6029 -0.3522
18473TIP3    H176910   2.364   2.626   5.897  1.5083 -1.2730  2.2148
18473TIP3    H276911   2.267   2.678   6.001  1.4006 -0.1951  1.5800
18474TIP3   OH276912   6.054   6.282  11.359 -0.2156  0.4707 -0.0106
18474TIP3    H176913   5.998   6.360  11.362  2.2042  2.3222 -1.0571
18474TIP3    H276914   6.117   6.301  11.290  1.8073 -1.4826  1.2526
18475TIP3   OH276915   0.153   6.712   1.196 -0.0824 -0.0774  0.0614
18475TIP3    H176916   0.214   6.688   1.127 -0.5901 -2.9910  0.5600
18475TIP3    H276917   0.210   6.740   1.269  0.5654 -0.4064 -0.3138
18476TIP3   OH276918   3.401   4.435  17.141  0.5854  0.4303  0.1544
18476TIP3    H176919   3.321   4.405  17.097 -0.3808  0.9559  1.4855
18476TIP3    H276920   3.424   4.364  17.201 -0.5360  1.4184  1.8251
18477TIP3   OH276921   3.458   2.068   0.765  0.3430 -0.0899 -0.0178
18477TIP3    H176922   3.490   2.093   0.851  0.1803  1.1246 -0.3024
18477TIP3    H276923   3.514   1.994   0.739  0.2087 -0.6415  1.2315
18478TIP3   OH276924   6.318   5.645   4.092 -0.0173  0.0017 -0.1245
18478TIP3    H176925   6.375   5.614   4.021 -1.6634  0.1973 -1.5702
18478TIP3    H276926   6.256   5.573   4.105 -1.5978  1.1930 -0.9923
18479TIP3   OH276927   6.204   4.083   1.299 -0.5042  0.4948  0.2292
18479TIP3    H176928   6.126   4.071   1.353 -1.2279  0.4042 -0.8282
18479TIP3    H276929   6.175   4.064   1.210  0.9170 -0.3173 -0.0712
18480TIP3   OH276930   3.771   5.487  13.282 -0.3631  0.1086 -0.4245
18480TIP3    H176931   3.729   5.410  13.243  0.3752 -0.4170 -0.1955
18480TIP3    H276932   3.717   5.508  13.358 -1.1557  0.4450 -1.0831
18481TIP3   OH276933   4.327   3.873  14.353 -0.2354  0.6015 -0.1696
18481TIP3    H176934   4.409   3.825  14.361 -0.0161  0.9040 -0.5623
18481TIP3    H276935   4.353   3.964  14.341 -0.6244  0.6854 -0.3998
18482TIP3   OH276936   3.881   2.168  12.449 -0.1231 -0.5104 -0.0316
18482TIP3    H176937   3.828   2.246  12.464  1.0719  0.2710  0.2104
18482TIP3    H276938   3.863   2.112  12.524 -1.1927 -0.5773 -0.3413
18483TIP3   OH276939   4.571   4.716   6.209  0.3178  0.0358 -0.0471
18483TIP3    H176940   4.588   4.704   6.115 -3.5999  3.3571 -1.3132
18483TIP3    H276941   4.482   4.686   6.222  0.3448  0.8692  2.3454
18484TIP3   OH276942   1.671   4.401   3.579 -0.5394  0.1129 -0.1773
18484TIP3    H176943   1.623   4.461   3.636  0.0011 -0.7292  1.1656
18484TIP3    H276944   1.715   4.459   3.516 -0.3319  1.0972  0.8609
18485TIP3   OH276945   4.147   3.267   6.638 -0.1872 -0.3047 -0.2234
18485TIP3    H176946   4.206   3.335   6.606 -0.3313 -0.9619 -1.9029
18485TIP3    H276947   4.203   3.191   6.654 -0.5488 -0.9018 -1.7367
18486TIP3   OH276948   1.361   3.045  12.002  0.1567 -0.0065  0.0231
18486TIP3    H176949   1.390   2.959  12.031 -0.0425 -0.1660 -0.2458
18486TIP3    H276950   1.282   3.062  12.053  1.3603  0.9386  1.6057
18487TIP3   OH276951   3.801   4.908  12.499 -0.3395 -0.1988  0.4103
18487TIP3    H176952   3.737   4.841  12.524 -1.5618  0.6336 -0.4531
18487TIP3    H276953   3.768   4.988  12.539  1.1423 -0.0847  1.4688
18488TIP3   OH276954   4.386   1.355   1.220 -0.1367  0.0336  0.2722
18488TIP3    H176955   4.444   1.278   1.219 -0.9198 -0.5790  1.1301
18488TIP3    H276956   4.307   1.325   1.265 -1.1924  0.8219 -1.0132
18489TIP3   OH276957   4.599   4.406   4.292 -0.4222  0.0298  0.3462
18489TIP3    H176958   4.528   4.350   4.323 -0.9109  1.3796  1.7271
18489TIP3    H276959   4.616   4.376   4.202 -2.3530 -0.6564  0.1971
18490TIP3   OH276960   0.434   5.627  12.188  0.3462 -0.6119 -0.8369
18490TIP3    H176961   0.495   5.553  12.194  0.4014 -0.4485  0.8769
18490TIP3    H276962   0.448   5.676  12.269 -0.5626  0.6009 -1.4079
18491TIP3   OH276963   4.970   1.953   4.319 -0.5864 -0.0760  0.8627
18491TIP3    H176964   4.875   1.958   4.322 -0.6579  0.2772 -1.2455
18491TIP3    H276965   4.999   2.012   4.388 -1.8896  2.7907 -0.9503
18492TIP3   OH276966   2.737   5.047   1.271 -0.1901 -0.4654 -0.1837
18492TIP3    H176967   2.756   5.095   1.191 -1.8519 -0.5278 -0.6331
18492TIP3    H276968   2.821   5.042   1.317  0.7445 -0.3105 -1.8450
18493TIP3   OH276969   6.736   5.497   0.213 -0.0612 -0.1959 -0.4696
18493TIP3    H176970   6.721   5.560   0.284 -0.3203 -1.0271  0.2176
18493TIP3    H276971   6.791   5.544   0.151  0.4365  0.4349  0.4382
18494TIP3   OH276972   6.117   0.495   2.599  0.0299  0.2211 -0.3689
18494TIP3    H176973   6.197   0.444   2.599 -1.8097 -2.8093 -2.4784
18494TIP3    H276974   6.139   0.575   2.551  2.4608  0.7087  1.4579
18495TIP3   OH276975   1.410   6.501  12.261  0.4881  0.2878 -0.1264
18495TIP3    H176976   1.498   6.467  12.277  0.8125  0.1912 -2.0077
18495TIP3    H276977   1.421   6.596  12.259  0.2460  0.3520  1.3294
18496TIP3   OH276978   6.221   6.174  11.973  0.0843 -0.1899  0.6481
18496TIP3    H176979   6.284   6.240  12.001 -0.3925  0.8603 -0.7213
18496TIP3    H276980   6.205   6.193  11.881  0.7895 -2.9438 -0.0669
18497TIP3   OH276981   0.351   2.436   4.307  0.4253 -0.4226  0.3706
18497TIP3    H176982   0.435   2.391   4.298  1.0224  0.7771 -0.1720
18497TIP3    H276983   0.287   2.377   4.267  1.2910 -0.4904 -0.9244
18498TIP3   OH276984   1.732   5.119   1.190 -0.1853 -0.1633 -0.0771
18498TIP3    H176985   1.643   5.098   1.164  0.0590 -0.4605 -0.6811
18498TIP3    H276986   1.728   5.131   1.285 -0.6769 -1.1171  0.0198
18499TIP3   OH276987   2.345   5.889  12.024 -0.1135  0.2194 -0.0983
18499TIP3    H176988   2.306   5.953  12.083  1.6605  1.7919 -0.5689
18499TIP3    H276989   2.423   5.858  12.070  0.5477  0.4596 -1.0384
18500TIP3   OH276990   6.250   2.199   0.281 -0.2185  0.0601 -0.4853
18500TIP3    H176991   6.223   2.115   0.244  0.0349  1.2161 -3.4878
18500TIP3    H276992   6.337   2.214   0.243 -0.3131  1.7014 -0.0756
18501TIP3   OH276993   2.638   3.915   1.280 -0.1066 -0.4714 -0.5505
18501TIP3    H176994   2.641   3.942   1.188 -1.7098 -0.1317 -0.5128
18501TIP3    H276995   2.662   3.994   1.329 -0.0235 -0.4425 -0.6376
18502TIP3   OH276996   4.531   1.410   1.645 -0.6859 -0.0497 -0.2445
18502TIP3    H176997   4.501   1.333   1.596 -2.5780  0.4347  0.1131
18502TIP3    H276998   4.623   1.393   1.661 -0.6141 -1.3674 -1.8348
18503TIP3   OH276999   1.984   6.533  12.491 -0.1587  0.1648  0.0596
18503TIP3    H177000   1.980   6.449  12.536 -0.1079  0.4077  0.5170
18503TIP3    H277001   2.078   6.547  12.475 -0.0327  0.8533  1.3433
18504TIP3   OH277002   6.311   1.224   0.808  0.2817  0.3020 -0.1658
18504TIP3    H177003   6.286   1.133   0.821  2.4102 -0.0296  1.8370
18504TIP3    H277004   6.297   1.266   0.893 -0.5047  1.8380 -1.0158
18505TIP3   OH277005   6.442   3.890   5.572 -0.5621  0.0497 -0.0707
18505TIP3    H177006   6.383   3.961   5.597 -1.8652 -0.4520 -1.6278
18505TIP3    H277007   6.515   3.933   5.529 -0.0542  0.6370  1.3543
18506TIP3   OH277008   0.802   6.676  12.276  0.0591 -0.3143  0.2208
18506TIP3    H177009   0.794   6.594  12.227 -0.3940 -1.1223  1.6162
18506TIP3    H277010   0.818   6.742  12.209  0.2942 -1.5198 -0.9377
18507TIP3   OH277011   5.874   4.847   2.543 -0.5618  0.1761  0.0543
18507TIP3    H177012   5.894   4.754   2.544 -0.4978  0.1919  1.3628
18507TIP3    H277013   5.789   4.853   2.497 -0.3085 -0.4579 -0.5003
18508TIP3   OH277014   4.392   6.706  10.770  0.2553 -0.3660 -0.1114
18508TIP3    H177015   4.324   6.683  10.707  1.0262 -0.9637 -0.7444
18508TIP3    H277016   4.398   6.801  10.766 -0.6642 -0.2883  0.0926
18509TIP3   OH277017   5.153   4.014   5.907  0.1737 -0.1067  0.0264
18509TIP3    H177018   5.088   3.992   5.974  0.5949  1.8201  1.1098
18509TIP3    H277019   5.228   3.957   5.927 -1.1506 -2.3946 -1.2821
18510TIP3   OH277020   1.992   1.591   5.693  0.4112  0.0491 -0.0733
18510TIP3    H177021   1.988   1.676   5.738  1.4895 -0.0140  0.1469
18510TIP3    H277022   1.951   1.607   5.608 -1.5180  0.2092  0.8498
18511TIP3   OH277023   2.527   5.460   2.592  0.2854 -0.0405  0.0759
18511TIP3    H177024   2.491   5.376   2.621 -3.3003  1.7770  1.1591
18511TIP3    H277025   2.573   5.495   2.669  0.0520 -0.1057  0.2452
18512TIP3   OH277026   1.247   5.894   1.067 -0.0867 -0.0319 -0.5384
18512TIP3    H177027   1.160   5.908   1.029 -0.7942  1.4225  1.4805
18512TIP3    H277028   1.307   5.897   0.993 -1.8254 -1.7930 -2.0526
18513TIP3   OH277029   2.188   5.943  11.696  0.2621 -0.4522 -0.1634
18513TIP3    H177030   2.160   5.961  11.786 -0.6348 -0.1925 -0.4918
18513TIP3    H277031   2.284   5.950  11.699  0.1184  1.7179  0.3041
18514TIP3   OH277032   2.351   1.754   5.594  0.4101  0.6188  0.5852
18514TIP3    H177033   2.329   1.728   5.505 -0.3113 -1.8046  1.4303
18514TIP3    H277034   2.272   1.794   5.628 -0.0628 -0.5610  0.8882
18515TIP3   OH277035   6.524   5.767  16.568 -0.2139  0.1341 -0.2809
18515TIP3    H177036   6.455   5.717  16.526  1.4169 -2.1110 -0.3445
18515TIP3    H277037   6.518   5.744  16.661  0.7721 -0.4737 -0.3623
18516TIP3   OH277038   6.341   3.464  13.283  0.0583  0.3374  0.0787
18516TIP3    H177039   6.311   3.466  13.192 -1.7135  3.0534  0.6734
18516TIP3    H277040   6.338   3.371  13.307  1.3521 -0.5121 -2.8450
18517TIP3   OH277041   0.424   1.666   6.314 -0.3106  0.1708 -0.1949
18517TIP3    H177042   0.371   1.588   6.299 -0.1503  0.7650 -4.2550
18517TIP3    H277043   0.393   1.730   6.251  2.1423  2.0989  0.4611
18518TIP3   OH277044   0.492   3.835  16.533 -0.0740 -0.2922 -0.4919
18518TIP3    H177045   0.449   3.862  16.452  0.4654  2.8481  0.2186
18518TIP3    H277046   0.564   3.778  16.504 -0.0482  0.5834 -2.2048
18519TIP3   OH277047   3.589   0.800  12.774  0.2239 -0.7025 -0.3951
18519TIP3    H177048   3.640   0.829  12.699  0.9874 -2.7720 -0.7033
18519TIP3    H277049   3.498   0.806  12.745  0.5033 -1.2156 -1.3897
18520TIP3   OH277050   3.284   1.080  14.537  0.0142 -0.1271 -0.0161
18520TIP3    H177051   3.258   1.106  14.626  0.4224  2.0591 -0.5041
18520TIP3    H277052   3.337   1.001  14.549 -1.6985 -1.0831  1.4985
18521TIP3   OH277053   6.633   5.093   3.522  0.3348  0.8066  0.0443
18521TIP3    H177054   6.596   5.181   3.535 -0.2172  0.7021 -0.7859
18521TIP3    H277055   6.649   5.087   3.428  1.0342  0.2736  0.1956
18522TIP3   OH277056   2.740   4.142   3.979  0.3109  0.4358  0.1584
18522TIP3    H177057   2.653   4.134   4.018 -0.0165  0.8940 -0.4739
18522TIP3    H277058   2.796   4.088   4.035 -0.3944  0.0685  0.5179
18523TIP3   OH277059   1.007   2.542   1.826 -0.5128  0.0597  0.5655
18523TIP3    H177060   0.939   2.499   1.879 -1.8735  1.7114  0.2220
18523TIP3    H277061   1.011   2.631   1.862 -0.9190  0.9792 -1.5953
18524TIP3   OH277062   3.401   0.377   5.054 -0.3535  0.1630 -0.3410
18524TIP3    H177063   3.317   0.360   5.011 -0.5753  0.8135 -0.1780
18524TIP3    H277064   3.410   0.306   5.118  0.1910 -1.0677 -1.7609
18525TIP3   OH277065   1.582   4.274   4.531 -0.1620  0.1378 -0.0148
18525TIP3    H177066   1.501   4.224   4.525 -0.8434  1.4152 -1.6419
18525TIP3    H277067   1.555   4.365   4.539  1.1013  0.4405  1.0887
18526TIP3   OH277068   2.610   5.847   1.328  0.6568 -0.0815 -0.6332
18526TIP3    H177069   2.657   5.767   1.350 -0.0861 -0.2346  0.4254
18526TIP3    H277070   2.635   5.910   1.396 -0.4015 -0.0627 -0.2443
18527TIP3   OH277071   5.548   2.921   3.855 -0.5419 -0.1397 -0.4585
18527TIP3    H177072   5.519   2.995   3.802 -1.4790  0.3936  0.7694
18527TIP3    H277073   5.469   2.868   3.867 -0.0728 -0.8739 -0.6031
18528TIP3   OH277074   1.661   2.023   0.073  0.4670 -0.1849 -0.4788
18528TIP3    H177075   1.589   1.972   0.110  0.3215 -0.1134 -0.6626
18528TIP3    H277076   1.623   2.066  -0.003  0.6314  0.0707 -0.4188
18529TIP3   OH277077   6.625   6.064   2.038  0.5534 -0.2322  0.0832
18529TIP3    H177078   6.676   6.056   1.957  2.5902  0.0674  1.2980
18529TIP3    H277079   6.681   6.115   2.097 -1.4871  0.7772  1.2062
18530TIP3   OH277080   3.569   0.361   0.983 -0.0992 -0.1725  0.3769
18530TIP3    H177081   3.508   0.334   1.051 -0.5679  0.3726  0.1811
18530TIP3    H277082   3.574   0.457   0.991  1.0771 -0.2486  0.6816
18531TIP3   OH277083   4.780   6.310   2.110  0.2666  0.2806  0.0832
18531TIP3    H177084   4.816   6.253   2.178 -0.2821 -0.6971 -0.4432
18531TIP3    H277085   4.694   6.274   2.090  0.6171  0.2694 -1.4773
18532TIP3   OH277086   4.064   4.286   2.663 -0.2181  0.1575 -0.5211
18532TIP3    H177087   3.995   4.285   2.730 -0.2762  0.5785 -0.5736
18532TIP3    H277088   4.018   4.271   2.581 -0.1106 -0.6346 -0.4336
18533TIP3   OH277089   2.451   5.472  16.140  0.4242  0.1031  0.7283
18533TIP3    H177090   2.533   5.423  16.152  0.3297 -0.2862 -0.1470
18533TIP3    H277091   2.430   5.460  16.047  0.1925  1.4956  0.5909
18534TIP3   OH277092   6.256   3.673  11.633 -0.6285 -0.3030 -0.0343
18534TIP3    H177093   6.204   3.733  11.580  1.3536  0.5902 -1.0508
18534TIP3    H277094   6.288   3.727  11.706 -2.3693 -1.2333  1.4647
18535TIP3   OH277095   5.914   5.961  15.781 -0.2876 -0.0508 -1.1591
18535TIP3    H177096   5.944   5.943  15.870  2.2840 -0.7265 -2.1219
18535TIP3    H277097   5.989   6.002  15.738 -1.7092  0.8546 -2.8505
18536TIP3   OH277098   1.432   0.685   4.727  0.1943  0.9465  0.4669
18536TIP3    H177099   1.422   0.733   4.644 -1.3598  2.0966  1.2895
18536TIP3    H277100   1.453   0.753   4.791 -1.4057  0.4731  1.5352
18537TIP3   OH277101   5.946   4.209   0.662 -0.2355 -0.2206 -0.1852
18537TIP3    H177102   5.961   4.118   0.635 -0.0333 -0.3796  0.4407
18537TIP3    H277103   6.029   4.253   0.644  0.2713 -0.5866  1.2101
18538TIP3   OH277104   5.243   6.363   2.851  0.1125  0.1147 -0.3387
18538TIP3    H177105   5.250   6.414   2.932 -0.0517 -0.2931 -0.0671
18538TIP3    H277106   5.329   6.372   2.810  0.2593  0.1665 -0.0247
18539TIP3   OH277107   1.770   3.989   4.252 -0.4839 -0.2247 -0.3613
18539TIP3    H177108   1.725   4.068   4.223 -2.4529 -0.8997  0.7557
18539TIP3    H277109   1.702   3.936   4.293  0.8297 -2.4301 -0.9199
18540TIP3   OH277110   5.232   2.349   5.942 -0.1080 -0.1877 -0.3384
18540TIP3    H177111   5.190   2.265   5.964  1.0571 -0.8454 -0.5825
18540TIP3    H277112   5.316   2.347   5.988  1.0598 -0.2983 -2.4162
18541TIP3   OH277113   5.732   4.212  14.035  0.0039 -0.5471  0.1006
18541TIP3    H177114   5.725   4.296  14.079 -0.5750 -0.1940 -0.6578
18541TIP3    H277115   5.683   4.151  14.091 -1.7568  0.1406 -0.6315
18542TIP3   OH277116   4.683   5.915  17.106  0.4754  0.0128 -0.6705
18542TIP3    H177117   4.708   5.947  17.193  0.4386  0.5311 -0.8441
18542TIP3    H277118   4.667   5.995  17.056 -3.0500 -0.2868 -0.1414
18543TIP3   OH277119   3.881   3.375   3.270  0.5867  0.1395 -0.6124
18543TIP3    H177120   3.819   3.303   3.282  1.4524 -0.3617  0.9268
18543TIP3    H277121   3.828   3.446   3.234 -0.6286 -0.6905 -0.4865
18544TIP3   OH277122   2.457   0.351  16.538 -0.3170 -0.4409 -0.3464
18544TIP3    H177123   2.502   0.413  16.481 -0.4310  1.1997  1.3231
18544TIP3    H277124   2.511   0.272  16.533  0.5849  0.2176 -1.4225
18545TIP3   OH277125   5.888   3.709   1.946 -0.1867  0.2392  0.3392
18545TIP3    H177126   5.943   3.772   1.992 -1.7520  0.8395  1.4036
18545TIP3    H277127   5.840   3.761   1.882 -2.2229  0.3376  1.8891
18546TIP3   OH277128   6.196   2.973  16.635 -0.0185  0.3922 -0.4284
18546TIP3    H177129   6.191   3.068  16.621  0.3739  0.5584  0.5130
18546TIP3    H277130   6.109   2.949  16.666  0.4444  0.7786  1.2324
18547TIP3   OH277131   0.479   3.257   2.704 -0.3636 -0.1617 -0.4106
18547TIP3    H177132   0.429   3.202   2.765 -1.6616 -1.6126 -2.7358
18547TIP3    H277133   0.548   3.200   2.671 -0.1459  0.3846 -0.9030
18548TIP3   OH277134   2.910   4.065   2.479  0.1420 -0.2464 -0.3801
18548TIP3    H177135   2.850   4.136   2.501  2.1492  1.6494 -0.9292
18548TIP3    H277136   2.932   4.026   2.564  1.2748  1.6403  0.2134
18549TIP3   OH277137   2.942   5.325  15.567  0.2956  0.0125 -0.7574
18549TIP3    H177138   2.936   5.420  15.560 -1.5447  0.1428  1.9244
18549TIP3    H277139   2.996   5.299  15.492  0.5266  3.1078 -1.7407
18550TIP3   OH277140   5.643   1.841   1.523 -0.7204  0.3096 -0.5593
18550TIP3    H177141   5.716   1.796   1.480 -1.5020 -0.3333 -1.2402
18550TIP3    H277142   5.578   1.773   1.537 -0.9730  0.7649  0.5611
18551TIP3   OH277143   1.331   3.515   1.236  0.6010  0.4160 -0.1081
18551TIP3    H177144   1.236   3.521   1.249  0.5616  1.2590 -0.8343
18551TIP3    H277145   1.349   3.570   1.161  1.4326 -1.1579 -1.0967
18552TIP3   OH277146   1.919   2.957  12.420 -0.2727  0.4062 -0.3032
18552TIP3    H177147   1.957   2.870  12.403 -0.5309  0.8038 -3.3335
18552TIP3    H277148   1.847   2.941  12.480  0.0403 -1.4082 -0.3811
18553TIP3   OH277149   2.876   1.334  16.834 -0.0567  0.5916  0.1710
18553TIP3    H177150   2.827   1.350  16.753  0.4020 -0.0617 -0.2338
18553TIP3    H277151   2.967   1.349  16.811  0.1598 -0.3784  0.3489
18554TIP3   OH277152   3.659   5.629   0.970  0.3383  0.8617  0.9893
18554TIP3    H177153   3.733   5.656   0.916 -0.2048  1.4958  0.5612
18554TIP3    H277154   3.675   5.536   0.987  0.9122  0.8487  0.3879
18555TIP3   OH277155   4.987   4.041  16.607 -0.0216  0.7315 -0.1597
18555TIP3    H177156   5.056   4.065  16.546  1.0668  0.3970  0.9041
18555TIP3    H277157   4.969   3.949  16.588 -0.2146  0.8351 -0.4736
18556TIP3   OH277158   1.666   2.210   1.888  0.1309 -0.0390  0.1693
18556TIP3    H177159   1.697   2.120   1.889 -0.5680 -0.2835  0.3399
18556TIP3    H277160   1.648   2.228   1.795  0.3869 -0.0329  0.1207
18557TIP3   OH277161   5.981   4.702   0.665 -0.0062 -0.4812 -0.4347
18557TIP3    H177162   6.015   4.683   0.578  1.9922  0.2946  0.1534
18557TIP3    H277163   6.035   4.651   0.724 -0.2736  0.2616  0.4771
18558TIP3   OH277164   3.102   4.120  13.654  0.1032 -0.6927  0.2404
18558TIP3    H177165   3.133   4.085  13.571 -0.2790  0.0111 -0.2081
18558TIP3    H277166   3.155   4.199  13.668  1.1936 -1.5964  1.4008
18559TIP3   OH277167   5.997   5.475   3.429 -0.0254  0.0829 -0.1294
18559TIP3    H177168   6.052   5.554   3.428  1.2798 -0.8268 -2.1437
18559TIP3    H277169   5.985   5.456   3.522 -0.8128  2.9537  0.4208
18560TIP3   OH277170   4.640   2.468  12.966  0.6498  1.1138 -0.4365
18560TIP3    H177171   4.636   2.563  12.983 -0.9471  1.9042 -4.5396
18560TIP3    H277172   4.678   2.461  12.878 -1.6674 -1.8492 -1.3037
18561TIP3   OH277173   4.802   4.711  12.730 -0.2199 -0.0998  0.6944
18561TIP3    H177174   4.810   4.678  12.820  0.0457  0.3060  0.8234
18561TIP3    H277175   4.892   4.728  12.703 -0.3190  0.0325  0.4465
18562TIP3   OH277176   5.233   4.313   0.607 -0.3543  0.3423 -0.1672
18562TIP3    H177177   5.216   4.222   0.581  0.0082 -0.5451  2.5558
18562TIP3    H277178   5.328   4.322   0.603 -0.2988  0.2226  0.6780
18563TIP3   OH277179   2.846   6.091  16.502 -0.0233  0.7227 -0.1007
18563TIP3    H177180   2.760   6.059  16.474 -1.0108  2.5774  0.7292
18563TIP3    H277181   2.905   6.067  16.431 -1.2617 -0.3890 -0.7743
18564TIP3   OH277182   3.663   2.739  11.836  0.4677  0.1658 -0.6728
18564TIP3    H177183   3.672   2.787  11.919  0.9118 -0.9229 -0.0766
18564TIP3    H277184   3.728   2.778  11.778  1.4918 -0.3385  0.1161
18565TIP3   OH277185   2.274   0.467   5.392  0.1085  0.2606 -0.2148
18565TIP3    H177186   2.201   0.405   5.397  0.9618 -0.8094 -0.6724
18565TIP3    H277187   2.300   0.480   5.484 -0.1822  0.0785 -0.1039
18566TIP3   OH277188   2.180   6.104   3.166 -0.2507 -0.0294 -0.9062
18566TIP3    H177189   2.260   6.153   3.146  0.4340 -0.6777  0.2018
18566TIP3    H277190   2.207   6.012   3.165 -0.7477 -0.1982  0.4816
18567TIP3   OH277191   4.299   6.664  17.075  0.2361 -0.2311 -0.3608
18567TIP3    H177192   4.211   6.644  17.044  0.3954  0.5215 -1.3181
18567TIP3    H277193   4.285   6.729  17.145  0.0623  0.2015 -0.7976
18568TIP3   OH277194   5.409   6.655   4.738 -0.0457  0.8570 -0.2457
18568TIP3    H177195   5.359   6.620   4.812  2.1345  0.9118  1.2867
18568TIP3    H277196   5.384   6.599   4.664 -1.6415  0.3005  0.6802
18569TIP3   OH277197   0.724   2.174   4.856  0.0936 -0.4927  0.7027
18569TIP3    H177198   0.656   2.238   4.876 -0.6369 -1.1939  0.4733
18569TIP3    H277199   0.750   2.140   4.941 -2.2696 -2.7086  0.5945
18570TIP3   OH277200   5.284   3.690   2.628  0.6204  0.1357 -0.5159
18570TIP3    H177201   5.282   3.607   2.580  1.0462 -0.3188  0.2521
18570TIP3    H277202   5.208   3.686   2.686 -0.7714  1.3261 -2.1926
18571TIP3   OH277203   5.279   4.398  11.189  0.3049 -0.2928  0.1823
18571TIP3    H177204   5.194   4.369  11.154  0.9689 -0.4583 -1.3568
18571TIP3    H277205   5.309   4.464  11.126  0.5038  1.0806  1.6870
18572TIP3   OH277206   3.490   0.828   1.147  0.5255  0.2617  0.0400
18572TIP3    H177207   3.525   0.819   1.236 -2.0848  1.6233  1.2526
18572TIP3    H277208   3.469   0.921   1.138 -1.0260 -0.1925 -1.2956
18573TIP3   OH277209   6.120   0.987  11.545 -0.1658  0.1406 -0.8304
18573TIP3    H177210   6.074   0.934  11.479 -0.0759 -1.0779  0.0713
18573TIP3    H277211   6.204   0.943  11.557 -0.0987  0.4707 -0.0586
18574TIP3   OH277212   6.210   0.640  14.264 -0.9292  0.1862 -0.5890
18574TIP3    H177213   6.298   0.675  14.278 -1.4039  1.4202 -0.6087
18574TIP3    H277214   6.168   0.647  14.349 -0.7859 -1.0610 -0.4112
18575TIP3   OH277215   5.514   6.791   5.789 -0.0309 -0.2469 -0.4095
18575TIP3    H177216   5.543   6.708   5.826  0.7892  1.0247  1.8897
18575TIP3    H277217   5.441   6.768   5.732 -1.7521 -2.2609  2.4546
18576TIP3   OH277218   4.024   3.520  11.359  0.6479 -0.3308  0.5170
18576TIP3    H177219   3.961   3.488  11.424 -1.0693  1.1264 -0.3743
18576TIP3    H277220   3.983   3.499  11.275  1.2730  0.7962 -0.0728
18577TIP3   OH277221   2.140   4.856   0.362  0.4166 -0.2120 -0.0318
18577TIP3    H177222   2.132   4.932   0.420  3.2349  2.2719 -2.6899
18577TIP3    H277223   2.078   4.874   0.291  2.3667  0.5927 -1.5875
18578TIP3   OH277224   0.071   4.382   0.061 -0.5125 -0.0218 -0.0042
18578TIP3    H177225   0.097   4.405  -0.028  0.2724  0.5200  0.3641
18578TIP3    H277226  -0.019   4.413   0.069 -0.7868 -0.6052 -0.8029
18579TIP3   OH277227   2.593   0.456  12.182  0.0261  0.0804  0.2434
18579TIP3    H177228   2.565   0.368  12.158  0.9843 -0.2722  0.4081
18579TIP3    H277229   2.512   0.502  12.202 -0.3548 -1.3100  2.0020
18580TIP3   OH277230   1.823   4.794  15.311 -0.2040  0.2259  0.2366
18580TIP3    H177231   1.833   4.724  15.247  0.3058 -0.1066  0.6715
18580TIP3    H277232   1.825   4.875  15.260  0.6803 -0.0156 -0.1207
18581TIP3   OH277233   0.927   1.519  14.163 -0.4091  0.0871  0.3055
18581TIP3    H177234   0.942   1.489  14.253  1.3659 -0.2663 -0.0773
18581TIP3    H277235   0.902   1.440  14.116  0.2221 -0.0263  0.1592
18582TIP3   OH277236   5.775   3.726  16.721 -0.1901 -0.2526  0.3079
18582TIP3    H177237   5.836   3.696  16.653 -0.6330 -1.9375  0.6234
18582TIP3    H277238   5.810   3.810  16.749  0.9884 -0.3635 -0.7753
18583TIP3   OH277239   5.095   6.392  11.277  0.4968 -0.2795  0.1978
18583TIP3    H177240   5.070   6.484  11.283 -1.1562 -0.6698 -0.3731
18583TIP3    H277241   5.165   6.390  11.211  1.5404  0.7468  1.2684
18584TIP3   OH277242   1.261   5.814  12.824  0.2165 -0.0569  0.0823
18584TIP3    H177243   1.344   5.785  12.785 -0.7457 -1.6913 -0.7942
18584TIP3    H277244   1.196   5.751  12.793 -0.9154 -0.3511  2.8950
18585TIP3   OH277245   2.891   2.720  16.416  0.5391  0.8409 -0.0577
18585TIP3    H177246   2.797   2.736  16.402  0.3042  0.7597  1.3471
18585TIP3    H277247   2.895   2.665  16.494  1.7214  0.0984 -0.6352
18586TIP3   OH277248   3.979   3.328   5.672 -0.6454  0.0377  0.2734
18586TIP3    H177249   3.985   3.301   5.580 -0.2044  0.5981  0.1262
18586TIP3    H277250   4.056   3.290   5.713  0.2050  1.3776 -0.0286
18587TIP3   OH277251   4.586   2.303   2.524 -0.2805  0.2344  0.2476
18587TIP3    H177252   4.668   2.258   2.546 -0.1572  0.4186  0.1739
18587TIP3    H277253   4.596   2.324   2.431  0.2767  1.6759  0.6220
18588TIP3   OH277254   3.501   2.536  12.689  0.3652  0.1794 -0.5396
18588TIP3    H177255   3.528   2.611  12.742 -1.6764  0.0421  0.7350
18588TIP3    H277256   3.496   2.464  12.751 -0.3228 -0.3975 -1.2612
18589TIP3   OH277257   1.339   2.546  12.539 -0.2672 -0.0037  0.2849
18589TIP3    H177258   1.310   2.457  12.558  1.3573 -0.2889  1.4921
18589TIP3    H277259   1.258   2.598  12.538 -1.2442 -1.5111 -0.6560
18590TIP3   OH277260   1.416   5.350  12.585 -0.3461  0.1639 -0.1879
18590TIP3    H177261   1.383   5.403  12.513 -0.1363  1.0443  0.3565
18590TIP3    H277262   1.499   5.314  12.553 -1.6403 -1.8205 -1.4552
18591TIP3   OH277263   3.749   6.706   5.142 -0.3320 -0.2536 -0.2034
18591TIP3    H177264   3.687   6.763   5.096  0.5243 -0.7023 -1.9810
18591TIP3    H277265   3.699   6.626   5.161 -0.3652 -0.5425 -1.4627
18592TIP3   OH277266   5.444   5.677  16.515 -0.3023  0.4544  0.0081
18592TIP3    H177267   5.403   5.751  16.470 -3.2558 -1.0186  0.1349
18592TIP3    H277268   5.447   5.608  16.449 -2.2252 -0.8703  1.2400
18593TIP3   OH277269   4.400   1.729   2.020  0.2794  0.0813 -0.4188
18593TIP3    H177270   4.312   1.753   2.047  0.5735  0.1040  0.5509
18593TIP3    H277271   4.453   1.737   2.100  0.6318 -2.4795 -0.3425
18594TIP3   OH277272   5.379   2.502   1.566  0.1875 -0.6291  0.4327
18594TIP3    H177273   5.463   2.471   1.532 -0.6070 -1.7574 -0.5690
18594TIP3    H277274   5.363   2.584   1.519  0.1739 -1.0255 -0.2687
18595TIP3   OH277275   2.570   4.133   4.979 -0.3434 -0.0644  0.2499
18595TIP3    H177276   2.570   4.046   5.017 -1.0378  1.0226  2.8167
18595TIP3    H277277   2.496   4.133   4.918 -1.5213 -0.6816  1.6566
18596TIP3   OH277278   4.124   1.515   0.423  0.1584  0.0283 -0.3484
18596TIP3    H177279   4.081   1.481   0.344  2.1512 -1.6310 -0.7823
18596TIP3    H277280   4.055   1.517   0.489 -0.9423 -1.0851 -1.4342
18597TIP3   OH277281   5.877   1.927  11.860  0.2478 -0.0495 -0.3358
18597TIP3    H177282   5.802   1.884  11.820  1.1657 -2.0841  0.0613
18597TIP3    H277283   5.894   2.003  11.804 -2.5842  0.9017  0.0491
18598TIP3   OH277284   5.624   6.486  13.198 -0.3775 -0.1813  0.1983
18598TIP3    H177285   5.605   6.519  13.110 -3.1281  0.0083  0.8212
18598TIP3    H277286   5.583   6.399  13.200 -2.2963  0.7317  1.9971
18599TIP3   OH277287   4.521   6.787   2.479  0.0035  0.1447  0.0504
18599TIP3    H177288   4.520   6.880   2.460  0.5556  0.3838  1.1334
18599TIP3    H277289   4.481   6.746   2.402 -2.0520  1.4264  0.3698
18600TIP3   OH277290   2.118   5.907   4.087  0.2635 -0.4603 -0.0166
18600TIP3    H177291   2.120   5.851   4.010  1.2038 -0.0540 -0.2973
18600TIP3    H277292   2.206   5.898   4.125 -1.3431 -3.6605  3.1879
18601TIP3   OH277293   0.780   4.635   4.332  0.1770  0.6016  0.0851
18601TIP3    H177294   0.695   4.640   4.375 -0.7391 -1.0310 -1.4578
18601TIP3    H277295   0.834   4.581   4.390 -0.7065 -0.6588 -0.2489
18602TIP3   OH277296   0.769   5.756   1.351 -0.0915  0.1551  0.7561
18602TIP3    H177297   0.795   5.819   1.419 -2.7156  1.6203  0.4588
18602TIP3    H277298   0.695   5.708   1.390 -0.8699  0.2174 -0.6139
18603TIP3   OH277299   0.565   3.866   5.235  0.6182 -0.1175  0.3024
18603TIP3    H177300   0.612   3.819   5.166  0.2051  1.5885 -1.1823
18603TIP3    H277301   0.524   3.797   5.287  1.7101 -1.4708 -0.5956
18604TIP3   OH277302   2.866   1.061  14.815 -0.1053  0.2726 -1.0809
18604TIP3    H177303   2.957   1.037  14.799 -0.4364 -0.7581 -1.4672
18604TIP3    H277304   2.852   1.043  14.908  0.2819  1.1019 -0.8603
18605TIP3   OH277305   1.458   3.303  15.534  0.4847  0.3722 -0.5720
18605TIP3    H177306   1.512   3.382  15.530  1.4002 -0.2969 -2.0360
18605TIP3    H277307   1.509   3.242  15.587 -0.7879  1.1649  1.6037
18606TIP3   OH277308   4.439   3.019  12.487  0.2438  0.3016  0.5437
18606TIP3    H177309   4.411   3.109  12.504  0.2109  0.6052 -1.0431
18606TIP3    H277310   4.359   2.973  12.460  0.1278 -0.3878  1.9955
18607TIP3   OH277311   3.344   5.406  11.780 -0.0519  0.2965 -0.1780
18607TIP3    H177312   3.347   5.335  11.845  0.1399  1.1026  0.7009
18607TIP3    H277313   3.265   5.388  11.729 -0.0501 -0.5086  0.0958
18608TIP3   OH277314   3.394   5.987  17.292  0.3125 -0.1967 -0.2994
18608TIP3    H177315   3.411   6.028  17.207 -0.7761  0.1716 -0.3504
18608TIP3    H277316   3.478   5.950  17.319  1.1453  1.4374 -0.5918
18609TIP3   OH277317   4.604   0.783   3.432 -0.0375  0.7592  0.0628
18609TIP3    H177318   4.634   0.844   3.500 -0.2360 -0.1712  0.9929
18609TIP3    H277319   4.532   0.735   3.473 -0.6475  0.7095 -1.0647
18610TIP3   OH277320   2.928   1.412   4.297 -0.2704  0.2317  0.8236
18610TIP3    H177321   2.980   1.476   4.346 -0.1804  0.7192  0.0906
18610TIP3    H277322   2.937   1.438   4.206  0.3504 -1.2565  0.4476
18611TIP3   OH277323   0.570   5.060  15.546  0.0003 -0.5176  0.2797
18611TIP3    H177324   0.538   5.100  15.465  0.6679  1.7314  1.0874
18611TIP3    H277325   0.665   5.071  15.542 -0.0148  0.2242  1.6532
18612TIP3   OH277326   3.666   4.637   4.836 -0.2616 -0.0023 -0.0069
18612TIP3    H177327   3.673   4.731   4.822 -0.9710  0.0456 -0.0598
18612TIP3    H277328   3.579   4.625   4.875  0.4400 -0.4574  1.4548
18613TIP3   OH277329   1.187   5.181   4.380 -0.0166  0.3697 -0.2531
18613TIP3    H177330   1.273   5.203   4.345  0.2282 -0.7063 -0.3377
18613TIP3    H277331   1.154   5.264   4.415  1.2044  0.7149  0.1160
18614TIP3   OH277332   4.353   0.356   4.714  0.1727 -0.6155  0.5808
18614TIP3    H177333   4.275   0.398   4.750  0.9910  0.3890  1.2290
18614TIP3    H277334   4.320   0.288   4.656 -1.1910  0.7277 -0.2544
18615TIP3   OH277335   6.510   4.173   1.574 -0.2216 -0.3043 -0.5075
18615TIP3    H177336   6.444   4.112   1.605  0.7518 -0.9069  0.4039
18615TIP3    H277337   6.554   4.204   1.653  1.1323 -0.5350 -1.1489
18616TIP3   OH277338   4.457   2.545  12.631 -0.0375 -0.0517 -0.4402
18616TIP3    H177339   4.497   2.548  12.545  1.0041 -0.5295  0.0214
18616TIP3    H277340   4.380   2.602  12.624 -0.6999 -1.1134 -2.0457
18617TIP3   OH277341   4.899   3.755   1.447  0.0646 -0.2460  0.1458
18617TIP3    H177342   4.899   3.775   1.540  1.9703  1.2824 -0.1381
18617TIP3    H277343   4.808   3.763   1.420 -0.5253 -0.9360  1.9250
18618TIP3   OH277344   4.019   5.822  12.949 -0.3194 -0.2598 -0.3467
18618TIP3    H177345   4.113   5.807  12.942 -0.4092 -0.4615 -1.1281
18618TIP3    H277346   3.990   5.760  13.017  0.0902 -0.2754 -0.1845
18619TIP3   OH277347   5.386   6.186   4.575  0.4536  0.9143 -0.3029
18619TIP3    H177348   5.355   6.177   4.485  1.0332  0.4243 -0.4618
18619TIP3    H277349   5.397   6.096   4.606  1.3589  1.0719 -0.1359
18620TIP3   OH277350   0.899   5.685  12.094  0.2205  0.4768 -0.1772
18620TIP3    H177351   0.908   5.709  12.186 -0.1974 -0.3509  0.0886
18620TIP3    H277352   0.853   5.759  12.055 -0.0291  0.6261  0.3855
18621TIP3   OH277353   4.603   1.725   4.688 -0.6549 -0.2993 -0.0851
18621TIP3    H177354   4.618   1.819   4.691 -2.1941 -0.0223 -0.4054
18621TIP3    H277355   4.611   1.697   4.780 -0.5656  0.2113  0.0642
18622TIP3   OH277356   6.723   4.847   4.501 -0.2038  0.0462  0.3778
18622TIP3    H177357   6.774   4.768   4.519 -0.3010 -0.1556 -0.2152
18622TIP3    H277358   6.787   4.918   4.503 -0.4954  0.2633  3.2721
18623TIP3   OH277359   2.160   3.103   4.411  0.4534  0.3054  0.3148
18623TIP3    H177360   2.131   3.013   4.394  2.8595 -0.2304 -1.2510
18623TIP3    H277361   2.242   3.111   4.361  0.8282  3.0194  1.3096
18624TIP3   OH277362   2.771   0.853   5.850 -0.3739  0.8712  0.3014
18624TIP3    H177363   2.824   0.928   5.823  1.0618 -0.2031  0.0330
18624TIP3    H277364   2.824   0.777   5.826 -0.8654 -0.2038  2.4371
18625TIP3   OH277365   2.026   5.077   5.189  0.5139  0.0485  0.2060
18625TIP3    H177366   2.090   5.077   5.260  1.0721 -0.8452 -0.2785
18625TIP3    H277367   2.065   5.022   5.121 -1.6270 -2.1461  0.6839
18626TIP3   OH277368   6.596   1.057  15.909  0.6445  0.1006 -0.4929
18626TIP3    H177369   6.623   1.022  15.994  0.8425  0.4724 -0.3999
18626TIP3    H277370   6.675   1.053  15.855  0.2272 -1.2386 -1.0355
18627TIP3   OH277371   2.656   6.405  15.044 -0.2885  0.1753 -0.6045
18627TIP3    H177372   2.715   6.361  14.982  0.2444 -0.6743  0.4770
18627TIP3    H277373   2.715   6.449  15.105 -0.7481 -0.8329  0.5978
18628TIP3   OH277374   2.250   0.764   3.548 -0.7299  0.4370  0.2752
18628TIP3    H177375   2.345   0.754   3.538 -0.7372  2.1781 -2.0269
18628TIP3    H277376   2.214   0.731   3.466 -1.9742  1.6624  0.3150
18629TIP3   OH277377   2.186   1.707  14.327 -0.0950 -0.3622 -0.2333
18629TIP3    H177378   2.184   1.756  14.244  2.8733 -0.4125 -0.4113
18629TIP3    H277379   2.097   1.673  14.337 -0.5876 -0.1517 -3.2874
18630TIP3   OH277380   1.187   1.867   0.162 -0.6470 -0.1357  0.6072
18630TIP3    H177381   1.122   1.838   0.226 -1.5108  0.2714 -0.0712
18630TIP3    H277382   1.150   1.842   0.077 -0.3318  0.8816  0.1609
18631TIP3   OH277383   4.257   5.462   3.085 -0.0530  0.5147  0.2140
18631TIP3    H177384   4.215   5.419   3.010 -0.2826 -0.9056  1.1514
18631TIP3    H277385   4.350   5.465   3.061  0.0455 -0.9670  0.3423
18632TIP3   OH277386   3.605   3.711  15.870  0.3696  0.4151  0.3246
18632TIP3    H177387   3.622   3.780  15.934  0.8502  0.6901 -0.0959
18632TIP3    H277388   3.631   3.749  15.786  0.0279 -0.0504  0.0058
18633TIP3   OH277389   1.450   2.674  14.512 -0.5886 -0.9814  0.2055
18633TIP3    H177390   1.377   2.682  14.574 -0.3136  1.7595  0.2334
18633TIP3    H277391   1.513   2.617  14.558 -1.7947 -1.6707  1.0488
18634TIP3   OH277392   6.651   3.309   5.166 -0.3985 -0.0426  0.3608
18634TIP3    H177393   6.664   3.342   5.077 -3.1721 -2.2743 -0.9264
18634TIP3    H277394   6.739   3.307   5.204  0.9899 -0.2976 -2.7608
18635TIP3   OH277395   6.277   6.577   4.122 -0.4170 -0.4827 -0.0326
18635TIP3    H177396   6.230   6.659   4.108 -2.0438 -1.0706  1.6825
18635TIP3    H277397   6.290   6.574   4.217  1.5819 -1.1788 -0.3093
18636TIP3   OH277398   1.810   6.193  16.204  0.2284  0.2574 -0.6404
18636TIP3    H177399   1.730   6.246  16.200 -1.2973 -1.6935  2.5127
18636TIP3    H277400   1.823   6.175  16.297  4.7604  1.0493 -0.9735
18637TIP3   OH277401   4.871   4.517  16.905  0.1638 -0.1842  0.2067
18637TIP3    H177402   4.804   4.545  16.842  0.7135  1.4372  0.3317
18637TIP3    H277403   4.953   4.517  16.855  0.0261 -2.7729 -0.1144
18638TIP3   OH277404   4.755   4.970  14.791 -0.1345  0.2725 -0.2850
18638TIP3    H177405   4.791   5.034  14.731 -1.1072  1.5227  0.4393
18638TIP3    H277406   4.720   5.022  14.864 -0.7619 -1.0819  0.4019
18639TIP3   OH277407   2.901   3.115   3.321  0.2075 -0.2310 -0.7830
18639TIP3    H177408   2.967   3.062   3.366  0.5792  0.2416 -0.7741
18639TIP3    H277409   2.921   3.205   3.345 -1.5810 -0.2128  0.7028
18640TIP3   OH277410   2.501   2.661   5.552  0.6378  0.1469  0.2250
18640TIP3    H177411   2.588   2.664   5.590  0.4358  0.5000  0.6768
18640TIP3    H277412   2.445   2.628   5.622  0.3150  0.4871  0.1294
18641TIP3   OH277413   0.240   5.242   0.618 -0.1328  0.4197  0.0413
18641TIP3    H177414   0.270   5.221   0.529  1.1674  0.3751  0.4966
18641TIP3    H277415   0.231   5.157   0.661 -0.5386  0.4565  0.0335
18642TIP3   OH277416   0.841   4.627   0.962  0.2674  0.1379 -0.4162
18642TIP3    H177417   0.907   4.586   0.905  0.9890  1.5927 -0.6593
18642TIP3    H277418   0.885   4.635   1.047  0.7602  1.9795 -0.8260
18643TIP3   OH277419   6.058   5.526   4.688  0.2882  0.1537  0.1477
18643TIP3    H177420   6.036   5.461   4.621 -0.2634 -0.7961  1.2240
18643TIP3    H277421   6.151   5.544   4.674  0.3827 -0.6770 -0.3406
18644TIP3   OH277422   6.212   2.465  13.361  0.2984 -0.3172 -0.2402
18644TIP3    H177423   6.291   2.518  13.356 -1.6181  2.6656 -0.2198
18644TIP3    H277424   6.182   2.474  13.452 -2.0381  1.6835 -1.1443
18645TIP3   OH277425   2.505   5.374  11.594  0.2067  0.0442 -0.0793
18645TIP3    H177426   2.538   5.420  11.517 -0.3929  0.8420  0.1322
18645TIP3    H277427   2.555   5.293  11.597  2.4471  1.4066  0.4834
18646TIP3   OH277428   0.833   2.462  16.758  0.1619 -0.1073  0.0374
18646TIP3    H177429   0.835   2.557  16.743 -0.8714  0.0809  1.0098
18646TIP3    H277430   0.868   2.451  16.846 -1.0285 -0.5076  0.4627
18647TIP3   OH277431   0.798   3.102   6.407  0.1901 -0.4487  0.3482
18647TIP3    H177432   0.888   3.102   6.441  0.3050 -0.8515  0.0445
18647TIP3    H277433   0.748   3.052   6.471 -0.0817  0.8489  1.1905
18648TIP3   OH277434   4.473   0.701  13.063  0.2151 -0.1542  1.0377
18648TIP3    H177435   4.449   0.726  12.973  1.8738 -2.1684  0.0060
18648TIP3    H277436   4.568   0.694  13.061  0.3837  1.0272  3.3130
18649TIP3   OH277437   6.565   6.278  13.914  0.0805  0.4259  0.4578
18649TIP3    H177438   6.621   6.294  13.990 -1.2920 -0.3094  1.6420
18649TIP3    H277439   6.505   6.352  13.911  0.4310  0.6897 -0.1897
18650TIP3   OH277440   4.039   3.695  12.860 -0.0152  0.2937 -0.1523
18650TIP3    H177441   4.003   3.784  12.858  0.7009  0.6039  0.4497
18650TIP3    H277442   3.984   3.645  12.800 -1.6420  0.6920  0.9688
18651TIP3   OH277443   4.850   6.644  11.660 -0.6261  0.6361  0.0064
18651TIP3    H177444   4.849   6.615  11.569 -1.2516 -0.8632  0.4692
18651TIP3    H277445   4.772   6.604  11.699  0.7401 -0.4486  1.7161
18652TIP3   OH277446   5.658   4.849  15.931  0.0377  0.1359  0.5251
18652TIP3    H177447   5.721   4.856  16.003 -0.4103  1.7176  0.7789
18652TIP3    H277448   5.574   4.833  15.975 -0.1429  0.5222  0.3207
18653TIP3   OH277449   5.283   4.735  15.499 -0.2526  0.2506 -0.5507
18653TIP3    H177450   5.317   4.824  15.497 -0.3222  0.2884 -0.0284
18653TIP3    H277451   5.358   4.681  15.527  0.3023 -0.0927 -2.6060
18654TIP3   OH277452   1.643   0.941   1.682 -0.1025 -0.1278  0.0517
18654TIP3    H177453   1.559   0.932   1.636  0.9416 -3.4022 -1.3406
18654TIP3    H277454   1.691   1.006   1.631 -0.4513 -0.8316 -1.1897
18655TIP3   OH277455   6.316   0.531   6.236 -0.1430  0.6526 -0.7124
18655TIP3    H177456   6.226   0.516   6.264 -0.1112 -0.4445 -1.1675
18655TIP3    H277457   6.361   0.563   6.315 -0.5937 -0.1602 -0.1251
18656TIP3   OH277458   4.232   4.305  15.616 -0.1668  0.0055 -0.8196
18656TIP3    H177459   4.155   4.279  15.667 -1.4038 -0.3901 -2.8013
18656TIP3    H277460   4.306   4.265  15.661 -0.9821  1.2435  1.7313
18657TIP3   OH277461   5.751   2.923  11.895 -0.6022  0.1846  0.0296
18657TIP3    H177462   5.841   2.920  11.928 -0.0414  1.5473 -1.2944
18657TIP3    H277463   5.696   2.919  11.974  0.5945 -1.3863  0.8037
18658TIP3   OH277464   2.638   6.341  12.902  0.5838  0.5088  0.4061
18658TIP3    H177465   2.663   6.433  12.900  1.1149  0.3426 -1.0880
18658TIP3    H277466   2.634   6.315  12.810  2.3197 -1.4568  0.8377
18659TIP3   OH277467   3.251   5.310   2.473 -0.1018 -0.5549 -0.8914
18659TIP3    H177468   3.261   5.282   2.564 -1.1917  0.7084 -0.3623
18659TIP3    H277469   3.156   5.316   2.460  0.0332 -1.4517 -2.3476
18660TIP3   OH277470   6.769   2.937   4.546  0.2468  0.1846 -0.3323
18660TIP3    H177471   6.714   2.960   4.471  0.7567  0.9783 -0.4592
18660TIP3    H277472   6.728   2.980   4.620  0.3700  0.2964 -0.3302
18661TIP3   OH277473   3.316   5.911   5.293 -0.2269 -0.0031 -0.4831
18661TIP3    H177474   3.362   5.942   5.215  1.4967  1.0421  0.9123
18661TIP3    H277475   3.290   5.992   5.338 -0.6718 -0.6035  0.3491
18662TIP3   OH277476   4.220   6.780  12.998 -0.4552 -0.6567  0.2469
18662TIP3    H177477   4.273   6.720  13.052  1.1273  1.0311  0.6600
18662TIP3    H277478   4.233   6.865  13.040 -1.4065  0.2261 -1.2464
18663TIP3   OH277479   3.257   4.459  14.027 -0.4675 -0.5799  0.2234
18663TIP3    H177480   3.266   4.365  14.011  0.2392 -0.1591 -2.1714
18663TIP3    H277481   3.311   4.477  14.103 -0.0741 -2.0185  0.2869
18664TIP3   OH277482   2.178   2.089   3.594 -0.3278 -0.3234 -0.1628
18664TIP3    H177483   2.187   2.092   3.689 -0.6643  1.4490 -0.1707
18664TIP3    H277484   2.268   2.098   3.561 -0.4686  1.7642 -0.0324
18665TIP3   OH277485   2.734   1.586   2.174 -0.2015  0.4246 -0.4600
18665TIP3    H177486   2.731   1.678   2.145 -0.8074  0.5364 -0.0532
18665TIP3    H277487   2.827   1.565   2.176 -0.1221  0.4005 -2.5382
18666TIP3   OH277488   1.997   1.298  12.413 -0.4890 -0.0192  0.6239
18666TIP3    H177489   2.058   1.237  12.455 -1.8471 -0.3166  2.2103
18666TIP3    H277490   1.911   1.258  12.426 -1.1694  1.1496 -0.2627
18667TIP3   OH277491   4.881   6.230  15.667 -0.6254  0.6069  0.0608
18667TIP3    H177492   4.964   6.229  15.714 -1.2526  1.4400  1.2249
18667TIP3    H277493   4.904   6.263  15.580  0.0361  2.3348  0.8635
18668TIP3   OH277494   1.093   6.556   1.747 -0.6250  0.0164  0.9197
18668TIP3    H177495   1.144   6.615   1.802  3.0602 -0.7901 -1.4135
18668TIP3    H277496   1.157   6.492   1.715 -2.8244 -0.3426 -3.1611
18669TIP3   OH277497   4.567   4.620  15.613  0.5712 -0.1197 -0.3579
18669TIP3    H177498   4.592   4.561  15.542 -0.2951 -1.7184  0.6149
18669TIP3    H277499   4.645   4.626  15.668  0.4718 -0.9078 -0.1194
18670TIP3   OH277500   0.914   6.154  10.653 -0.0205 -0.0159 -0.0914
18670TIP3    H177501   0.957   6.189  10.575  0.5394 -0.4667  0.0155
18670TIP3    H277502   0.821   6.160  10.633  0.1026  0.4275 -0.5551
18671TIP3   OH277503   3.383   2.722   3.915  0.0823  0.0605  0.1526
18671TIP3    H177504   3.363   2.784   3.845 -1.9769  0.4451  1.0492
18671TIP3    H277505   3.352   2.638   3.882 -0.0094  0.0653  0.2279
18672TIP3   OH277506   4.454   4.513  14.444 -0.1018 -0.0995 -0.8631
18672TIP3    H177507   4.399   4.552  14.376 -0.3452 -0.5035 -0.8999
18672TIP3    H277508   4.498   4.439  14.401 -0.7186 -0.7270 -0.4259
18673TIP3   OH277509   3.785   1.148   4.672 -0.2783  0.1285  0.6652
18673TIP3    H177510   3.850   1.100   4.723  0.6849  0.0215 -0.6319
18673TIP3    H277511   3.784   1.236   4.710  0.4556  0.0626  0.8420
18674TIP3   OH277512   0.409   1.604   5.796  0.6950 -0.0185 -0.1395
18674TIP3    H177513   0.377   1.538   5.736  0.0179  0.6905 -0.5599
18674TIP3    H277514   0.405   1.563   5.882 -0.6094 -0.2044 -0.2861
18675TIP3   OH277515   2.739   3.487  10.654 -0.3101 -0.0635 -0.2481
18675TIP3    H177516   2.687   3.567  10.655  2.1186  1.5725  1.8366
18675TIP3    H277517   2.721   3.445  10.739  2.1367  0.8364  0.7722
18676TIP3   OH277518   1.957   4.417   3.121  0.3197 -0.6005  0.5089
18676TIP3    H177519   1.910   4.334   3.109 -0.5601 -0.2107  1.2526
18676TIP3    H277520   2.016   4.400   3.194  0.0707 -0.5411  0.7238
18677TIP3   OH277521   3.890   3.736   4.740 -0.4394  0.3778 -0.4106
18677TIP3    H177522   3.921   3.655   4.702 -0.5988 -0.0951  0.4525
18677TIP3    H277523   3.872   3.793   4.665  1.1017  0.1533 -0.9552
18678TIP3   OH277524   5.015   4.254   5.795  0.1381 -0.0010  0.5722
18678TIP3    H177525   4.938   4.200   5.777  0.7506 -1.2845  1.7135
18678TIP3    H277526   4.980   4.333   5.835 -0.7299  0.2361 -0.6199
18679TIP3   OH277527   3.333   0.688  13.001  0.4674  0.0969 -0.2029
18679TIP3    H177528   3.340   0.762  13.060  0.6949 -2.1800  2.7803
18679TIP3    H277529   3.412   0.636  13.017 -0.6418 -1.8188 -0.6844
18680TIP3   OH277530   3.824   1.623  12.023 -0.0678 -0.3735 -0.2010
18680TIP3    H177531   3.895   1.568  12.057 -0.3685 -1.1441 -0.8250
18680TIP3    H277532   3.747   1.596  12.073 -0.5100 -1.5019 -1.4719
18681TIP3   OH277533   1.453   6.008  15.622 -0.2963 -0.3877  0.0406
18681TIP3    H177534   1.470   5.914  15.632 -2.0357 -0.6966  0.1402
18681TIP3    H277535   1.358   6.017  15.627  0.0349  1.8539  3.9963
18682TIP3   OH277536   2.348   5.122   5.878 -0.4265  0.1328  0.1196
18682TIP3    H177537   2.417   5.188   5.887 -2.2740  2.0745  0.3667
18682TIP3    H277538   2.372   5.054   5.941  2.0765  0.0201 -0.8851
18683TIP3   OH277539   2.913   0.470  11.701 -0.2214  0.3849 -0.1043
18683TIP3    H177540   2.818   0.469  11.688 -0.3885 -1.8891  1.0504
18683TIP3    H277541   2.937   0.379  11.714  2.6889  0.5019 -3.9538
18684TIP3   OH277542   4.811   5.768  15.146  0.1930  0.2474  0.0389
18684TIP3    H177543   4.879   5.776  15.078 -0.7018  0.0028 -0.8990
18684TIP3    H277544   4.775   5.680  15.133  0.1498  0.1317  0.9615
18685TIP3   OH277545   0.299   1.276   3.436 -0.1760 -0.5564 -0.2923
18685TIP3    H177546   0.298   1.285   3.341  1.5585  0.8695 -0.2032
18685TIP3    H277547   0.313   1.365   3.469  1.0783 -1.2828  1.2323
18686TIP3   OH277548   3.478   1.551  11.352  0.1314  0.0623 -0.0507
18686TIP3    H177549   3.391   1.514  11.338  1.0785 -2.3155  0.0573
18686TIP3    H277550   3.492   1.607  11.275 -0.7114 -1.0867 -1.0772
18687TIP3   OH277551   6.344   1.658   1.552 -0.0383  0.2306  0.5221
18687TIP3    H177552   6.437   1.662   1.530  1.1961  0.0620  5.3042
18687TIP3    H277553   6.307   1.739   1.516  1.6517 -0.2179 -2.3839
18688TIP3   OH277554   5.750   4.450  14.193  0.1414  0.0796 -0.4310
18688TIP3    H177555   5.842   4.430  14.212  0.4507  0.7998 -1.1089
18688TIP3    H277556   5.712   4.471  14.278  0.8247  0.5946 -0.2401
18689TIP3   OH277557   4.423   1.775   3.286  0.9105  0.2071  0.1431
18689TIP3    H177558   4.504   1.739   3.251 -0.1986  0.3327 -2.7729
18689TIP3    H277559   4.427   1.868   3.265 -0.3576  0.0493 -0.8889
18690TIP3   OH277560   5.393   4.380  15.408  0.8080 -0.5078 -0.5353
18690TIP3    H177561   5.367   4.441  15.339 -0.4427 -0.6534 -0.2120
18690TIP3    H277562   5.448   4.431  15.467  1.1229 -0.1412 -1.1397
18691TIP3   OH277563   1.072   0.206   2.200 -0.8626  0.0805  0.2710
18691TIP3    H177564   1.150   0.156   2.176  0.2708  1.7220  0.4340
18691TIP3    H277565   1.066   0.274   2.134 -0.5837  1.5931  1.7571
18692TIP3   OH277566   4.644   1.538   0.105 -0.0781  0.1539  0.6539
18692TIP3    H177567   4.587   1.604   0.066 -1.0514 -0.7845  0.4302
18692TIP3    H277568   4.711   1.521   0.039 -2.3855 -2.2715 -1.1780
18693TIP3   OH277569   0.141   1.246  14.842  0.2275  0.0900 -0.4236
18693TIP3    H177570   0.139   1.304  14.918  3.2798  0.3522 -0.5077
18693TIP3    H277571   0.059   1.265  14.796  0.7707  3.8265 -0.0426
18694TIP3   OH277572   2.158   5.756   5.802 -0.0913  0.7827  0.5324
18694TIP3    H177573   2.198   5.810   5.871  0.2295 -0.8538  1.6432
18694TIP3    H277574   2.064   5.768   5.814 -0.0221  1.4030  0.5071
18695TIP3   OH277575   3.316   4.461   2.681 -0.5995  0.3910 -0.2028
18695TIP3    H177576   3.380   4.405   2.725 -0.3382  1.2329  0.4994
18695TIP3    H277577   3.282   4.407   2.609  0.4959 -0.2519 -0.2450
18696TIP3   OH277578   5.544   2.866   5.198  0.0491  0.4753  0.1163
18696TIP3    H177579   5.556   2.907   5.112 -1.9341  1.6942  0.3873
18696TIP3    H277580   5.549   2.939   5.260  0.3406 -0.2492  0.9491
18697TIP3   OH277581   1.449   5.400  16.808  0.4404  0.0154 -0.0143
18697TIP3    H177582   1.439   5.398  16.904 -0.5437 -0.5178 -0.1227
18697TIP3    H277583   1.417   5.315  16.779  0.5842  0.2428 -0.8459
18698TIP3   OH277584   1.246   5.436  11.816  0.3948 -0.3449 -0.2897
18698TIP3    H177585   1.158   5.435  11.853  0.2979 -0.9008 -0.5209
18698TIP3    H277586   1.275   5.527  11.824  0.1814 -0.3611  0.6721
18699TIP3   OH277587   4.463   4.819  13.140 -0.0574  0.3310 -0.7207
18699TIP3    H177588   4.401   4.888  13.116 -0.3782 -0.3880 -2.0374
18699TIP3    H277589   4.532   4.824  13.073 -1.2806 -2.1044 -2.2748
18700TIP3   OH277590   6.650   0.951   4.460  0.2631 -0.1573 -0.1398
18700TIP3    H177591   6.727   0.959   4.404 -1.4337  1.4480 -2.3600
18700TIP3    H277592   6.645   1.035   4.506 -0.9073  0.3001 -1.0634
18701TIP3   OH277593   3.573   5.409  17.042 -0.8865 -0.6157  0.2262
18701TIP3    H177594   3.536   5.464  16.973 -1.0128 -1.5615 -0.4630
18701TIP3    H277595   3.548   5.320  17.018  2.4362 -1.3729 -0.6841
18702TIP3   OH277596   2.639   3.927  16.308  0.1243  0.8873 -0.9791
18702TIP3    H177597   2.695   3.928  16.387 -1.1590  0.2013 -0.0471
18702TIP3    H277598   2.701   3.931  16.235  1.4313 -0.3892  0.0216
18703TIP3   OH277599   0.263   3.767  12.043 -0.2246  0.1728  0.2149
18703TIP3    H177600   0.296   3.779  12.132 -2.6347 -0.6127  1.2668
18703TIP3    H277601   0.218   3.849  12.023  0.1332  0.2679 -0.2043
18704TIP3   OH277602   1.309   2.553   1.845 -0.2330  0.0650  0.3209
18704TIP3    H177603   1.224   2.587   1.817  0.2620  1.5424  0.5182
18704TIP3    H277604   1.288   2.484   1.908 -1.2895 -0.4558 -0.5806
18705TIP3   OH277605   4.608   3.511  13.826 -0.8602  0.1232 -0.2505
18705TIP3    H177606   4.632   3.427  13.786 -1.1127 -0.9517  1.7964
18705TIP3    H277607   4.636   3.503  13.917 -2.2462  1.6993  0.3312
18706TIP3   OH277608   4.337   2.502   1.975  0.0530  0.4575  0.6122
18706TIP3    H177609   4.378   2.480   2.058  0.0360  0.9655  0.7569
18706TIP3    H277610   4.245   2.518   1.996 -0.1753 -0.4320  0.3277
18707TIP3   OH277611   2.073   5.153   0.077 -0.2840 -0.4715  0.0018
18707TIP3    H177612   2.047   5.061   0.069  1.1346 -0.9277  0.4211
18707TIP3    H277613   2.041   5.194  -0.003 -1.2803 -1.2441 -0.0054
18708TIP3   OH277614   2.214   4.636   4.135  0.6069 -0.0160  0.0489
18708TIP3    H177615   2.276   4.645   4.207 -1.8953 -0.9759  2.4243
18708TIP3    H277616   2.137   4.594   4.174 -1.1614  0.1883 -3.0043
18709TIP3   OH277617   2.204   6.173  11.381  0.4055 -0.0731 -0.2152
18709TIP3    H177618   2.237   6.236  11.446  0.1325  0.2119 -0.3485
18709TIP3    H277619   2.269   6.174  11.311  0.9998 -0.8196  0.3164
18710TIP3   OH277620   4.078   2.593   6.070 -0.1243  0.2813 -0.2064
18710TIP3    H177621   4.120   2.559   6.149  0.3621  0.0735 -0.5547
18710TIP3    H277622   3.999   2.637   6.102 -0.2844 -0.3922  0.3295
18711TIP3   OH277623   2.116   2.671  12.198 -0.8439 -0.5319 -0.1291
18711TIP3    H177624   2.062   2.707  12.269  2.2395  0.2171  1.9502
18711TIP3    H277625   2.124   2.744  12.136 -3.0523 -0.9935 -1.0041
18712TIP3   OH277626   3.064   3.339  16.379 -0.7409 -0.0134  0.3273
18712TIP3    H177627   3.005   3.414  16.388  0.4023  1.0034 -0.4658
18712TIP3    H277628   3.152   3.378  16.378 -0.1856 -1.2572 -1.1460
18713TIP3   OH277629   6.018   0.197  12.699  0.5339  0.2175  0.6725
18713TIP3    H177630   6.072   0.134  12.651 -0.1450  1.3515 -1.6770
18713TIP3    H277631   5.929   0.162  12.695  0.2933  0.8750  0.1055
18714TIP3   OH277632   1.427   2.445   4.839  0.1849  0.7481  0.7345
18714TIP3    H177633   1.390   2.446   4.750 -2.3103 -0.4429  1.6892
18714TIP3    H277634   1.452   2.536   4.856  1.7798  0.7750 -1.6042
18715TIP3   OH277635   5.446   3.849  14.066  0.2799  0.5619  0.7033
18715TIP3    H177636   5.503   3.815  13.997  0.4786  0.0715  1.1093
18715TIP3    H277637   5.365   3.798  14.057  0.1698  0.7550  0.5972
18716TIP3   OH277638   4.212   0.722  15.156 -0.3791 -0.0675  0.2429
18716TIP3    H177639   4.169   0.794  15.201 -2.6345 -0.7784 -0.6850
18716TIP3    H277640   4.189   0.644  15.208  1.4041 -0.2456  0.8109
18717TIP3   OH277641   2.737   1.669  12.260  0.0983 -0.3238 -0.0306
18717TIP3    H177642   2.768   1.726  12.189  0.5202 -0.1400  0.3006
18717TIP3    H277643   2.750   1.720  12.340 -1.6145 -0.0173  0.0713
18718TIP3   OH277644   0.193   6.631  15.140  0.1534 -0.7676 -0.1465
18718TIP3    H177645   0.172   6.609  15.230 -1.8511 -0.6108 -0.5534
18718TIP3    H277646   0.192   6.547  15.094 -0.7274 -0.6281 -0.3864
18719TIP3   OH277647   1.717   1.750  15.552  0.1369 -0.5671  0.2240
18719TIP3    H177648   1.702   1.691  15.478 -0.3435 -1.8641  1.3121
18719TIP3    H277649   1.632   1.753  15.597 -0.0047  1.4504 -0.1533
18720TIP3   OH277650   2.037   6.566  10.691 -0.7463 -0.0365  0.2824
18720TIP3    H177651   1.958   6.512  10.686 -1.8972  1.7062 -1.0930
18720TIP3    H277652   2.016   6.643  10.639  2.3426 -0.1177 -1.2196
18721TIP3   OH277653   3.336   3.717   5.330  0.3629  0.0339  0.0929
18721TIP3    H177654   3.337   3.742   5.422 -1.3485 -1.0802  0.4264
18721TIP3    H277655   3.317   3.799   5.284 -1.8272  0.0630  0.9592
18722TIP3   OH277656   0.227   6.511  13.992 -0.2534  0.0213  0.0386
18722TIP3    H177657   0.146   6.552  13.962 -1.3253 -2.5524 -0.7310
18722TIP3    H277658   0.225   6.521  14.087 -2.5446 -1.8056  0.2395
18723TIP3   OH277659   3.784   3.358  15.672 -0.1076 -0.2005  0.0162
18723TIP3    H177660   3.876   3.359  15.698 -0.5696 -1.0199  1.7628
18723TIP3    H277661   3.784   3.388  15.582  1.7681  0.8499  0.3485
18724TIP3   OH277662   5.011   5.323  16.225  0.3481 -0.0907  0.4360
18724TIP3    H177663   4.996   5.390  16.291 -0.4447  1.5043 -1.3009
18724TIP3    H277664   4.924   5.304  16.189  0.9801  0.5676 -1.5304
18725TIP3   OH277665   2.295   6.628  15.869  0.2491 -0.4257 -0.5342
18725TIP3    H177666   2.358   6.697  15.850  0.8603 -1.0666 -0.8698
18725TIP3    H277667   2.210   6.673  15.873  0.8471  0.6063  0.9720
18726TIP3   OH277668   5.032   2.058   5.362  0.7249  0.2719  0.4148
18726TIP3    H177669   5.074   1.976   5.334  1.9794  1.0142  0.0928
18726TIP3    H277670   4.938   2.038   5.363  1.0810 -1.4156  1.1397
18727TIP3   OH277671   6.660   6.420   4.292 -0.0537 -0.7295  0.3024
18727TIP3    H177672   6.706   6.500   4.268 -0.8455 -0.5441 -0.6601
18727TIP3    H277673   6.682   6.358   4.222 -0.6337 -0.8768  0.2446
18728TIP3   OH277674   2.539   5.591   3.675  0.3440  0.3932  0.6354
18728TIP3    H177675   2.504   5.581   3.587 -0.6293  1.0854  0.9432
18728TIP3    H277676   2.578   5.678   3.675  0.5675  0.2939  0.8137
18729TIP3   OH277677   2.116   1.531   3.977 -0.0781  0.7691  0.2386
18729TIP3    H177678   2.043   1.525   3.915  0.7965  0.8961 -0.8188
18729TIP3    H277679   2.104   1.457   4.037  1.1028 -1.5239 -2.2820
18730TIP3   OH277680   5.895   0.959  17.119  0.0493  0.4999  0.7242
18730TIP3    H177681   5.861   1.021  17.054  0.0470 -0.2584 -0.0200
18730TIP3    H277682   5.987   0.983  17.129 -0.3052  1.5491  1.5432
18731TIP3   OH277683   4.228   1.250   4.935  0.3983 -0.3606 -0.4727
18731TIP3    H177684   4.235   1.305   5.013  1.3673 -0.3382 -0.5715
18731TIP3    H277685   4.214   1.311   4.863 -1.1072 -0.4198 -0.2458
18732TIP3   OH277686   6.533   6.720   2.881 -0.2973  0.2193  0.4555
18732TIP3    H177687   6.529   6.806   2.840 -0.7050  0.6697  1.4274
18732TIP3    H277688   6.469   6.668   2.833 -1.4640  1.0127  1.1199
18733TIP3   OH277689   0.002   2.560   4.267  0.0252 -0.2310 -0.1756
18733TIP3    H177690   0.073   2.530   4.324  1.2110  0.3307 -1.3216
18733TIP3    H277691  -0.046   2.481   4.245  2.0227 -1.0967 -1.6723
18734TIP3   OH277692   6.726   0.242  16.491  0.0505 -0.2866  0.2641
18734TIP3    H177693   6.674   0.287  16.425 -0.1085  0.8682  1.1596
18734TIP3    H277694   6.817   0.252  16.461  0.2297  2.5754  1.5359
18735TIP3   OH277695   4.969   1.035  14.668  0.1109 -0.1292  0.2463
18735TIP3    H177696   4.939   1.036  14.577 -2.5432  2.1543  1.1019
18735TIP3    H277697   5.002   1.123  14.683  0.3542 -0.4428  1.5790
18736TIP3   OH277698   1.953   4.967   2.419  0.6914  0.7440 -0.5542
18736TIP3    H177699   2.032   4.916   2.435 -0.8205 -1.3349  0.4260
18736TIP3    H277700   1.932   4.951   2.327  0.0984 -0.5895 -0.1905
18737TIP3   OH277701   5.119   0.276   1.061  0.2275 -0.8513  0.0893
18737TIP3    H177702   5.069   0.202   1.094  0.1860 -0.4472  0.9320
18737TIP3    H277703   5.052   0.334   1.023  0.1197 -0.6350  0.6006
18738TIP3   OH277704   1.667   0.787   2.080  0.3489  0.5854  0.1387
18738TIP3    H177705   1.727   0.809   2.152  1.6194 -0.3159 -0.6177
18738TIP3    H277706   1.673   0.692   2.071  1.8963  0.8772 -2.5597
18739TIP3   OH277707   3.906   4.801  15.454 -0.4313  0.0042 -0.3156
18739TIP3    H177708   3.820   4.835  15.481 -0.1793  0.1617  0.2963
18739TIP3    H277709   3.950   4.876  15.414 -1.4321 -0.6425 -2.6900
18740TIP3   OH277710   3.737   0.913   0.908  0.3286 -0.0063  0.2543
18740TIP3    H177711   3.739   1.008   0.892  1.2530  0.0683  0.7502
18740TIP3    H277712   3.818   0.881   0.869 -1.3374 -1.0420 -2.4735
18741TIP3   OH277713   4.992   2.069  12.917  0.5668 -0.6168  0.4957
18741TIP3    H177714   5.027   1.991  12.874  1.2908  0.8845 -1.7154
18741TIP3    H277715   4.901   2.074  12.886  0.5672 -0.4961  0.5163
18742TIP3   OH277716   0.802   4.304  16.542 -0.6913  0.3670 -0.8286
18742TIP3    H177717   0.755   4.235  16.496  2.0486 -1.4677 -1.0056
18742TIP3    H277718   0.771   4.385  16.502 -1.9976 -0.9203 -2.4876
18743TIP3   OH277719   3.357   1.924   6.021  0.0501  0.2260 -0.1727
18743TIP3    H177720   3.404   1.875   5.954  0.3611 -0.1738  0.3373
18743TIP3    H277721   3.404   2.008   6.026 -0.7646  0.7773 -1.3737
18744TIP3   OH277722   3.741   1.248  12.149 -0.2864  0.3350 -0.2416
18744TIP3    H177723   3.701   1.224  12.065 -0.9107  0.1711  0.0997
18744TIP3    H277724   3.684   1.317  12.183  1.1494  1.8942 -0.9252
18745TIP3   OH277725   5.337   6.302  16.648 -0.6315 -0.0778  0.2817
18745TIP3    H177726   5.410   6.259  16.602 -1.9104 -1.0106 -0.9416
18745TIP3    H277727   5.315   6.377  16.593 -2.2147 -1.2389 -0.7265
18746TIP3   OH277728   6.787   1.074   2.469 -0.5612 -0.2037  0.2646
18746TIP3    H177729   6.782   1.088   2.375 -0.1066 -1.1075  0.1129
18746TIP3    H277730   6.769   1.161   2.506  0.5827  0.4452 -0.6669
18747TIP3   OH277731   6.352   5.610  15.937  0.1039  0.3494  0.8237
18747TIP3    H177732   6.443   5.629  15.958  0.5427 -1.7988  1.0149
18747TIP3    H277733   6.350   5.597  15.842 -0.0564  0.7272  0.7760
18748TIP3   OH277734   5.992   0.487   3.362 -0.1052 -0.5894  0.0597
18748TIP3    H177735   5.956   0.566   3.321  0.7714  0.3613  1.0675
18748TIP3    H277736   5.927   0.419   3.346 -0.0139 -0.1206 -2.4496
18749TIP3   OH277737   4.923   2.847  12.467 -0.5315 -0.1411 -0.4986
18749TIP3    H177738   4.941   2.884  12.554  1.1302  0.8555 -1.2422
18749TIP3    H277739   4.881   2.763  12.485  2.1737 -1.1538  1.3049
18750TIP3   OH277740   2.882   2.479  12.895  0.7108  0.4376 -0.7412
18750TIP3    H177741   2.802   2.433  12.920  0.8156 -0.9193 -2.7241
18750TIP3    H277742   2.938   2.473  12.973 -1.8850  3.3866  1.4694
18751TIP3   OH277743   6.818   3.994   2.639 -0.6961 -0.2777  0.7367
18751TIP3    H177744   6.841   4.081   2.670  2.0227 -0.5474 -0.4291
18751TIP3    H277745   6.776   3.953   2.715  0.8791  0.9574  2.3409
18752TIP3   OH277746   5.922   5.521  12.451 -0.3334  0.2004 -0.0158
18752TIP3    H177747   5.986   5.499  12.518 -0.1768 -1.8419 -0.7921
18752TIP3    H277748   5.955   5.601  12.410  0.8218  0.0873  0.6959
18753TIP3   OH277749   0.881   0.856  16.934  0.2341 -0.0220  0.4791
18753TIP3    H177750   0.848   0.939  16.900  0.5168  0.2556  0.8696
18753TIP3    H277751   0.976   0.868  16.936  0.2858 -0.4214  0.3677
18754TIP3   OH277752   6.132   0.720   2.884 -0.1250 -0.3320  0.5981
18754TIP3    H177753   6.172   0.759   2.806  0.5955 -0.5548  0.8533
18754TIP3    H277754   6.049   0.766   2.893  0.0069  0.0405 -0.0210
18755TIP3   OH277755   4.821   0.309   3.053  0.1922 -0.4719  0.2715
18755TIP3    H177756   4.769   0.329   2.975  3.4390  3.6021 -1.0434
18755TIP3    H277757   4.769   0.343   3.126  0.3808  2.4347 -0.8903
18756TIP3   OH277758   6.719   0.930   6.175  0.0022  0.4371 -0.2764
18756TIP3    H177759   6.623   0.930   6.169 -0.1529 -2.7324  0.9947
18756TIP3    H277760   6.738   0.984   6.252 -0.9499 -1.0560  1.0346
18757TIP3   OH277761   4.225   0.677   3.664  0.3220 -0.3223 -0.0229
18757TIP3    H177762   4.198   0.586   3.652 -0.6858  0.0647 -0.7959
18757TIP3    H277763   4.171   0.709   3.737  0.1516 -0.1418 -0.2256
18758TIP3   OH277764   2.226   5.833  14.382 -0.5600  0.1739  0.1579
18758TIP3    H177765   2.130   5.835  14.375 -0.5580 -1.1933 -0.3655
18758TIP3    H277766   2.256   5.871  14.299 -0.6536 -2.1833 -1.0108
18759TIP3   OH277767   0.017   4.171  12.366 -0.4785 -0.3264  0.4638
18759TIP3    H177768   0.096   4.186  12.315 -0.2784 -1.5815  0.3897
18759TIP3    H277769   0.026   4.229  12.442  0.2218 -0.0278  0.1575
18760TIP3   OH277770   3.850   6.199  15.649  0.4177 -0.3353 -0.1712
18760TIP3    H177771   3.857   6.195  15.553 -1.8259 -1.5253 -0.3116
18760TIP3    H277772   3.853   6.292  15.669  0.3491 -0.0491 -1.4400
18761TIP3   OH277773   1.164   1.302  13.025  0.2495  0.1627 -0.5171
18761TIP3    H177774   1.107   1.352  13.084 -0.2951 -0.8895 -0.1283
18761TIP3    H277775   1.243   1.355  13.017  0.7127 -0.0842  1.9086
18762TIP3   OH277776   3.129   2.741   4.567  0.4629  0.0332 -0.3238
18762TIP3    H177777   3.047   2.784   4.541 -0.0477 -1.4238 -1.1961
18762TIP3    H277778   3.197   2.793   4.525 -0.0190  1.1561  0.2626
18763TIP3   OH277779   1.478   5.986  12.188  0.0561 -0.1917  0.2316
18763TIP3    H177780   1.518   6.070  12.164 -1.1786  0.1498 -0.6546
18763TIP3    H277781   1.384   6.001  12.182 -0.1796 -1.7504 -0.2894
18764TIP3   OH277782   6.306   6.804   2.618  0.2365 -0.3370 -0.2681
18764TIP3    H177783   6.317   6.718   2.658 -0.1047 -0.1392  0.2517
18764TIP3    H277784   6.249   6.851   2.678 -0.2699 -0.0338 -0.9875
18765TIP3   OH277785   3.305   3.307  12.599 -0.5266 -0.5648  0.3291
18765TIP3    H177786   3.359   3.378  12.564  2.1690 -1.8859  1.6866
18765TIP3    H277787   3.291   3.249  12.524 -1.3535  0.5131 -0.3799
18766TIP3   OH277788   6.265   6.628   1.354 -0.3648  0.3992 -0.5404
18766TIP3    H177789   6.228   6.702   1.306 -1.0102 -0.7409 -1.8127
18766TIP3    H277790   6.218   6.628   1.437  0.2166  1.9032 -0.1829
18767TIP3   OH277791   0.737   3.585  11.504  0.0886  0.2362 -0.3912
18767TIP3    H177792   0.654   3.611  11.544  0.2904  0.7892 -0.3269
18767TIP3    H277793   0.786   3.667  11.495  1.6258 -0.3763  1.8532
18768TIP3   OH277794   3.689   0.504  17.026  0.0287 -0.4069  0.2623
18768TIP3    H177795   3.608   0.537  16.986 -0.2725  1.5985  2.4558
18768TIP3    H277796   3.752   0.505  16.954 -2.0727 -2.9332 -1.7526
18769TIP3   OH277797   4.940   2.138  12.517 -0.1000  0.2790 -0.6095
18769TIP3    H177798   4.894   2.071  12.568  0.4156 -0.2455 -0.8392
18769TIP3    H277799   5.015   2.093  12.479 -1.2729  0.3018 -3.0205
18770TIP3   OH277800   2.178   0.224  14.180 -0.1165 -0.4974  0.0318
18770TIP3    H177801   2.261   0.271  14.178 -0.3209 -0.1391 -0.1508
18770TIP3    H277802   2.201   0.136  14.208 -0.1119  0.4711  3.2180
18771TIP3   OH277803   6.064   0.752   0.108  0.3459 -0.0682  0.2682
18771TIP3    H177804   6.062   0.702   0.027  1.7138 -0.6469  0.5768
18771TIP3    H277805   6.153   0.741   0.141  0.8928  3.1953 -0.0165
18772TIP3   OH277806   6.301   6.115   1.345 -0.1816  0.5973 -0.0380
18772TIP3    H177807   6.390   6.151   1.343 -0.3205  0.9410  0.0450
18772TIP3    H277808   6.312   6.027   1.383  0.1464  0.5697 -0.1935
18773TIP3   OH277809   5.347   4.466   6.530  0.2587  0.0773 -0.1908
18773TIP3    H177810   5.380   4.492   6.445 -0.2348 -0.7212 -0.6353
18773TIP3    H277811   5.316   4.376   6.518 -0.8527  0.3461  0.5314
18774TIP3   OH277812   0.881   0.159   4.669 -0.3669 -0.5994  0.2737
18774TIP3    H177813   0.900   0.188   4.580  1.4749 -0.3589  0.7138
18774TIP3    H277814   0.959   0.184   4.719 -1.4602 -0.5585  1.9908
18775TIP3   OH277815   4.891   2.857   2.315 -0.3060 -0.4678 -0.2754
18775TIP3    H177816   4.870   2.927   2.254 -1.3195 -0.5830 -0.0819
18775TIP3    H277817   4.805   2.820   2.339  0.1259 -0.9256  0.6096
18776TIP3   OH277818   3.986   6.202   2.300  0.3707  0.5585 -0.4361
18776TIP3    H177819   3.947   6.284   2.331  0.3466 -0.2190  1.6766
18776TIP3    H277820   4.078   6.208   2.325 -0.4220 -1.7448  3.5244
18777TIP3   OH277821   1.465   2.396  15.517  0.6478 -0.2841 -0.8276
18777TIP3    H177822   1.560   2.393  15.500  1.0930 -0.5279  1.5232
18777TIP3    H277823   1.441   2.488  15.501  1.1339 -0.3541 -2.0637
18778TIP3   OH277824   1.303   2.969  14.777 -0.3500 -0.2242  0.1877
18778TIP3    H177825   1.334   2.879  14.785  0.3264 -0.0115  0.0312
18778TIP3    H277826   1.329   2.995  14.688  0.3333  0.4455  0.5790
18779TIP3   OH277827   0.189   2.232  11.750 -0.3721 -0.1381  0.0692
18779TIP3    H177828   0.154   2.310  11.707 -0.6102 -0.2819  0.0012
18779TIP3    H277829   0.282   2.231  11.725 -0.3070  0.2714  0.2921
18780TIP3   OH277830   6.505   4.491  11.699 -0.1405  0.0328  0.4835
18780TIP3    H177831   6.507   4.583  11.672 -2.4464  0.3741  1.3737
18780TIP3    H277832   6.507   4.494  11.795  0.4017 -0.8687  0.5061
18781TIP3   OH277833   1.254   2.251   1.684  0.6004 -0.5530 -0.3197
18781TIP3    H177834   1.281   2.279   1.597  0.7430  0.5208  0.0653
18781TIP3    H277835   1.333   2.212   1.722  1.1501  0.9723  0.1412
18782TIP3   OH277836   4.010   4.438  11.954  0.3232 -0.2655  0.2293
18782TIP3    H177837   3.936   4.395  11.912 -0.3095  2.1028 -1.1509
18782TIP3    H277838   4.048   4.370  12.010 -1.6484 -2.1020 -0.5790
18783TIP3   OH277839   2.797   5.884  15.519 -0.6530  0.2475  0.0034
18783TIP3    H177840   2.756   5.832  15.588  0.2312 -1.6733 -0.8752
18783TIP3    H277841   2.778   5.836  15.438 -0.4609  1.6951 -0.9123
18784TIP3   OH277842   2.278   3.915   5.517 -0.6725 -0.2036  0.7981
18784TIP3    H177843   2.201   3.865   5.490 -1.0952 -0.6944  2.7749
18784TIP3    H277844   2.258   4.005   5.491 -0.6537 -0.7643 -1.2513
18785TIP3   OH277845   5.664   3.846   5.530 -0.3970  0.6481  0.2411
18785TIP3    H177846   5.734   3.903   5.560  0.0540  1.5088 -2.3529
18785TIP3    H277847   5.586   3.902   5.528 -0.4129  0.6108 -0.2303
18786TIP3   OH277848   6.261   1.735   5.376  0.1356  0.3302  0.3420
18786TIP3    H177849   6.283   1.805   5.438 -1.4117 -0.4277  1.7928
18786TIP3    H277850   6.257   1.656   5.431 -2.2451 -0.1953 -0.5470
18787TIP3   OH277851   1.212   5.680   1.573  0.1310  0.1649  0.6586
18787TIP3    H177852   1.183   5.658   1.485 -0.4740  0.9254  0.6678
18787TIP3    H277853   1.197   5.600   1.624 -1.5600  0.4135  0.5714
18788TIP3   OH277854   6.698   0.006   5.163 -0.3570  0.2928  0.2947
18788TIP3    H177855   6.736  -0.073   5.125 -0.9213  0.2344 -0.1626
18788TIP3    H277856   6.655  -0.024   5.243 -2.4152 -0.2455 -0.9858
18789TIP3   OH277857   6.161   4.255  15.401 -0.8531 -0.0406  0.2205
18789TIP3    H177858   6.132   4.244  15.310 -0.0233  2.6487 -0.4328
18789TIP3    H277859   6.251   4.222  15.402 -0.7702  0.1781 -0.0010
18790TIP3   OH277860   1.800   4.522  15.072 -0.6739 -0.1151 -0.4326
18790TIP3    H177861   1.891   4.506  15.045 -0.0443  1.3235  0.7593
18790TIP3    H277862   1.761   4.570  14.999 -0.9346 -2.0356 -1.5909
18791TIP3   OH277863   3.379   1.234  15.396  0.1082  0.3966 -0.4718
18791TIP3    H177864   3.381   1.283  15.313  1.4395  1.2509  0.0584
18791TIP3    H277865   3.322   1.159  15.377 -0.0531  0.8731 -1.9988
18792TIP3   OH277866   5.033   2.672   5.901  0.0281 -0.1338 -0.5637
18792TIP3    H177867   5.018   2.741   5.836 -1.8371  0.8387  0.8709
18792TIP3    H277868   5.001   2.709   5.983  3.5366 -0.8428  1.2151
18793TIP3   OH277869   0.615   2.064  11.098  0.1720 -0.1940 -0.5971
18793TIP3    H177870   0.659   1.999  11.153 -1.2400  1.1442  2.2051
18793TIP3    H277871   0.538   2.019  11.065  1.6607 -1.3898 -2.5472
18794TIP3   OH277872   3.616   1.971  14.535 -0.2735 -0.5724 -0.1500
18794TIP3    H177873   3.646   2.062  14.539 -0.2572 -0.6148  0.7737
18794TIP3    H277874   3.521   1.977  14.526 -0.5612 -0.4761  2.7139
18795TIP3   OH277875   2.270   1.994   2.931 -0.1765 -0.0251 -0.2726
18795TIP3    H177876   2.282   2.021   2.840 -1.0913 -0.6386 -0.5771
18795TIP3    H277877   2.196   2.046   2.963  0.3222  0.4007  0.2171
18796TIP3   OH277878   1.187   5.169  12.619  0.1491 -0.1075 -0.1745
18796TIP3    H177879   1.195   5.106  12.690 -0.2936  0.8176  0.7041
18796TIP3    H277880   1.265   5.224  12.627  0.0881  0.0100 -0.3920
18797TIP3   OH277881   4.348   3.117   2.491 -0.2683  0.6695  0.0214
18797TIP3    H177882   4.260   3.120   2.528 -1.2295 -0.6096 -2.0542
18797TIP3    H277883   4.392   3.048   2.539  0.0264  2.1523  1.9196
18798TIP3   OH277884   5.182   1.902   1.535 -0.0081  0.1277  0.3382
18798TIP3    H177885   5.244   1.957   1.584  1.6407  0.3328 -1.8944
18798TIP3    H277886   5.132   1.964   1.482 -1.8147 -0.0850  1.7756
18799TIP3   OH277887   1.665   3.119   3.608 -0.0111 -0.5141  0.1080
18799TIP3    H177888   1.592   3.074   3.564 -0.4460  1.1340 -0.8954
18799TIP3    H277889   1.740   3.105   3.550 -0.4137  1.0075 -0.8277
18800TIP3   OH277890   4.954   2.241   5.169 -0.0275  0.0034  0.1242
18800TIP3    H177891   4.965   2.330   5.202 -1.6479  0.0319  0.5955
18800TIP3    H277892   5.002   2.186   5.232 -2.4731  0.1290  2.1900
18801TIP3   OH277893   0.409   3.315  13.248 -0.7371  0.3213 -0.0611
18801TIP3    H177894   0.490   3.289  13.293 -0.0414  1.4504 -0.6392
18801TIP3    H277895   0.380   3.236  13.203 -0.5733 -0.3935  1.0755
18802TIP3   OH277896   0.413   4.287   2.889  0.0180 -0.5759  0.5380
18802TIP3    H177897   0.399   4.262   2.797 -2.2042 -0.8360  0.9225
18802TIP3    H277898   0.340   4.247   2.936 -0.1353  1.4273  2.0767
18803TIP3   OH277899   4.102   4.350  11.716 -0.3544  0.2081  0.4698
18803TIP3    H177900   4.043   4.355  11.640 -0.4847  0.3196  0.5793
18803TIP3    H277901   4.072   4.420  11.774 -0.1174  0.2649  0.5266
18804TIP3   OH277902   0.401   1.967   3.643  0.2911  0.0993  0.4264
18804TIP3    H177903   0.449   1.906   3.699  0.0882  0.9427  1.5413
18804TIP3    H277904   0.469   2.016   3.597  0.4597 -0.5394 -0.0074
18805TIP3   OH277905   6.299   2.162  12.733  0.0315 -0.2873 -0.2823
18805TIP3    H177906   6.318   2.238  12.788  1.6137 -0.9149  0.0647
18805TIP3    H277907   6.311   2.087  12.791  0.0715 -0.8734 -1.0392
18806TIP3   OH277908   5.655   1.571   4.464 -0.0792  0.2815 -0.0999
18806TIP3    H177909   5.640   1.662   4.438  1.1311  0.0598 -1.6163
18806TIP3    H277910   5.675   1.526   4.382  1.6864 -0.8790  0.9471
18807TIP3   OH277911   4.946   5.805  13.178 -0.6339  0.3158  0.3111
18807TIP3    H177912   4.904   5.805  13.091 -1.5596 -1.2179  0.7479
18807TIP3    H277913   4.968   5.897  13.193 -0.5483  0.6133 -1.5105
18808TIP3   OH277914   5.215   3.262   2.001 -0.2648 -0.5813  0.2191
18808TIP3    H177915   5.259   3.330   2.051 -0.3969  0.0713 -0.5233
18808TIP3    H277916   5.138   3.306   1.963 -0.8364 -1.3646  0.4431
18809TIP3   OH277917   2.277   6.617  15.570 -0.0795  0.5027 -0.1041
18809TIP3    H177918   2.281   6.585  15.660  0.6681  3.2902  0.8848
18809TIP3    H277919   2.201   6.675  15.568 -0.6294 -0.2312 -1.5175
18810TIP3   OH277920   6.089   3.414   1.999 -0.0248 -0.0208  0.2125
18810TIP3    H177921   6.151   3.456   1.939 -0.9894  0.4564 -0.4627
18810TIP3    H277922   6.094   3.467   2.079  0.4377  0.0075  0.1699
18811TIP3   OH277923   3.486   2.431  12.088  0.0250 -0.3639  0.1897
18811TIP3    H177924   3.530   2.361  12.039  1.7341  0.7926  0.0071
18811TIP3    H277925   3.556   2.471  12.139 -1.6778 -1.3521  3.3928
18812TIP3   OH277926   4.064   1.684  12.262 -0.2544 -0.3492 -0.0130
18812TIP3    H177927   4.049   1.595  12.232  0.6821 -0.3385 -0.5541
18812TIP3    H277928   4.081   1.734  12.182  0.7412 -0.0060  0.3947
18813TIP3   OH277929   5.130   4.755  16.246 -0.1337 -0.1319  0.1444
18813TIP3    H177930   5.128   4.846  16.214 -1.2828 -0.3082 -0.2904
18813TIP3    H277931   5.065   4.710  16.193 -1.1709 -0.7117  1.8885
18814TIP3   OH277932   2.461   6.406  16.858 -0.1970 -0.2475 -0.0099
18814TIP3    H177933   2.512   6.479  16.894  2.5008 -2.1860  0.2703
18814TIP3    H277934   2.517   6.370  16.789 -1.4378 -2.1625 -0.0479
18815TIP3   OH277935   2.330   1.162   5.611 -0.1875 -0.1641 -0.0125
18815TIP3    H177936   2.374   1.078   5.625 -0.0866 -0.2339 -0.7413
18815TIP3    H277937   2.263   1.144   5.545 -2.8369 -0.5831  2.6234
18816TIP3   OH277938   3.067   2.689  14.878 -0.0590  0.1869 -0.7077
18816TIP3    H177939   3.145   2.671  14.826  0.8419  0.1832  0.6212
18816TIP3    H277940   3.064   2.784  14.885 -2.2172  0.4020 -3.8003
18817TIP3   OH277941   2.666   2.192   0.159  0.3650  0.6137  0.1511
18817TIP3    H177942   2.629   2.220   0.243 -2.6661 -1.0082 -0.5565
18817TIP3    H277943   2.655   2.267   0.102  0.5383  1.0345  0.6704
18818TIP3   OH277944   3.935   1.996  16.196 -0.3453 -0.6483 -0.1080
18818TIP3    H177945   4.015   1.957  16.232  0.4660  0.6010 -0.5386
18818TIP3    H277946   3.864   1.943  16.232  0.6200 -1.1285  1.1024
18819TIP3   OH277947   5.868   0.348  12.389  0.4787  0.3753  0.2248
18819TIP3    H177948   5.880   0.433  12.346  0.2421 -0.5556 -1.7245
18819TIP3    H277949   5.954   0.307  12.385  0.4271  0.2341  0.5573
18820TIP3   OH277950   4.873   6.177   0.611  0.2075  0.1217  0.3839
18820TIP3    H177951   4.798   6.118   0.621 -0.3578  0.9461  1.0127
18820TIP3    H277952   4.836   6.265   0.620  0.8849  0.6225 -1.4962
18821TIP3   OH277953   3.521   0.250  13.787  0.3878  0.2394  0.3443
18821TIP3    H177954   3.512   0.202  13.869 -0.6748  0.5740  0.4241
18821TIP3    H277955   3.464   0.326  13.797  0.9372  0.7499 -0.3599
18822TIP3   OH277956   5.069   6.592   3.177 -0.5600  0.3261  0.0465
18822TIP3    H177957   5.115   6.676   3.182 -0.6589  0.4209 -0.5940
18822TIP3    H277958   5.136   6.526   3.194 -0.1691  0.4574 -0.9947
18823TIP3   OH277959   4.900   6.787  14.568  0.2321  0.0164 -0.3017
18823TIP3    H177960   4.928   6.718  14.627  0.0466 -0.8550 -1.2138
18823TIP3    H277961   4.957   6.861  14.589 -0.6855  0.1519  1.8237
18824TIP3   OH277962   0.936   2.482   5.103  0.3122  0.3366 -0.2043
18824TIP3    H177963   1.025   2.472   5.138  0.5907  2.2797 -0.2894
18824TIP3    H277964   0.891   2.403   5.130  2.1622 -0.8209 -0.4045
18825TIP3   OH277965   5.350   3.412  13.042  0.0710 -0.1549  0.6573
18825TIP3    H177966   5.281   3.473  13.016  1.1539  2.1648  2.9666
18825TIP3    H277967   5.431   3.461  13.029  1.1584 -2.0954 -0.0289
18826TIP3   OH277968   1.234   1.406  12.707  0.3670 -0.7565 -0.0141
18826TIP3    H177969   1.152   1.407  12.757  0.0694 -0.0431 -0.5090
18826TIP3    H277970   1.219   1.342  12.637 -0.1815  0.2192 -0.7898
18827TIP3   OH277971   0.683   5.102  16.031  0.1178  0.3093 -0.3337
18827TIP3    H177972   0.657   5.013  16.005  1.4590 -0.7128  1.6998
18827TIP3    H277973   0.601   5.151  16.031 -0.8313 -1.2159 -0.3271
18828TIP3   OH277974   5.060   4.020   6.403  0.6294  0.6075 -0.0723
18828TIP3    H177975   5.096   4.108   6.413 -0.0276  0.8354  0.3792
18828TIP3    H277976   4.965   4.034   6.403  0.5451  0.1030 -2.0186
18829TIP3   OH277977   1.821   5.566  11.562 -0.3748  0.2093 -0.7020
18829TIP3    H177978   1.820   5.548  11.468 -1.5127  1.8365 -1.0245
18829TIP3    H277979   1.909   5.598  11.580 -0.6717  1.5128 -1.5468
18830TIP3   OH277980   2.649   1.277   1.542 -0.3633  0.3554  0.4409
18830TIP3    H177981   2.722   1.220   1.517 -0.7510 -0.3850  0.9923
18830TIP3    H277982   2.691   1.358   1.569  0.3469 -0.4880  1.9576
18831TIP3   OH277983   0.687   4.250   4.605 -0.1515  0.0740  0.0764
18831TIP3    H177984   0.702   4.179   4.667 -2.9045 -0.6748 -0.0391
18831TIP3    H277985   0.605   4.226   4.562  1.0143  1.2440 -2.9189
18832TIP3   OH277986   3.293   2.845   4.360 -0.4084 -0.0926  0.3907
18832TIP3    H177987   3.360   2.823   4.295 -0.9010  1.2709 -0.6059
18832TIP3    H277988   3.220   2.879   4.308 -0.6169  1.4908  1.7061
18833TIP3   OH277989   5.297   6.774   0.759 -0.9315 -0.2399 -0.0415
18833TIP3    H177990   5.239   6.828   0.812  0.6586  1.2064  0.2845
18833TIP3    H277991   5.365   6.834   0.729 -0.0955 -1.7019 -1.1507
18834TIP3   OH277992   2.369   2.784  12.215  0.1616  0.1769  0.0440
18834TIP3    H177993   2.429   2.713  12.192 -0.9386 -0.7367 -0.0951
18834TIP3    H277994   2.295   2.739  12.257 -1.1541  1.1134 -1.2369
18835TIP3   OH277995   4.620   4.165   3.215 -0.5254 -0.2608 -0.2332
18835TIP3    H177996   4.658   4.143   3.130 -1.3130 -0.4745 -0.5283
18835TIP3    H277997   4.619   4.082   3.263  0.0798 -0.1090  0.0582
18836TIP3   OH277998   5.113   0.296   5.119  0.0007  0.2186  0.8282
18836TIP3    H177999   5.129   0.261   5.031  0.1919 -0.6210  1.1930
18836TIP3    H278000   5.033   0.252   5.148  0.7870 -0.6741  1.6800
18837TIP3   OH278001   6.738   0.318   0.515  0.0885 -0.1921  0.4452
18837TIP3    H178002   6.802   0.250   0.494  0.0064 -0.1440  0.0140
18837TIP3    H278003   6.776   0.366   0.589  0.5890 -0.1150  0.1422
18838TIP3   OH278004   5.810   5.754  13.661  0.0646 -0.1947  0.0302
18838TIP3    H178005   5.856   5.697  13.599 -1.0938  1.3148 -2.2927
18838TIP3    H278006   5.814   5.841  13.622 -2.0210  0.5351  1.3223
18839TIP3   OH278007   3.854   1.501  11.061 -0.1491  0.4407 -0.0639
18839TIP3    H178008   3.855   1.532  11.152 -2.9751  1.9082 -0.4707
18839TIP3    H278009   3.762   1.480  11.044  0.1096  1.4498 -2.9908
18840TIP3   OH278010   3.672   0.160  16.777 -0.2909  0.6515  0.6865
18840TIP3    H178011   3.589   0.201  16.797 -0.6585  0.7543 -0.9874
18840TIP3    H278012   3.693   0.189  16.688  0.5285 -0.9772  0.3253
18841TIP3   OH278013   0.068   6.263   0.899  0.1235 -0.1384  0.0639
18841TIP3    H178014   0.031   6.316   0.828 -0.4869 -0.7711 -0.0964
18841TIP3    H278015   0.014   6.285   0.975  0.6082  0.3396  0.2723
18842TIP3   OH278016   1.892   0.384  16.106 -0.1409 -0.2964 -0.6477
18842TIP3    H178017   1.801   0.411  16.098 -0.2248 -0.2760  0.3292
18842TIP3    H278018   1.942   0.466  16.096 -0.2205 -0.3245 -1.2868
18843TIP3   OH278019   1.919   5.698  13.878 -0.1959 -0.3939 -0.0130
18843TIP3    H178020   2.001   5.652  13.896 -0.2114 -0.2313  0.4894
18843TIP3    H278021   1.922   5.718  13.785  1.2119  1.3285  0.3801
18844TIP3   OH278022   4.350   4.876   0.721  0.6141  0.0399  0.4789
18844TIP3    H178023   4.271   4.837   0.759  0.8596  0.4008  1.3698
18844TIP3    H278024   4.317   4.947   0.666  0.2493 -0.5644 -0.0960
18845TIP3   OH278025   0.741   6.403  10.996  0.7464  0.1590 -0.1527
18845TIP3    H178026   0.731   6.381  10.904  0.4810 -0.3739  0.0035
18845TIP3    H278027   0.834   6.427  11.004  1.4274 -2.3156 -0.0455
18846TIP3   OH278028   3.677   4.501   0.073 -0.0176 -0.9736 -0.3269
18846TIP3    H178029   3.654   4.464   0.159 -0.5455 -0.6638 -0.3314
18846TIP3    H278030   3.678   4.426   0.014  0.9813 -1.2840  0.0700
18847TIP3   OH278031   2.786   0.464   0.132 -0.0481  0.0298 -0.2646
18847TIP3    H178032   2.870   0.476   0.176  0.9059 -0.9112 -1.7853
18847TIP3    H278033   2.799   0.500   0.044 -0.8602 -1.2102 -0.9095
18848TIP3   OH278034   6.214   1.592   6.316 -0.2420  0.2483 -0.1092
18848TIP3    H178035   6.252   1.645   6.386 -0.7699  1.8541 -1.0214
18848TIP3    H278036   6.182   1.513   6.361  2.1390 -0.1246  0.9838
18849TIP3   OH278037   0.324   1.808   6.101  0.3732 -0.3690 -0.0410
18849TIP3    H178038   0.304   1.895   6.136  1.5675 -1.1402  2.6797
18849TIP3    H278039   0.239   1.772   6.077 -0.1753  1.3767 -0.8243
18850TIP3   OH278040   4.987   2.283  12.080  0.0411 -0.4323  0.2564
18850TIP3    H178041   4.934   2.318  12.152 -0.3967 -0.4516 -0.0521
18850TIP3    H278042   4.948   2.321  12.001  0.5475 -0.3761  0.0339
18851TIP3   OH278043   0.929   2.424  14.592  0.3197 -0.7910 -0.0053
18851TIP3    H178044   0.862   2.361  14.568 -1.7577  0.5119  2.1543
18851TIP3    H278045   0.962   2.458  14.509 -2.0141 -1.1494 -1.1046
18852TIP3   OH278046   5.342   0.474   1.909 -0.6430  0.0532 -0.0388
18852TIP3    H178047   5.326   0.381   1.893  0.0402  0.1438 -1.3339
18852TIP3    H278048   5.435   0.486   1.886 -0.5957  0.9415  0.6162
18853TIP3   OH278049   5.032   5.613   5.412  0.3140 -0.0045  0.2547
18853TIP3    H178050   5.125   5.619   5.431  0.2961  0.2558  0.2646
18853TIP3    H278051   4.997   5.552   5.477  0.8006 -1.5085 -0.8767
18854TIP3   OH278052   3.071   0.323   6.379 -0.4331 -0.3837 -0.0075
18854TIP3    H178053   3.055   0.319   6.474  0.2759  0.6369  0.1721
18854TIP3    H278054   2.984   0.328   6.340 -0.6991  1.6253  0.7544
18855TIP3   OH278055   2.673   0.374   4.430 -0.3288 -0.4383 -0.4116
18855TIP3    H178056   2.590   0.408   4.398  1.0749  2.4713 -1.1219
18855TIP3    H278057   2.709   0.323   4.358 -2.1435 -2.9794  0.4237
18856TIP3   OH278058   0.728   6.085  13.572  0.1603  0.1556  0.3886
18856TIP3    H178059   0.704   6.134  13.651 -0.6886 -0.0317  0.2541
18856TIP3    H278060   0.748   5.997  13.603  0.9445  0.3836  0.5335
18857TIP3   OH278061   4.365   0.977  10.860 -0.0202  0.0640  0.0327
18857TIP3    H178062   4.361   0.944  10.950  1.2379  1.9172  0.8012
18857TIP3    H278063   4.393   1.068  10.869 -2.0236  0.9403 -2.1109
18858TIP3   OH278064   3.099   4.103  11.186 -0.3322 -0.6262  0.1455
18858TIP3    H178065   3.116   4.171  11.122  0.8234  0.2655  1.3714
18858TIP3    H278066   3.081   4.150  11.268  3.1519 -1.7515  1.6754
18859TIP3   OH278067   4.380   3.150   1.693 -0.0992 -0.1601 -0.2031
18859TIP3    H178068   4.456   3.201   1.719 -0.9963  1.6260 -0.9639
18859TIP3    H278069   4.351   3.191   1.611 -1.3160 -1.4084 -0.4163
18860TIP3   OH278070   2.907   1.340  14.229  0.3166  0.9185  0.0666
18860TIP3    H178071   2.848   1.366  14.299  1.1250  1.6303  0.4949
18860TIP3    H278072   2.993   1.330  14.271 -0.0885 -3.2840  0.0905
18861TIP3   OH278073   2.964   4.607  12.404 -0.9200 -0.4727  0.7642
18861TIP3    H178074   3.018   4.555  12.463  0.3661  2.4317  2.2110
18861TIP3    H278075   2.908   4.659  12.461 -2.0591 -0.0881 -0.6569
18862TIP3   OH278076   5.263   0.503  10.549 -0.4237  0.1462  0.5768
18862TIP3    H178077   5.331   0.570  10.553  0.9542 -1.2582  1.1077
18862TIP3    H278078   5.227   0.510  10.460 -1.0602  2.2972  0.9712
18863TIP3   OH278079   0.092   1.832  14.293 -0.2816 -0.1493 -0.2257
18863TIP3    H178080   0.157   1.772  14.329  0.0709  0.0677 -0.4918
18863TIP3    H278081   0.056   1.877  14.369  0.5123  0.3653 -0.1483
18864TIP3   OH278082   2.587   5.268   5.905 -0.2759 -0.4753  0.1269
18864TIP3    H178083   2.664   5.225   5.944 -0.9194 -1.1384  0.6677
18864TIP3    H278084   2.622   5.348   5.866  0.6242 -0.5606  0.7432
18865TIP3   OH278085   5.034   3.287  13.761 -0.4831 -0.3421  0.3670
18865TIP3    H178086   4.990   3.210  13.796 -0.1212 -0.9107 -0.4075
18865TIP3    H278087   5.126   3.261  13.755 -0.1705  0.5526  1.2041
18866TIP3   OH278088   4.600   4.903   0.824 -0.0423 -0.0852  0.0915
18866TIP3    H178089   4.674   4.887   0.764  0.2733  0.8148  0.2396
18866TIP3    H278090   4.523   4.904   0.767  0.0175 -1.3352 -0.0247
18867TIP3   OH278091   2.283   0.022  11.426  0.3844  0.2105  0.1247
18867TIP3    H178092   2.336   0.089  11.382  0.5922  0.3034  0.5161
18867TIP3    H278093   2.219   0.072  11.476 -0.1227  0.0968 -0.4035
18868TIP3   OH278094   4.534   0.231   2.397  0.2311  0.2371  0.0648
18868TIP3    H178095   4.503   0.288   2.467 -5.3176  0.1362 -2.0580
18868TIP3    H278096   4.583   0.289   2.339  0.1548  1.5002  1.2413
18869TIP3   OH278097   2.917   3.454  13.835  0.2316 -0.2503  0.0267
18869TIP3    H178098   2.990   3.505  13.869  0.2317 -0.1953 -0.0552
18869TIP3    H278099   2.883   3.406  13.911 -0.7035  1.0110  0.4217
18870TIP3   OH278100   5.315   6.169   4.094 -0.1483 -0.0542  0.6309
18870TIP3    H178101   5.327   6.258   4.063  0.1038  0.1860  1.4074
18870TIP3    H278102   5.395   6.123   4.065  1.1636  0.7313  2.8980
18871TIP3   OH278103   1.915   2.981  15.318 -0.0894 -0.1683  0.7198
18871TIP3    H178104   1.969   2.989  15.396 -1.7037  0.3044  1.8000
18871TIP3    H278105   1.970   3.015  15.247  0.4332  1.8028  2.0574
18872TIP3   OH278106   2.150   6.535   6.605 -0.1456  0.0679 -0.6496
18872TIP3    H178107   2.222   6.585   6.567 -0.2361 -0.5537 -1.6739
18872TIP3    H278108   2.089   6.524   6.532  0.1323 -2.0215 -0.5883
18873TIP3   OH278109   3.751   5.035   9.907 -0.0732 -0.4795  0.5143
18873TIP3    H178110   3.687   5.042   9.978 -0.6419 -0.5106  0.0141
18873TIP3    H278111   3.782   4.944   9.912 -0.7132 -0.7227  0.2206
18874TIP3   OH278112   4.995   5.555   2.675 -0.0624  0.6440 -0.4092
18874TIP3    H178113   4.960   5.517   2.595 -2.1026 -1.5293  1.4365
18874TIP3    H278114   5.086   5.527   2.678 -0.1333  0.2632 -1.6630
18875TIP3   OH278115   5.540   3.452  12.285  0.1210  0.2981 -0.0699
18875TIP3    H178116   5.467   3.413  12.333 -0.5804 -0.1316 -1.4603
18875TIP3    H278117   5.608   3.465  12.351 -1.0579  0.3238  1.1590
18876TIP3   OH278118   6.372   2.976  16.089  0.4779  0.0179  0.0236
18876TIP3    H178119   6.284   2.994  16.058  0.4018  0.5877  0.5772
18876TIP3    H278120   6.420   2.950  16.010 -0.0732  0.1010 -0.3393
18877TIP3   OH278121   0.765   2.570   0.607 -0.1088  0.0661 -0.1046
18877TIP3    H178122   0.692   2.632   0.606 -0.0001  0.2490  1.4457
18877TIP3    H278123   0.838   2.618   0.568 -0.4557  0.3528 -0.4049
18878TIP3   OH278124   2.462   5.967  11.777 -0.1428  0.3706  0.2794
18878TIP3    H178125   2.437   5.932  11.862 -0.5303 -0.7805 -0.2998
18878TIP3    H278126   2.552   5.996  11.788  0.0158 -0.3433  0.9089
18879TIP3   OH278127   0.305   5.502  17.129  0.4984 -0.2823  0.7871
18879TIP3    H178128   0.394   5.524  17.159  0.8794 -0.0118 -0.5155
18879TIP3    H278129   0.278   5.577  17.077 -0.1424 -0.7720  0.4189
18880TIP3   OH278130   4.901   4.129  11.509 -0.0763 -0.3513  0.5434
18880TIP3    H178131   4.952   4.087  11.439  2.5265  0.7549  1.6855
18880TIP3    H278132   4.830   4.068  11.527  0.7045 -1.8668 -1.3086
18881TIP3   OH278133   3.064   4.399   5.637  0.4102  0.0698 -0.3961
18881TIP3    H178134   3.052   4.471   5.699  0.7708 -0.1525 -0.0680
18881TIP3    H278135   2.980   4.393   5.591 -0.6770 -1.3369  1.7318
18882TIP3   OH278136   3.598   5.138   0.769  0.5896 -0.3492 -0.3635
18882TIP3    H178137   3.536   5.078   0.811  1.4862 -1.0418 -0.0392
18882TIP3    H278138   3.648   5.083   0.709  1.0091  0.1879 -0.5061
18883TIP3   OH278139   0.328   1.513  13.500 -0.2058 -0.1301  0.2488
18883TIP3    H178140   0.298   1.490  13.588  0.5225  0.3915  0.6355
18883TIP3    H278141   0.278   1.456  13.442  1.2936 -2.4014  1.1614
18884TIP3   OH278142   4.650   6.226   0.205  0.2157 -0.1082  0.0396
18884TIP3    H178143   4.582   6.293   0.207  1.6393  1.3520  1.4780
18884TIP3    H278144   4.685   6.225   0.294  2.5407 -0.3179 -0.8365
18885TIP3   OH278145   4.436   2.150   1.622 -0.3217  0.2328 -0.7057
18885TIP3    H178146   4.461   2.194   1.703 -0.2063 -0.2528 -0.4803
18885TIP3    H278147   4.513   2.099   1.597 -0.5467 -0.0404 -0.8381
18886TIP3   OH278148   5.396   5.037  11.421  0.2325  0.3489 -0.3058
18886TIP3    H178149   5.386   4.974  11.493  1.2631  1.8996  1.2366
18886TIP3    H278150   5.318   5.023  11.367 -0.1354 -1.4463  0.6332
18887TIP3   OH278151   5.661   2.335   3.138  0.0802  0.6237  0.0799
18887TIP3    H178152   5.753   2.306   3.143 -0.6598 -2.0981 -0.9291
18887TIP3    H278153   5.626   2.319   3.225 -0.1612 -1.0362 -0.3063
18888TIP3   OH278154   0.783   3.891  15.331 -0.5811  0.6814  0.0539
18888TIP3    H178155   0.786   3.863  15.240 -1.0141  0.4664  0.1055
18888TIP3    H278156   0.693   3.920  15.344 -0.0867  2.3008 -0.0626
18889TIP3   OH278157   5.445   3.892  12.656  0.4729  0.1946 -0.4310
18889TIP3    H178158   5.357   3.860  12.638  0.1019  1.3362 -0.6356
18889TIP3    H278159   5.490   3.888  12.572  0.6176 -0.3419 -0.3348
18890TIP3   OH278160   1.257   1.980   6.062 -0.0574 -0.3008 -0.3197
18890TIP3    H178161   1.343   1.946   6.036 -0.0634  0.4585 -1.3671
18890TIP3    H278162   1.264   1.994   6.157  0.1394 -2.6183  0.0251
18891TIP3   OH278163   5.082   4.982  16.014 -0.2606 -0.0714  0.0180
18891TIP3    H178164   5.151   5.011  15.954 -0.9224 -1.0896 -1.2724
18891TIP3    H278165   5.093   4.887  16.018 -0.5552 -0.0656  1.1083
18892TIP3   OH278166   2.627   4.703   1.578 -0.4530 -0.5713  0.5478
18892TIP3    H178167   2.536   4.723   1.557  0.0381 -0.5746 -1.8043
18892TIP3    H278168   2.657   4.648   1.505  1.5448 -0.1892  1.0360
18893TIP3   OH278169   4.454   2.334   2.156  0.2152  0.0145  0.0878
18893TIP3    H178170   4.504   2.262   2.196  1.4157 -0.5448 -2.3265
18893TIP3    H278171   4.363   2.311   2.172  0.6358 -0.7840  1.4709
18894TIP3   OH278172   5.557   5.264  14.903 -0.2579 -0.3810 -0.2075
18894TIP3    H178173   5.532   5.228  14.988  0.0676  0.5996  0.3224
18894TIP3    H278174   5.581   5.188  14.850 -1.9881 -1.1315  0.0615
18895TIP3   OH278175   3.317   0.533   4.705  0.4936  0.3669 -0.2444
18895TIP3    H178176   3.393   0.591   4.706 -0.1682  1.2235  2.0086
18895TIP3    H278177   3.259   0.569   4.638  0.9855  1.1280 -0.2609
18896TIP3   OH278178   2.958   6.055   3.676 -0.2666  0.6854  0.1113
18896TIP3    H178179   2.967   6.150   3.669  2.0268  0.5389  0.6014
18896TIP3    H278180   2.880   6.042   3.730 -0.0739  2.3220  0.8228
18897TIP3   OH278181   4.241   1.019   5.329 -0.0733  0.2185  0.8646
18897TIP3    H178182   4.322   0.970   5.341 -0.9528 -1.3691  0.3278
18897TIP3    H278183   4.229   1.024   5.234 -0.4557  0.7175  0.9341
18898TIP3   OH278184   3.017   3.317   5.985  0.1657  0.3138  0.4568
18898TIP3    H178185   2.938   3.369   5.968 -0.2749  0.1055  1.8062
18898TIP3    H278186   2.986   3.239   6.030  0.9340 -0.7422 -0.7928
18899TIP3   OH278187   5.233   0.949   4.423  0.1040 -0.0674  0.0948
18899TIP3    H178188   5.211   0.869   4.376  0.7985 -0.4033  0.3315
18899TIP3    H278189   5.151   0.979   4.461 -0.0931 -0.8429  0.2807
18900TIP3   OH278190   1.664   0.506  14.288 -0.4904  0.7157 -0.8166
18900TIP3    H178191   1.743   0.553  14.314  0.3696 -1.1033 -0.0285
18900TIP3    H278192   1.666   0.508  14.192  0.7619  0.3097 -0.8149
18901TIP3   OH278193   2.443   6.640  14.465 -0.1587 -0.8601 -0.1471
18901TIP3    H178194   2.422   6.686  14.547  2.3983  0.8253 -0.3714
18901TIP3    H278195   2.525   6.594  14.484 -1.2462 -3.1087 -0.7985
18902TIP3   OH278196   5.167   5.718   0.130  0.2616  0.3885  0.0180
18902TIP3    H178197   5.163   5.734   0.036 -0.9457 -1.2122 -0.2327
18902TIP3    H278198   5.106   5.781   0.168 -0.1652  0.2271 -0.3967
18903TIP3   OH278199   3.604   2.475  13.452 -0.4300  0.4376 -0.2329
18903TIP3    H178200   3.543   2.545  13.475  1.1257  1.5307  0.6601
18903TIP3    H278201   3.682   2.520  13.419  1.1018 -0.7807  1.5714
18904TIP3   OH278202   0.712   3.852   6.273  0.1389  0.0476 -0.1784
18904TIP3    H178203   0.752   3.915   6.332  0.1114 -1.3698  1.3764
18904TIP3    H278204   0.629   3.829   6.315 -0.0947 -0.6235 -0.9876
18905TIP3   OH278205   2.365   5.645   5.287 -0.3335  0.6347 -0.3232
18905TIP3    H178206   2.354   5.722   5.342 -2.5336  1.0913 -1.3688
18905TIP3    H278207   2.398   5.679   5.204 -0.4901  0.3337 -0.5091
18906TIP3   OH278208   4.690   1.343  13.923 -0.0856 -0.9882  0.0448
18906TIP3    H178209   4.724   1.433  13.926 -1.2444 -0.5513  0.6729
18906TIP3    H278210   4.667   1.329  13.831  1.3337 -1.1215 -0.2956
18907TIP3   OH278211   0.052   2.254   0.065 -0.4448 -0.1272  0.0462
18907TIP3    H178212  -0.008   2.203   0.119 -1.8125  1.3730  0.0027
18907TIP3    H278213  -0.003   2.290  -0.005  1.0975 -1.1382 -1.7153
18908TIP3   OH278214   6.807   2.643   5.358 -0.1118 -1.4527  0.3741
18908TIP3    H178215   6.741   2.664   5.293 -0.6426 -1.1113  1.0220
18908TIP3    H278216   6.782   2.693   5.436  0.9109 -1.3010  0.6221
18909TIP3   OH278217   2.128   0.535  13.786  0.6182  0.4377  0.0862
18909TIP3    H178218   2.090   0.475  13.850  1.0816 -2.0844 -1.8932
18909TIP3    H278219   2.062   0.541  13.716  1.1460  1.1663 -0.3592
18910TIP3   OH278220   1.956   5.348   5.159  0.1519 -0.0656 -0.0191
18910TIP3    H178221   1.963   5.255   5.137  0.5782 -0.1427  0.4642
18910TIP3    H278222   2.039   5.370   5.200 -0.5482  0.1571  1.2958
18911TIP3   OH278223   0.308   1.747   4.400 -0.9047  0.2717 -0.4318
18911TIP3    H178224   0.257   1.665   4.403 -0.3079 -0.0727  0.5429
18911TIP3    H278225   0.382   1.726   4.344 -2.2133  1.0067 -2.4882
18912TIP3   OH278226   0.101   2.646   1.548 -0.2459  0.1750  0.0614
18912TIP3    H178227   0.114   2.668   1.456  0.3866 -0.4707 -0.0077
18912TIP3    H278228   0.110   2.551   1.552 -0.1288  0.2092  0.8093
18913TIP3   OH278229   0.004   4.797   1.120 -0.3731 -0.2152 -0.5127
18913TIP3    H178230  -0.022   4.860   1.187 -2.4609 -2.1216  0.5269
18913TIP3    H278231   0.100   4.798   1.122 -0.3829  0.0262  2.2823
18914TIP3   OH278232   1.411   4.852   4.282  0.4304  0.4331  0.3059
18914TIP3    H178233   1.360   4.794   4.339  1.8313 -0.2596  0.8791
18914TIP3    H278234   1.423   4.932   4.333  0.4560  0.3491  0.4339
18915TIP3   OH278235   3.954   6.709   2.266  0.2495  0.1838 -0.3757
18915TIP3    H178236   3.990   6.766   2.334 -1.4080  1.0665 -0.2123
18915TIP3    H278237   4.017   6.714   2.194  1.0505  0.7537  0.3578
18916TIP3   OH278238   1.201   2.941  14.274 -0.1753  0.0906 -1.0417
18916TIP3    H178239   1.212   2.874  14.207 -0.7226  0.8393 -1.9080
18916TIP3    H278240   1.118   2.983  14.252 -0.3093  0.4166  0.0526
18917TIP3   OH278241   5.053   5.271   1.671 -0.5325 -0.6889  0.5163
18917TIP3    H178242   5.010   5.318   1.600  0.0160 -0.7133  0.1615
18917TIP3    H278243   4.996   5.197   1.690 -0.3585 -1.0422 -0.3383
18918TIP3   OH278244   0.988   5.528   1.143  0.2352  0.2832 -0.8346
18918TIP3    H178245   1.019   5.451   1.095 -0.4149 -0.1156 -0.6200
18918TIP3    H278246   0.926   5.570   1.084 -1.0325 -0.5519 -0.0984
18919TIP3   OH278247   1.204   3.401  13.706 -0.3760  0.1481  0.5335
18919TIP3    H178248   1.227   3.407  13.798 -2.9947  4.7344  1.0703
18919TIP3    H278249   1.244   3.479  13.666  1.0142 -1.9478 -2.3008
18920TIP3   OH278250   4.751   4.263   2.939  0.1745 -0.2327  0.7775
18920TIP3    H178251   4.836   4.266   2.984  1.0424  0.9447 -0.8845
18920TIP3    H278252   4.765   4.202   2.867 -0.0995  0.6914 -0.0671
18921TIP3   OH278253   4.662   3.993  11.489 -0.0144 -0.4884 -0.2872
18921TIP3    H178254   4.622   3.976  11.403  2.2091 -1.1621 -1.2286
18921TIP3    H278255   4.643   3.914  11.540 -1.3061 -0.1058 -0.1668
18922TIP3   OH278256   3.179   6.743   1.422  0.4873 -0.4334 -0.0252
18922TIP3    H178257   3.268   6.711   1.406  0.7980  0.2758  0.2485
18922TIP3    H278258   3.183   6.836   1.400 -0.1153 -0.3383  0.2595
18923TIP3   OH278259   6.429   1.665  15.523  0.3148 -0.3188  0.1002
18923TIP3    H178260   6.466   1.751  15.541  0.1570  0.1192 -1.5753
18923TIP3    H278261   6.440   1.616  15.605 -1.1744  1.8373  1.6436
18924TIP3   OH278262   6.171   1.129  14.047 -0.0940  0.1610 -0.0322
18924TIP3    H178263   6.133   1.130  13.959  0.9297 -0.9454 -0.5117
18924TIP3    H278264   6.135   1.206  14.091 -0.6737  0.6700 -1.3971
18925TIP3   OH278265   5.624   0.107   4.298  0.0924 -0.4684 -0.5523
18925TIP3    H178266   5.608   0.051   4.373  1.3272  0.0521  0.1047
18925TIP3    H278267   5.574   0.066   4.226 -1.2743 -0.8360  0.5820
18926TIP3   OH278268   4.898   0.168   4.899 -0.4364 -0.0015 -0.2978
18926TIP3    H178269   4.846   0.192   4.975  1.5429  0.1898  1.0300
18926TIP3    H278270   4.926   0.078   4.916 -0.7794 -0.2962 -1.2612
18927TIP3   OH278271   4.225   3.350   0.354  0.0703 -0.4252 -0.1256
18927TIP3    H178272   4.268   3.332   0.437  0.4474  1.8534  0.1966
18927TIP3    H278273   4.245   3.273   0.300  0.7857 -1.4000  1.4977
18928TIP3   OH278274   5.608   5.923  13.081 -0.2667 -0.5456  0.0304
18928TIP3    H178275   5.644   6.000  13.123 -0.7077 -0.5692  0.4526
18928TIP3    H278276   5.632   5.850  13.138 -0.2226 -0.6689 -0.1424
18929TIP3   OH278277   6.203   6.605  11.127 -0.1337  0.1771  0.3107
18929TIP3    H178278   6.284   6.653  11.146 -0.5755  0.1104  2.4730
18929TIP3    H278279   6.225   6.514  11.146 -1.2044  0.3742  2.6634
18930TIP3   OH278280   4.810   2.162  14.373  0.4482 -0.2585 -0.2331
18930TIP3    H178281   4.797   2.209  14.290  1.3973  0.5236  0.0467
18930TIP3    H278282   4.905   2.152  14.379  0.3557 -0.6258  0.5888
18931TIP3   OH278283   3.421   5.633   4.567  0.2858  0.5860  0.3116
18931TIP3    H178284   3.351   5.659   4.627  0.4131 -0.2012  0.8083
18931TIP3    H278285   3.434   5.540   4.585 -0.2909  0.1222 -1.5693
18932TIP3   OH278286   5.355   3.976   6.599  0.1586 -0.8261  0.5617
18932TIP3    H178287   5.423   3.943   6.540 -0.9914 -1.8393 -0.2269
18932TIP3    H278288   5.398   3.981   6.685  0.9107 -2.5545  0.3063
18933TIP3   OH278289   6.181   5.292   6.442 -0.0633 -0.0516 -0.2612
18933TIP3    H178290   6.223   5.373   6.469  0.3422  0.1612 -1.5067
18933TIP3    H278291   6.170   5.301   6.347  2.6177 -2.6166 -0.9015
18934TIP3   OH278292   1.614   0.351  12.269  0.2924  0.0643  0.0664
18934TIP3    H178293   1.657   0.290  12.210 -0.8483 -0.1459 -0.5445
18934TIP3    H278294   1.552   0.399  12.214  0.4988  1.1203  0.7258
18935TIP3   OH278295   1.970   6.629   2.840 -0.2174 -0.9412  0.5167
18935TIP3    H178296   1.896   6.660   2.893 -0.4450 -1.1844  0.3411
18935TIP3    H278297   2.046   6.643   2.895  0.0954  3.0122 -0.7547
18936TIP3   OH278298   1.733   4.762  11.371 -0.4617 -0.7584 -0.0927
18936TIP3    H178299   1.685   4.785  11.292  0.3461 -0.3887 -0.4801
18936TIP3    H278300   1.806   4.710  11.341 -2.3532 -4.0824  0.7932
18937TIP3   OH278301   5.924   2.734   2.537 -0.0312  0.2090  0.0201
18937TIP3    H178302   5.927   2.642   2.564 -0.2094  0.5556  1.2527
18937TIP3    H278303   6.003   2.747   2.485 -0.1870 -0.7384 -0.4503
18938TIP3   OH278304   3.944   1.390   5.794 -0.1880 -0.2153  0.4637
18938TIP3    H178305   3.988   1.384   5.709 -0.1313  0.4654  0.4382
18938TIP3    H278306   3.950   1.302   5.830 -0.0364 -0.4629 -0.1523
18939TIP3   OH278307   4.934   5.926   6.583 -0.3511  0.4752  0.0478
18939TIP3    H178308   4.982   6.006   6.564  0.0659 -0.1418 -1.5370
18939TIP3    H278309   4.997   5.870   6.629 -0.0236  0.2620 -0.6610
18940TIP3   OH278310   4.257   3.053  14.076 -0.0587 -0.3245 -0.1733
18940TIP3    H178311   4.201   2.987  14.117 -0.4889 -0.3260 -0.7483
18940TIP3    H278312   4.303   3.006  14.006  1.5835 -0.5993  1.0796
18941TIP3   OH278313   5.775   0.280   5.328  0.6098 -0.4405  0.7427
18941TIP3    H178314   5.702   0.225   5.356 -0.1946  0.5395  0.5568
18941TIP3    H278315   5.736   0.364   5.305  1.7257 -0.0589  0.1726
18942TIP3   OH278316   5.680   4.171  13.748 -0.6543  0.4962 -0.1576
18942TIP3    H178317   5.700   4.111  13.820 -2.1432 -0.6590 -0.6710
18942TIP3    H278318   5.661   4.254  13.791 -1.0160 -0.0471  0.7465
18943TIP3   OH278319   3.097   3.959   0.617 -0.1609 -0.5418 -0.0150
18943TIP3    H178320   3.184   3.938   0.651 -0.0106  1.9821  1.2548
18943TIP3    H278321   3.049   3.995   0.691 -1.7965 -0.5086 -1.0531
18944TIP3   OH278322   0.827   6.308  11.315 -0.2905 -0.1547  0.2013
18944TIP3    H178323   0.907   6.345  11.353 -1.4590  1.1870  1.3949
18944TIP3    H278324   0.783   6.383  11.275 -1.1212 -0.8343 -0.1717
18945TIP3   OH278325   1.603   5.270   6.439  0.6387 -0.4369  0.0441
18945TIP3    H178326   1.692   5.284   6.406  0.9722 -1.0403  0.6775
18945TIP3    H278327   1.592   5.336   6.507  1.5620 -2.0312  1.7838
18946TIP3   OH278328   0.498   4.394  16.041 -0.3967  0.0124 -0.7547
18946TIP3    H178329   0.587   4.358  16.041  0.0416  1.0442 -2.5296
18946TIP3    H278330   0.456   4.353  15.966 -0.5389  1.6228 -1.5738
18947TIP3   OH278331   1.218   0.902  13.027 -0.0775  0.6055 -0.5804
18947TIP3    H178332   1.184   0.959  12.957 -1.7376 -0.2601 -0.5172
18947TIP3    H278333   1.200   0.950  13.108  0.7399  1.0672 -0.6693
18948TIP3   OH278334   6.307   0.343   0.056 -0.1576  0.5894 -0.2168
18948TIP3    H178335   6.393   0.384   0.051 -0.3715  1.0869  0.1696
18948TIP3    H278336   6.319   0.258   0.014  0.6265  0.4832  0.2142
18949TIP3   OH278337   5.159   0.867  14.199 -0.3795  0.5771 -0.1809
18949TIP3    H178338   5.152   0.935  14.266  0.5026  2.9248 -2.3824
18949TIP3    H278339   5.071   0.860  14.162 -0.2068  1.3787 -0.7493
18950TIP3   OH278340   1.338   4.136   4.545  0.2162 -0.3682 -0.0081
18950TIP3    H178341   1.327   4.045   4.517  0.7316 -0.7032  0.8589
18950TIP3    H278342   1.307   4.136   4.636 -0.5075  0.4919 -0.2509
18951TIP3   OH278343   1.648   6.483   2.864 -0.6375 -0.0752 -0.2579
18951TIP3    H178344   1.613   6.566   2.897  0.3791  0.2849 -0.0797
18951TIP3    H278345   1.734   6.475   2.905 -1.5825 -2.2715  1.4477
18952TIP3   OH278346   2.924   6.181  12.091  0.3573  0.1771 -0.9244
18952TIP3    H178347   2.833   6.155  12.104  0.5494 -0.7023 -1.3018
18952TIP3    H278348   2.941   6.165  11.998  1.1583 -0.5116 -0.6715
18953TIP3   OH278349   1.953   5.277  12.411  0.7960 -0.0735  0.6020
18953TIP3    H178350   1.934   5.225  12.333 -0.3598 -0.3486  1.0570
18953TIP3    H278351   2.029   5.235  12.449 -0.1591 -1.4839  0.9874
18954TIP3   OH278352   1.393   2.172  16.751  0.5231  0.4113  0.1283
18954TIP3    H178353   1.381   2.231  16.826 -0.4212  0.5528 -0.1321
18954TIP3    H278354   1.402   2.231  16.676 -1.3449  0.2223 -0.2685
18955TIP3   OH278355   5.294   1.439   2.398 -0.3934 -0.6002 -0.2106
18955TIP3    H178356   5.358   1.487   2.451 -0.7834 -1.2869  0.9148
18955TIP3    H278357   5.222   1.421   2.459 -0.8152 -1.4769 -0.9589
18956TIP3   OH278358   2.905   2.147  10.542 -0.0599 -0.4576  0.3008
18956TIP3    H178359   2.983   2.200  10.529  0.9649 -1.4762  2.0258
18956TIP3    H278360   2.839   2.186  10.485  1.7095  0.4046 -1.2072
18957TIP3   OH278361   0.602   0.947  12.938  0.8483 -0.3261  0.0016
18957TIP3    H178362   0.580   0.931  13.030  1.4743  1.5898  0.5140
18957TIP3    H278363   0.594   1.042  12.928 -0.3784 -0.6388 -2.2452
18958TIP3   OH278364   5.134   5.867  16.043  0.1916  0.2172 -0.0476
18958TIP3    H178365   5.178   5.785  16.065  0.3487 -0.0238 -1.2087
18958TIP3    H278366   5.204   5.932  16.039  0.4510 -0.1371 -1.7531
18959TIP3   OH278367   6.499   5.882  15.818 -0.1512  0.1989  0.4368
18959TIP3    H178368   6.422   5.825  15.823  2.7696 -3.7595  2.5130
18959TIP3    H278369   6.491   5.939  15.894 -1.3408  0.3041  0.2562
18960TIP3   OH278370   4.769   4.881  15.731 -0.2761  0.1580 -0.1088
18960TIP3    H178371   4.852   4.863  15.775 -0.8208 -1.1071  0.4034
18960TIP3    H278372   4.780   4.846  15.643 -0.7640 -1.2883  0.3957
18961TIP3   OH278373   6.730   2.767  12.573  0.3734  0.4592  0.5573
18961TIP3    H178374   6.825   2.764  12.584  0.3034  0.9282  1.2867
18961TIP3    H278375   6.704   2.675  12.572  0.9929  0.2858 -1.0899
18962TIP3   OH278376   5.463   0.189  15.879  0.2169  0.1915 -0.1520
18962TIP3    H178377   5.499   0.209  15.793  1.4743  0.6127  0.4665
18962TIP3    H278378   5.373   0.161  15.862  0.7447 -0.5963 -1.6863
18963TIP3   OH278379   6.165   4.746  11.683  0.0295  0.5521 -0.0214
18963TIP3    H178380   6.097   4.712  11.625 -0.5347 -0.5334  1.2471
18963TIP3    H278381   6.247   4.719  11.642 -0.3602 -0.2806 -0.2709
18964TIP3   OH278382   0.590   3.187   1.546 -0.2324 -0.1058  0.0495
18964TIP3    H178383   0.585   3.092   1.541  0.1477 -0.1274  0.0311
18964TIP3    H278384   0.599   3.206   1.639  1.2587 -0.1800 -0.0615
18965TIP3   OH278385   5.235   4.923  16.471 -0.2691  0.3804 -0.1951
18965TIP3    H178386   5.309   4.896  16.417 -0.8009 -0.5272 -0.4949
18965TIP3    H278387   5.241   5.018  16.475  1.8793  0.2208  1.1937
18966TIP3   OH278388   2.792   0.174  16.949  0.8226  0.4088 -0.5067
18966TIP3    H178389   2.833   0.201  17.031  0.7946 -0.8070 -0.0826
18966TIP3    H278390   2.699   0.167  16.970  0.7770  0.3842 -0.7170
18967TIP3   OH278391   6.713   1.280  17.145 -0.3556 -0.3902  0.1683
18967TIP3    H178392   6.641   1.310  17.201  0.4312  1.3291  0.2725
18967TIP3    H278393   6.776   1.241  17.205 -0.8642 -1.2399  0.1525
18968TIP3   OH278394   0.728   4.101  15.649 -0.6659 -0.2759 -0.0832
18968TIP3    H178395   0.643   4.093  15.605  0.0443 -0.2511 -1.4845
18968TIP3    H278396   0.792   4.077  15.582  0.4128 -0.8227  1.1221
18969TIP3   OH278397   1.936   2.067  16.441 -0.5235 -0.6061  0.5238
18969TIP3    H178398   1.961   2.053  16.533 -0.9127 -1.9855  0.4228
18969TIP3    H278399   1.894   1.985  16.415  0.5703 -0.6217 -1.2211
18970TIP3   OH278400   4.836   0.535   5.133  0.0484  0.3293  0.9251
18970TIP3    H178401   4.785   0.463   5.098  0.7962 -1.1507  2.7937
18970TIP3    H278402   4.821   0.531   5.228  0.4218  2.3791  1.0976
18971TIP3   OH278403   6.738   4.666  14.276 -0.3443  0.1855  0.3017
18971TIP3    H178404   6.802   4.675  14.346 -0.2566  0.3183  0.2044
18971TIP3    H278405   6.673   4.734  14.293 -1.7933 -1.4993  1.8090
18972TIP3   OH278406   2.014   6.042  14.367  0.3740  0.4702  0.5751
18972TIP3    H178407   1.992   6.075  14.280  1.1292  1.3701  0.7094
18972TIP3    H278408   1.938   6.064  14.421 -0.8742 -1.7044 -0.2283
18973TIP3   OH278409   6.788   2.192  14.323 -0.3928 -0.2437 -0.1840
18973TIP3    H178410   6.744   2.108  14.337  0.0535 -0.1764  1.7472
18973TIP3    H278411   6.788   2.233  14.410  1.5017  0.7168 -0.6248
18974TIP3   OH278412   3.508   6.792  12.600 -0.3982 -0.2986  0.0910
18974TIP3    H178413   3.414   6.776  12.605 -0.4814 -0.1173 -0.8398
18974TIP3    H278414   3.525   6.857  12.668 -1.0346  0.0566 -0.0864
18975TIP3   OH278415   0.933   3.070   6.853  0.6050  0.0675  0.0205
18975TIP3    H178416   0.946   3.023   6.771  0.5195  0.7265 -0.3800
18975TIP3    H278417   1.019   3.072   6.894  0.4392 -1.1677  0.4456
18976TIP3   OH278418   1.842   5.956   0.995 -0.4980 -0.2081 -0.1997
18976TIP3    H178419   1.832   6.050   0.982  0.9584 -0.0083  0.0526
18976TIP3    H278420   1.820   5.917   0.910  3.2101  0.6822 -1.6633
18977TIP3   OH278421   1.845   0.328  13.250 -0.2053  0.0906 -0.1078
18977TIP3    H178422   1.761   0.309  13.292  0.6002 -0.8834  1.1207
18977TIP3    H278423   1.852   0.263  13.179  1.0792 -2.2129  2.0399
18978TIP3   OH278424   5.068   0.707   1.733 -0.1409  0.0972  0.6641
18978TIP3    H178425   5.077   0.791   1.777 -0.4732  0.4525  0.0606
18978TIP3    H278426   5.154   0.690   1.695 -0.0368  0.1034  0.9017
18979TIP3   OH278427   5.056   5.283  16.873  0.0513 -0.0725 -0.3159
18979TIP3    H178428   5.055   5.207  16.814 -1.0243 -1.7546  1.7708
18979TIP3    H278429   5.009   5.252  16.951  0.7192  2.3534  1.0780
18980TIP3   OH278430   5.275   6.627  12.074  0.4413  0.0064 -0.2769
18980TIP3    H178431   5.266   6.604  12.166  1.0550 -2.2441 -0.7370
18980TIP3    H278432   5.368   6.648  12.063  0.4710 -0.2286 -0.4879
18981TIP3   OH278433   5.339   3.171  11.092  0.2586  0.1569 -0.0114
18981TIP3    H178434   5.301   3.224  11.162 -0.1723 -1.1082  0.7410
18981TIP3    H278435   5.267   3.160  11.029 -0.0058 -0.4524  0.3830
18982TIP3   OH278436   0.319   4.506  14.756  0.1491  0.3254  0.4504
18982TIP3    H178437   0.318   4.486  14.850  1.5392 -1.1386  0.1844
18982TIP3    H278438   0.410   4.531  14.738 -0.1582  0.8062 -0.4682
18983TIP3   OH278439   2.990   0.033   3.621 -0.2055 -0.0710 -0.1247
18983TIP3    H178440   3.057   0.063   3.681  0.1396  1.5491 -1.2842
18983TIP3    H278441   3.038  -0.006   3.548 -0.5126  1.1748 -1.0017
18984TIP3   OH278442   3.539   6.142  12.733 -0.0734 -0.0318 -0.2807
18984TIP3    H178443   3.602   6.071  12.718  0.2828  0.5967 -1.9150
18984TIP3    H278444   3.457   6.098  12.756  0.9048 -0.8611  1.6467
18985TIP3   OH278445   0.090   1.080   4.334 -0.1336  0.6784  0.3660
18985TIP3    H178446   0.064   1.158   4.284  0.1903 -0.0020 -0.8730
18985TIP3    H278447   0.121   1.019   4.268 -1.7280 -1.0562  1.1796
18986TIP3   OH278448   1.103   1.380  11.816  0.1270  0.2330  0.0881
18986TIP3    H178449   1.027   1.433  11.841 -0.8601 -0.6506 -0.9426
18986TIP3    H278450   1.076   1.337  11.735  1.3895 -0.8157  0.2091
18987TIP3   OH278451   0.795   3.091   1.221  0.2248 -0.0256 -0.5666
18987TIP3    H178452   0.882   3.055   1.230  0.2714  0.0915 -0.5466
18987TIP3    H278453   0.738   3.015   1.210  0.5336 -0.0391 -2.2258
18988TIP3   OH278454   1.527   2.130  15.010  0.1177 -0.0597 -0.2930
18988TIP3    H178455   1.544   2.041  14.980  0.9629 -0.6795  1.9811
18988TIP3    H278456   1.437   2.148  14.984  0.4290 -1.0188 -2.0852
18989TIP3   OH278457   3.557   2.463   4.350  0.6098  0.5803 -0.0541
18989TIP3    H178458   3.467   2.487   4.370  0.5514  1.9163 -1.7675
18989TIP3    H278459   3.550   2.378   4.307  0.1280  0.7776 -0.3770
18990TIP3   OH278460   2.288   1.125   3.303  0.2064  0.1167 -0.0634
18990TIP3    H178461   2.364   1.089   3.348  0.2388  0.7637  0.3994
18990TIP3    H278462   2.213   1.083   3.347  0.1286  2.4133  2.1537
18991TIP3   OH278463   3.654   4.925  15.443  0.4964  0.4029 -1.1115
18991TIP3    H178464   3.601   4.893  15.516  2.0232 -0.1389 -0.2241
18991TIP3    H278465   3.695   5.005  15.475  2.4075 -0.6684 -0.8052
18992TIP3   OH278466   5.178   2.029  12.401  0.0181  0.4975 -0.4415
18992TIP3    H178467   5.231   2.107  12.385 -0.6888  0.7241 -1.7555
18992TIP3    H278468   5.237   1.968  12.446  0.2266  2.2436  1.7734
18993TIP3   OH278469   4.902   2.187  15.846 -0.3582 -0.4847 -0.1959
18993TIP3    H178470   4.907   2.179  15.751 -0.0615 -0.2954 -0.1937
18993TIP3    H278471   4.981   2.233  15.871 -0.0995 -1.1433  0.2119
18994TIP3   OH278472   4.434   5.962   0.331 -0.3019 -0.1316  0.2824
18994TIP3    H178473   4.437   5.867   0.318 -1.8259 -0.0012 -1.1745
18994TIP3    H278474   4.383   5.995   0.257  0.8111  1.9044  0.3800
18995TIP3   OH278475   1.532   5.535  14.041  0.1386 -0.2128  0.3895
18995TIP3    H178476   1.559   5.465  13.981  0.2162  1.3326 -1.4217
18995TIP3    H278477   1.440   5.551  14.019 -0.1360 -0.3641  1.4230
18996TIP3   OH278478   5.130   4.510  16.826 -0.7096  0.0122  0.1419
18996TIP3    H178479   5.185   4.470  16.894 -0.4055  0.1100 -0.0488
18996TIP3    H278480   5.155   4.465  16.746 -0.3652  0.5872 -0.0741
18997TIP3   OH278481   4.551   5.862   0.555  0.3001  0.1598  0.1834
18997TIP3    H178482   4.505   5.927   0.502  0.5711  0.7569  0.6756
18997TIP3    H278483   4.491   5.788   0.560  1.0452 -0.6739 -2.5672
18998TIP3   OH278484   3.847   6.095  17.285 -0.0256 -0.4036  0.1019
18998TIP3    H178485   3.896   6.153  17.227 -0.3676 -0.0571  0.1598
18998TIP3    H278486   3.791   6.153  17.336 -0.6897 -0.8206 -0.1475
18999TIP3   OH278487   2.403   0.938   2.880 -0.0248  0.1009  0.4074
18999TIP3    H178488   2.455   0.873   2.833  0.3619  0.3915  0.4328
18999TIP3    H278489   2.324   0.949   2.826  0.1608  0.0178  0.1169
19000TIP3   OH278490   4.267   6.779   2.943  0.3668  0.7646  0.2031
19000TIP3    H178491   4.300   6.741   2.862  0.5439  0.1754  0.5475
19000TIP3    H278492   4.177   6.803   2.924 -0.0111 -0.5954  0.2281
19001TIP3   OH278493   6.409   4.376  11.299 -0.2115 -0.1940 -0.1730
19001TIP3    H178494   6.316   4.356  11.308 -0.7028  0.1732 -3.7033
19001TIP3    H278495   6.444   4.304  11.245  1.2207  0.4332 -0.1026
19002TIP3   OH278496   4.520   5.537  12.424  0.0738  0.0096  0.0386
19002TIP3    H178497   4.558   5.544  12.511 -0.6182  1.4717  0.2339
19002TIP3    H278498   4.431   5.571  12.433 -0.3045 -0.6600 -1.0421
19003TIP3   OH278499   2.041   2.478  14.950 -0.1456  0.0540  0.0225
19003TIP3    H178500   2.016   2.450  14.862  1.2362 -2.7739  0.4711
19003TIP3    H278501   1.966   2.454  15.005  0.2379 -1.0246  0.0871
19004TIP3   OH278502   0.870   1.168   5.526  0.4077 -0.0228  0.4366
19004TIP3    H178503   0.883   1.094   5.466 -0.9931 -0.4025  0.5945
19004TIP3    H278504   0.775   1.173   5.537  0.5780  1.0254  1.4071
19005TIP3   OH278505   4.794   2.298   5.511  0.4092 -0.1537 -0.1757
19005TIP3    H178506   4.774   2.246   5.433 -1.4336 -0.4214  0.4466
19005TIP3    H278507   4.759   2.246   5.584  1.2972  0.5229  0.7401
19006TIP3   OH278508   1.915   0.302  11.019  0.5974  0.0615  0.4975
19006TIP3    H178509   1.894   0.394  11.035 -0.0181 -0.0884  0.5385
19006TIP3    H278510   1.870   0.280  10.938 -0.3680 -0.5807  1.1978
19007TIP3   OH278511   5.171   0.796   0.083 -0.4041 -0.1631  0.1825
19007TIP3    H178512   5.245   0.755   0.038 -1.0381 -0.2344 -0.8297
19007TIP3    H278513   5.183   0.890   0.068 -1.0863 -0.2304 -0.9449
19008TIP3   OH278514   1.776   1.864   2.673  0.1285  0.2604  0.1152
19008TIP3    H178515   1.815   1.856   2.586  0.9938  0.0378  0.5256
19008TIP3    H278516   1.689   1.902   2.657  0.5150  0.7647 -0.7900
19009TIP3   OH278517   1.410   3.068  15.969 -0.1340  0.7050  0.3991
19009TIP3    H178518   1.481   3.005  15.982  1.1109  1.8007 -0.9233
19009TIP3    H278519   1.337   3.033  16.020  0.6638 -1.5967  0.0251
19010TIP3   OH278520   6.585   3.506   4.386 -0.1153  0.3953  0.8602
19010TIP3    H178521   6.514   3.476   4.331  0.2634 -1.0536  1.1396
19010TIP3    H278522   6.651   3.538   4.325  0.1822 -0.9298  0.4644
19011TIP3   OH278523   4.361   6.539   1.426  1.0244  0.1032 -0.4641
19011TIP3    H178524   4.406   6.562   1.345  0.5873  0.1456 -0.6996
19011TIP3    H278525   4.327   6.450   1.411 -0.6590  0.8175 -1.0432
19012TIP3   OH278526   6.038   3.499   0.375  0.0812  0.2143  0.1086
19012TIP3    H178527   6.100   3.431   0.351 -1.6640 -1.5479  0.4490
19012TIP3    H278528   5.998   3.526   0.292  0.7008  0.7650 -0.0142
19013TIP3   OH278529   5.474   6.783  11.328  0.7965 -0.6755 -0.1927
19013TIP3    H178530   5.564   6.814  11.314  0.5827  0.6475  1.3278
19013TIP3    H278531   5.419   6.856  11.299  0.2960  0.4757  3.4094
19014TIP3   OH278532   2.765   5.476   5.559 -0.5353  0.1490  0.0884
19014TIP3    H178533   2.708   5.422   5.612 -0.5718  1.7876  1.7541
19014TIP3    H278534   2.727   5.473   5.471 -0.3373 -2.7627  0.0655
19015TIP3   OH278535   6.486   4.186   3.320  0.2999  0.2304 -0.1988
19015TIP3    H178536   6.558   4.168   3.382  1.1889  1.1316 -0.9481
19015TIP3    H278537   6.521   4.255   3.263 -0.1249 -1.3191 -2.3859
19016TIP3   OH278538   3.958   3.798  11.338 -0.1810  0.1150  0.3132
19016TIP3    H178539   3.868   3.805  11.305 -0.2884  0.9602  0.7767
19016TIP3    H278540   3.970   3.705  11.356 -0.9705  0.0005  0.2573
19017TIP3   OH278541   1.484   3.083  13.021  0.4935 -0.1327 -0.2703
19017TIP3    H178542   1.470   2.988  13.021  0.7858 -0.1790 -0.8181
19017TIP3    H278543   1.546   3.097  12.949  2.1047  0.2174  1.1633
19018TIP3   OH278544   3.855   0.144   0.530  0.3808 -0.1314 -0.0120
19018TIP3    H178545   3.922   0.142   0.462 -0.2373 -0.0640 -0.6172
19018TIP3    H278546   3.890   0.087   0.599  1.1417  0.0435 -0.2526
19019TIP3   OH278547   1.741   6.715   0.619 -0.2265 -0.5474  0.4811
19019TIP3    H178548   1.780   6.650   0.678 -2.2409 -2.6287 -0.3813
19019TIP3    H278549   1.718   6.665   0.541 -2.3141  1.0956  0.0091
19020TIP3   OH278550   5.978   4.330  14.590 -0.4934 -0.1706 -0.0739
19020TIP3    H178551   6.045   4.392  14.559 -1.3086  1.4544  1.3391
19020TIP3    H278552   5.895   4.369  14.564 -0.9497 -1.8258 -1.1695
19021TIP3   OH278553   1.611   2.286   1.617  0.2724  0.3821 -0.4299
19021TIP3    H178554   1.609   2.380   1.634  0.0654  0.1785  0.6888
19021TIP3    H278555   1.564   2.276   1.535  0.8344  1.3238 -0.8784
19022TIP3   OH278556   0.667   4.350   6.192 -0.0294 -0.6403  0.2288
19022TIP3    H178557   0.638   4.368   6.102  1.4640 -1.1175 -0.3587
19022TIP3    H278558   0.605   4.286   6.226 -1.7909  1.0384  0.2353
19023TIP3   OH278559   2.132   4.136  11.010 -0.5700 -0.1848 -0.4229
19023TIP3    H178560   2.218   4.147  10.970 -0.1316 -0.6330  0.3962
19023TIP3    H278561   2.088   4.072  10.955 -0.0157 -0.7003 -0.2733
19024TIP3   OH278562   6.646   0.065  11.441  0.1622  0.0484  0.5712
19024TIP3    H178563   6.721   0.082  11.384  0.5711 -1.0099  0.7704
19024TIP3    H278564   6.575   0.043  11.381  0.4671 -0.6094  0.4458
19025TIP3   OH278565   2.564   6.218   6.029  0.5941  0.0922  0.1787
19025TIP3    H178566   2.630   6.183   5.969 -0.2757  0.1213 -0.8099
19025TIP3    H278567   2.612   6.237   6.109  2.2121  2.1231 -1.2195
19026TIP3   OH278568   0.741   3.412   3.106  0.0341  0.0156 -0.1587
19026TIP3    H178569   0.823   3.439   3.147 -0.0623 -1.0493  0.7717
19026TIP3    H278570   0.694   3.494   3.088  1.0956  0.6028 -0.2903
19027TIP3   OH278571   4.131   6.140  15.042 -0.6367  0.3989  0.5795
19027TIP3    H178572   4.114   6.089  15.121 -1.0964 -0.0005  0.2221
19027TIP3    H278573   4.120   6.231  15.070 -1.8109  0.2214  0.7425
19028TIP3   OH278574   2.502   3.861   0.368  0.1241 -0.2124  0.2144
19028TIP3    H178575   2.468   3.950   0.357 -2.1153 -1.0445  0.0888
19028TIP3    H278576   2.547   3.862   0.452 -0.7899  0.7949  0.7058
19029TIP3   OH278577   3.599   4.875   0.282 -0.4739 -1.0151 -0.8436
19029TIP3    H178578   3.505   4.890   0.288 -0.5808 -1.3171 -1.6426
19029TIP3    H278579   3.607   4.789   0.239  0.1642 -0.8750 -1.0149
19030TIP3   OH278580   2.830   5.940  13.569  0.2030 -0.7132 -0.4717
19030TIP3    H178581   2.920   5.965  13.591 -0.2396 -0.1448  0.6867
19030TIP3    H278582   2.832   5.844  13.566  0.7727 -0.7157 -0.1427
19031TIP3   OH278583   5.592   6.549  11.409  0.2208  0.4752 -0.2373
19031TIP3    H178584   5.541   6.620  11.371 -0.8802  0.4469  1.1639
19031TIP3    H278585   5.640   6.590  11.481  0.3831  0.0212 -0.0862
19032TIP3   OH278586   5.523   5.901   3.636 -0.1539 -0.3444 -0.1610
19032TIP3    H178587   5.483   5.895   3.723  0.2441  1.5588  0.1688
19032TIP3    H278588   5.604   5.851   3.643 -0.4300 -0.7133  0.3877
19033TIP3   OH278589   4.128   2.660   3.951 -0.0774 -0.2622  0.3570
19033TIP3    H178590   4.196   2.609   3.994  0.7217  0.8583  0.4528
19033TIP3    H278591   4.047   2.636   3.995  0.5135 -0.2831  1.4307
19034TIP3   OH278592   4.764   4.396   4.026 -0.0984 -0.0494  0.2798
19034TIP3    H178593   4.813   4.462   3.975 -0.1040 -0.8455 -0.7842
19034TIP3    H278594   4.677   4.395   3.986 -1.4165  2.2127  2.9243
19035TIP3   OH278595   3.310   3.658  11.277  0.4075  0.0427 -0.3226
19035TIP3    H178596   3.320   3.752  11.290 -0.3999  0.4079 -2.1733
19035TIP3    H278597   3.222   3.648  11.239  0.9950 -1.3215 -1.3640
19036TIP3   OH278598   3.403   5.511   2.757  0.1545  0.0905  0.4228
19036TIP3    H178599   3.445   5.513   2.670 -0.3575  0.5161  0.1832
19036TIP3    H278600   3.398   5.418   2.779 -1.8179 -0.1673 -1.0303
19037TIP3   OH278601   3.710   3.524  13.910 -0.1235 -0.3471  0.2456
19037TIP3    H178602   3.631   3.572  13.886  0.2623  0.4059  0.4576
19037TIP3    H278603   3.680   3.455  13.969 -0.5011  0.4760  1.0081
19038TIP3   OH278604   2.416   0.546   1.819 -0.4359  0.1189  0.1258
19038TIP3    H178605   2.508   0.527   1.799 -0.5153  0.0592 -0.1687
19038TIP3    H278606   2.403   0.636   1.788 -0.4580  0.1515  0.2293
19039TIP3   OH278607   4.779   3.026   3.615  1.0097 -0.1490 -0.7257
19039TIP3    H178608   4.711   3.077   3.571 -0.3935  0.1442  1.6778
19039TIP3    H278609   4.776   2.941   3.573 -0.6855 -0.0478 -0.8538
19040TIP3   OH278610   6.182   3.977   2.286 -0.1901 -0.1218 -0.6202
19040TIP3    H178611   6.088   3.995   2.291  0.0875  1.0874  0.4373
19040TIP3    H278612   6.204   3.939   2.371  0.2494 -0.5446 -0.9217
19041TIP3   OH278613   2.154   0.760   0.336 -0.6872 -0.6858  0.1236
19041TIP3    H178614   2.136   0.854   0.341 -1.8857 -0.9829  2.0257
19041TIP3    H278615   2.133   0.728   0.424 -0.2732 -2.7247 -0.5132
19042TIP3   OH278616   1.982   6.799   6.401 -0.3765 -0.4834 -0.3069
19042TIP3    H178617   2.067   6.839   6.382 -0.7462  0.8670  0.8330
19042TIP3    H278618   1.926   6.872   6.429 -1.2526 -1.6911  1.1973
19043TIP3   OH278619   4.416   2.403   3.536  0.3053  0.4437  0.6582
19043TIP3    H178620   4.482   2.449   3.484 -0.5356  1.1553  0.2164
19043TIP3    H278621   4.467   2.356   3.602  1.2709  0.8463  0.2163
19044TIP3   OH278622   0.777   3.228  17.174  0.3277 -0.6184 -0.8129
19044TIP3    H178623   0.867   3.198  17.166 -0.1881 -2.2918 -0.5855
19044TIP3    H278624   0.749   3.247  17.084  1.4354  1.6137 -0.7339
19045TIP3   OH278625   1.001   0.957   3.322 -0.6810  0.1882 -0.5261
19045TIP3    H178626   1.073   0.948   3.385 -0.3848 -2.3361 -1.1490
19045TIP3    H278627   0.941   0.885   3.345 -1.6151  0.5471 -1.7970
19046TIP3   OH278628   2.897   2.889   6.357  0.9166  0.0202  0.9516
19046TIP3    H178629   2.960   2.819   6.339 -0.6520 -1.2018  0.0744
19046TIP3    H278630   2.844   2.856   6.429 -1.4191 -0.8055 -1.0620
19047TIP3   OH278631   3.151   4.263   4.110  0.0996 -0.4864 -0.3169
19047TIP3    H178632   3.229   4.283   4.058  1.0110 -0.9763  0.8282
19047TIP3    H278633   3.138   4.340   4.165 -0.3067 -0.3439 -0.6176
19048TIP3   OH278634   1.579   3.536   5.730  1.0442 -0.1709  0.1020
19048TIP3    H178635   1.549   3.462   5.783  0.6942  0.4746  0.8218
19048TIP3    H278636   1.498   3.577   5.698  1.2632 -1.3353 -2.0562
19049TIP3   OH278637   1.295   5.160  16.417 -0.5716 -0.0726 -0.4933
19049TIP3    H178638   1.253   5.104  16.352 -1.9059 -0.0313  0.3281
19049TIP3    H278639   1.389   5.142  16.406 -0.9350 -2.1266 -0.5645
19050TIP3   OH278640   6.243   2.267  13.700  0.0703 -0.3727 -0.8698
19050TIP3    H178641   6.329   2.253  13.662 -0.0009  1.2859 -1.6937
19050TIP3    H278642   6.259   2.318  13.780 -0.2642  1.3958 -1.9132
19051TIP3   OH278643   3.399   4.582  11.555 -0.2766  0.5041 -0.0845
19051TIP3    H178644   3.324   4.602  11.611  1.0435  0.2477  1.8342
19051TIP3    H278645   3.427   4.667  11.521  0.9186  1.1352  2.3191
19052TIP3   OH278646   0.920   2.812  13.168  0.1615 -0.2040 -0.2816
19052TIP3    H178647   0.879   2.777  13.089  0.4413 -1.8433  0.2756
19052TIP3    H278648   0.909   2.744  13.234  0.3028  0.9656  0.9902
19053TIP3   OH278649   1.186   0.730  13.506  0.2117  0.1908  0.7171
19053TIP3    H178650   1.154   0.714  13.595 -2.1301  0.8559  0.0195
19053TIP3    H278651   1.276   0.697  13.507 -0.0495 -0.5494  3.0957
19054TIP3   OH278652   5.936   0.524   2.782  0.3242 -0.0746 -0.1385
19054TIP3    H178653   5.978   0.542   2.866  0.5046 -3.9665  0.7067
19054TIP3    H278654   6.009   0.505   2.723  0.0990  0.9464 -0.7613
19055TIP3   OH278655   4.200   6.107  16.608  0.1522 -0.4018 -0.0774
19055TIP3    H178656   4.231   6.183  16.560  2.2576  1.0955  3.4646
19055TIP3    H278657   4.273   6.045  16.605 -0.5756 -1.2289 -0.7685
19056TIP3   OH278658   6.771   5.401  16.563 -0.5605  0.2924 -0.0090
19056TIP3    H178659   6.702   5.443  16.510 -0.6003  0.0632 -0.1370
19056TIP3    H278660   6.844   5.462  16.558 -0.0792 -0.3783 -1.4790
19057TIP3   OH278661   0.775   2.015   5.120 -0.0773  0.3785 -0.8233
19057TIP3    H178662   0.844   1.949   5.106 -0.0333  0.6006 -1.6981
19057TIP3    H278663   0.702   1.965   5.158  0.0067 -0.1519 -1.3435
19058TIP3   OH278664   3.150   4.662   3.567 -0.0208 -0.1284 -0.4164
19058TIP3    H178665   3.209   4.601   3.612  1.2116 -0.4177 -2.3792
19058TIP3    H278666   3.208   4.715   3.513 -1.4637  0.4324 -1.4226
19059TIP3   OH278667   2.352   1.112   4.507 -0.5452  0.2074 -0.2903
19059TIP3    H178668   2.338   1.055   4.583  0.9119  0.0066 -0.1479
19059TIP3    H278669   2.429   1.163   4.531 -0.7838  0.9719 -1.1626
19060TIP3   OH278670   2.608   1.919  13.395  0.4128 -0.2678 -0.0739
19060TIP3    H178671   2.529   1.938  13.345 -0.1908 -1.5374  0.3723
19060TIP3    H278672   2.589   1.949  13.483  0.2009 -1.1182  0.1713
19061TIP3   OH278673   3.202   2.221  12.722 -0.1026  0.1427 -0.3055
19061TIP3    H178674   3.234   2.131  12.710  0.5967  0.3143  0.2334
19061TIP3    H278675   3.126   2.211  12.780  1.7330  0.1473  2.2205
19062TIP3   OH278676   6.779   5.586   2.282 -0.0452  0.1559  0.2437
19062TIP3    H178677   6.796   5.498   2.316 -1.0179 -0.3682 -0.5882
19062TIP3    H278678   6.692   5.580   2.243  1.0889  0.6282 -2.5414
19063TIP3   OH278679   4.352   0.669   3.416  0.0434 -0.0421 -0.1094
19063TIP3    H178680   4.304   0.649   3.335  1.4701  0.4243 -1.0987
19063TIP3    H278681   4.286   0.666   3.485 -0.9951 -1.5361 -1.1465
19064TIP3   OH278682   4.190   3.206  11.460 -0.0813 -0.0678 -0.1633
19064TIP3    H178683   4.247   3.131  11.446 -1.4073 -1.5576  2.0459
19064TIP3    H278684   4.197   3.224  11.554 -0.1950  2.2492 -0.5601
19065TIP3   OH278685   0.912   3.766  16.086 -0.0986 -0.8846 -0.2236
19065TIP3    H178686   1.001   3.773  16.119  0.4845  0.2653 -2.0070
19065TIP3    H278687   0.922   3.751  15.992 -1.8072  0.0735 -0.5753
19066TIP3   OH278688   4.095   1.863   4.540  0.4351  0.3360  0.0986
19066TIP3    H178689   4.107   1.945   4.589 -0.7203  1.0850 -0.8518
19066TIP3    H278690   4.104   1.888   4.448  0.3900 -0.6687 -0.1824
19067TIP3   OH278691   0.048   6.597   3.115 -0.0802  0.1339 -0.4825
19067TIP3    H178692   0.141   6.574   3.120  0.0866  1.2625  2.3957
19067TIP3    H278693   0.046   6.672   3.055  1.1066  1.2163  0.7954
19068TIP3   OH278694   3.192   5.696  16.549  0.2570 -0.0229  0.5741
19068TIP3    H178695   3.168   5.652  16.631 -2.6525 -0.5016 -0.4942
19068TIP3    H278696   3.113   5.693  16.496  2.3030 -0.4399 -2.6009
19069TIP3   OH278697   3.721   5.945   3.799  0.3690 -0.1217  0.3149
19069TIP3    H178698   3.641   5.990   3.772  0.8669  1.5827  1.6410
19069TIP3    H278699   3.778   5.950   3.722  0.0045  0.5263  0.0850
19070TIP3   OH278700   4.235   4.652   2.757 -0.2745  0.1252  0.9324
19070TIP3    H178701   4.168   4.665   2.690 -1.9704 -0.0042  2.5526
19070TIP3    H278702   4.242   4.557   2.767 -0.4312  0.1468  1.2927
19071TIP3   OH278703   2.658   3.278  11.288  0.6586 -0.4705  0.0336
19071TIP3    H178704   2.726   3.272  11.355 -0.7220  0.8102  1.5812
19071TIP3    H278705   2.577   3.291  11.337 -0.3213  0.9001 -1.8998
19072TIP3   OH278706   4.522   0.969   1.775 -0.2520  0.7459 -0.7788
19072TIP3    H178707   4.570   0.941   1.853 -0.2466  1.6074 -0.4724
19072TIP3    H278708   4.430   0.973   1.804 -0.4732 -0.5755 -1.2726
19073TIP3   OH278709   3.066   3.181  16.115  0.1541 -0.3785 -0.8208
19073TIP3    H178710   3.063   3.109  16.179 -1.0510  0.7114  0.3788
19073TIP3    H278711   3.019   3.253  16.158  2.0177  1.3902 -1.6864
19074TIP3   OH278712   4.137   1.347   5.181 -0.7360 -0.4300  0.0703
19074TIP3    H178713   4.090   1.391   5.252 -1.4383 -0.3146 -0.4537
19074TIP3    H278714   4.221   1.322   5.219 -0.7297  0.4721  0.6682
19075TIP3   OH278715   5.314   0.490  13.816  0.2259  0.1510 -0.2658
19075TIP3    H178716   5.251   0.433  13.773  0.2259  0.7493 -1.0677
19075TIP3    H278717   5.269   0.574  13.823  0.1835  0.0406  1.0135
19076TIP3   OH278718   2.374   1.491   1.795 -0.5285  0.2176 -0.0023
19076TIP3    H178719   2.332   1.506   1.711 -1.1355  1.6586  0.5326
19076TIP3    H278720   2.402   1.400   1.793  0.9519  0.6831 -2.4251
19077TIP3   OH278721   2.138   2.076   1.746  0.4493  0.1512  0.5440
19077TIP3    H178722   2.058   2.069   1.694 -0.5970  0.1513  2.1323
19077TIP3    H278723   2.200   2.018   1.702 -0.5109 -0.0703 -0.5318
19078TIP3   OH278724   6.313   4.481   3.091 -0.9046 -0.3287 -0.0740
19078TIP3    H178725   6.345   4.513   3.175  0.3485 -1.7666  0.0274
19078TIP3    H278726   6.335   4.387   3.091 -4.4386 -1.2191 -0.3316
19079TIP3   OH278727   2.554   3.685  14.184  0.3112  0.0984  0.3066
19079TIP3    H178728   2.545   3.670  14.278  0.4077  0.6464  0.4091
19079TIP3    H278729   2.590   3.774  14.177  2.7569 -0.9040 -0.1731
19080TIP3   OH278730   0.707   1.547  16.920  0.0507  0.1288 -0.2847
19080TIP3    H178731   0.773   1.479  16.906  0.4491  0.4362  0.0859
19080TIP3    H278732   0.623   1.501  16.910  0.3223 -0.1943 -1.0722
19081TIP3   OH278733   3.589   4.324   0.319  0.3677 -0.4621  0.3373
19081TIP3    H178734   3.657   4.269   0.280  0.4173 -0.0751 -0.1261
19081TIP3    H278735   3.625   4.351   0.404  1.1654  0.4580 -0.2857
19082TIP3   OH278736   2.125   3.804   0.039 -0.4362 -0.4971 -0.4683
19082TIP3    H178737   2.127   3.899   0.023 -2.4947 -0.4861 -0.8430
19082TIP3    H278738   2.197   3.770  -0.013 -0.8618  0.6717 -1.8861
19083TIP3   OH278739   4.938   5.202  14.610 -0.1674 -0.2009 -0.0790
19083TIP3    H178740   4.984   5.149  14.546 -0.6526 -3.9380  2.4745
19083TIP3    H278741   5.004   5.224  14.675 -0.6970 -0.6694  0.6333
19084TIP3   OH278742   6.078   2.525   0.630 -0.5422 -0.4220 -0.1365
19084TIP3    H178743   6.120   2.501   0.548  1.0740  0.9585  0.2489
19084TIP3    H278744   5.988   2.495   0.621 -1.1199  2.0684 -3.5133
19085TIP3   OH278745   0.887   0.887  16.085 -0.1262  0.5178 -0.1808
19085TIP3    H178746   0.824   0.907  16.016  0.5926  1.6136 -0.5364
19085TIP3    H278747   0.919   0.799  16.065 -0.9204  0.2867 -0.4595
19086TIP3   OH278748   5.737   4.721   5.700 -0.0949  0.7583 -0.2199
19086TIP3    H178749   5.726   4.804   5.747 -2.2600 -0.4458  1.4653
19086TIP3    H278750   5.703   4.739   5.612 -0.8538  1.5736  0.2272
19087TIP3   OH278751   3.979   3.950  12.893  0.5252  0.6107  0.1000
19087TIP3    H178752   3.974   4.026  12.834 -0.4116  2.6206  2.6416
19087TIP3    H278753   4.049   3.973  12.954  0.0566 -0.4354  1.0420
19088TIP3   OH278754   4.661   1.166  12.119 -0.1360  0.4317 -0.8202
19088TIP3    H178755   4.692   1.143  12.207 -0.5761  0.1845 -0.7282
19088TIP3    H278756   4.569   1.142  12.119  0.0331 -0.2458 -1.5809
19089TIP3   OH278757   1.898   5.685   4.273 -0.0607 -0.0282  0.2772
19089TIP3    H178758   1.905   5.780   4.281 -0.8873 -0.0973  2.0166
19089TIP3    H278759   1.867   5.656   4.359  0.8978 -1.9413  0.0037
19090TIP3   OH278760   3.431   4.857  11.428  0.2847  0.0854 -0.0397
19090TIP3    H178761   3.527   4.851  11.424  0.4076  2.1600 -0.9949
19090TIP3    H278762   3.414   4.913  11.503 -0.2257 -0.9796  0.6417
19091TIP3   OH278763   2.284   3.207   4.648  0.1194  0.5756 -0.2582
19091TIP3    H178764   2.215   3.257   4.693 -1.2179 -0.6827 -0.8387
19091TIP3    H278765   2.236   3.140   4.598  1.6821  0.7059 -1.9935
19092TIP3   OH278766   1.736   1.081  17.044  0.2524 -0.5359 -0.2597
19092TIP3    H178767   1.715   0.994  17.078  0.5710 -0.3728  0.3550
19092TIP3    H278768   1.824   1.100  17.077  1.0186 -0.8341 -2.0983
19093TIP3   OH278769   4.318   0.945   3.814  0.5340 -0.3969  0.5216
19093TIP3    H178770   4.232   0.903   3.816  0.5596 -0.4402  0.7766
19093TIP3    H278771   4.310   1.015   3.749  0.3744 -0.5471  0.3790
19094TIP3   OH278772   6.670   1.363  14.153 -0.4590  0.1294 -0.3626
19094TIP3    H178773   6.613   1.379  14.228 -2.0274 -2.6504 -0.8861
19094TIP3    H278774   6.624   1.401  14.078 -0.5774 -0.1675 -0.4425
19095TIP3   OH278775   2.775   1.279  17.257 -0.3535  0.5132  0.0441
19095TIP3    H178776   2.696   1.314  17.299 -0.1188  0.6250  0.4046
19095TIP3    H278777   2.746   1.247  17.172 -0.3531  2.7217 -0.8139
19096TIP3   OH278778   0.310   2.819   1.364  0.1088  0.1176  0.1257
19096TIP3    H178779   0.233   2.766   1.344 -0.0987  0.3207  0.3892
19096TIP3    H278780   0.374   2.756   1.399 -0.1773  0.0590  0.5478
19097TIP3   OH278781   6.816   1.092  11.044  0.5612  0.4148  0.5187
19097TIP3    H178782   6.899   1.047  11.024  0.9908 -0.0575  3.1687
19097TIP3    H278783   6.754   1.021  11.057 -0.1603  0.7614 -0.9458
19098TIP3   OH278784   5.210   1.904   2.750 -0.1724  0.2601  0.0160
19098TIP3    H178785   5.118   1.879   2.741 -0.3461  0.9877 -0.1911
19098TIP3    H278786   5.224   1.972   2.685  0.1813  1.0507  0.8995
19099TIP3   OH278787   1.910   0.975   0.765  0.0663  0.0228  0.1280
19099TIP3    H178788   1.836   0.982   0.825 -0.9906 -0.3534 -1.1037
19099TIP3    H278789   1.896   1.045   0.701  0.9455  0.1491  0.0706
19100TIP3   OH278790   0.266   3.910  13.494  0.4343 -0.4701 -0.5196
19100TIP3    H178791   0.173   3.928  13.480  0.2584 -0.4635  0.5937
19100TIP3    H278792   0.310   3.989  13.462 -0.1413  0.7396  1.5672
19101TIP3   OH278793   6.394   1.156  14.227 -0.4223 -0.0213  0.2402
19101TIP3    H178794   6.327   1.177  14.162  1.4245  1.7405 -1.1142
19101TIP3    H278795   6.409   1.062  14.216 -2.0021 -0.2668 -0.0312
19102TIP3   OH278796   2.105   3.132  16.666 -0.0980 -0.0928 -0.4202
19102TIP3    H178797   2.188   3.151  16.709 -0.1296  2.5732 -1.4417
19102TIP3    H278798   2.042   3.124  16.737  0.7684 -0.7849  0.2826
19103TIP3   OH278799   2.294   6.755   4.874 -0.5612  0.1715  0.3482
19103TIP3    H178800   2.248   6.689   4.822 -1.6721  0.7187  0.6250
19103TIP3    H278801   2.375   6.711   4.901 -1.5890 -1.3071  1.0917
19104TIP3   OH278802   0.655   6.117   4.396  0.0972 -0.2588  0.4993
19104TIP3    H178803   0.593   6.142   4.464 -0.4267 -0.6427  0.1703
19104TIP3    H278804   0.690   6.032   4.425 -0.2372 -0.4932  0.2170
19105TIP3   OH278805   4.052   2.960  12.854 -0.3179 -0.0986  0.4118
19105TIP3    H178806   3.973   3.002  12.889  0.0907  2.1154 -1.1791
19105TIP3    H278807   4.022   2.875  12.820 -1.7733  0.2027  0.9439
19106TIP3   OH278808   2.509   5.856  14.679  0.3947 -0.2087 -0.3168
19106TIP3    H178809   2.508   5.930  14.739 -1.1370 -0.2848 -0.2379
19106TIP3    H278810   2.419   5.824  14.677  0.3886 -0.1909 -2.6554
19107TIP3   OH278811   4.864   4.769   1.194 -0.0301 -0.1354 -0.4536
19107TIP3    H178812   4.927   4.725   1.138 -0.4585 -1.3467 -0.0034
19107TIP3    H278813   4.907   4.773   1.280 -1.0775 -2.1890  0.1959
19108TIP3   OH278814   2.405   4.962  15.760 -0.1712 -0.5379  0.8132
19108TIP3    H178815   2.342   4.889  15.756  0.5576 -1.2749  2.2445
19108TIP3    H278816   2.483   4.929  15.715  0.5428 -1.0599  2.4002
19109TIP3   OH278817   2.544   1.223  16.210  0.3461  0.5999  0.8559
19109TIP3    H178818   2.600   1.189  16.279  0.8788  2.1638  1.2201
19109TIP3    H278819   2.554   1.318  16.216 -0.8033  0.8125 -0.3679
19110TIP3   OH278820   1.259   0.003   5.543  0.6048 -0.1277 -0.1154
19110TIP3    H178821   1.273  -0.047   5.624  0.1529  0.3044  0.2352
19110TIP3    H278822   1.265   0.095   5.571  1.8730  0.0093 -0.8334
19111TIP3   OH278823   0.645   0.165  14.418  0.2755 -0.1225  0.7846
19111TIP3    H178824   0.737   0.142  14.428  0.4271  0.4604  0.7716
19111TIP3    H278825   0.638   0.251  14.460  0.0992  0.6012 -0.7266
19112TIP3   OH278826   3.687   4.023  14.854 -0.0661  0.5141 -0.0163
19112TIP3    H178827   3.627   4.090  14.822 -0.9661 -0.7385 -0.9983
19112TIP3    H278828   3.718   3.978  14.775 -1.7205 -2.1047  0.7934
19113TIP3   OH278829   4.388   1.397  15.729 -0.2395 -0.3301 -0.0173
19113TIP3    H178830   4.379   1.430  15.640 -0.9933 -1.1907 -0.2730
19113TIP3    H278831   4.299   1.377  15.757 -0.2728  2.3142  1.8879
19114TIP3   OH278832   1.842   6.093   2.143 -0.3592 -0.5151 -0.1919
19114TIP3    H178833   1.807   6.167   2.193 -1.7695 -1.2978 -0.0115
19114TIP3    H278834   1.932   6.118   2.124 -0.3603  0.5955  1.1766
19115TIP3   OH278835   3.440   0.354  15.937 -0.1342  0.0260 -0.6680
19115TIP3    H178836   3.503   0.376  16.006  0.7397 -2.0097 -0.8020
19115TIP3    H278837   3.475   0.394  15.858 -0.3390  1.0607 -0.2408
19116TIP3   OH278838   4.200   1.170   1.296  0.2516 -0.6960  0.0758
19116TIP3    H178839   4.107   1.187   1.309  0.2240 -2.0698  1.8998
19116TIP3    H278840   4.223   1.108   1.366  2.8576  0.7643  0.5899
19117TIP3   OH278841   1.708   5.476  12.217 -0.1145  0.6500  0.1469
19117TIP3    H178842   1.664   5.543  12.165 -0.6185 -0.1985 -0.5262
19117TIP3    H278843   1.801   5.497  12.209 -0.1544  0.3275 -1.3978
19118TIP3   OH278844   1.806   4.883  11.903 -0.6529  0.6771 -0.3427
19118TIP3    H178845   1.804   4.959  11.961 -0.8511 -0.3694  1.0391
19118TIP3    H278846   1.887   4.893  11.854 -1.0271  2.1564 -0.6936
19119TIP3   OH278847   5.522   0.468  11.471 -0.3459  0.6971  0.4847
19119TIP3    H178848   5.611   0.466  11.436 -0.2866  0.5740  0.6402
19119TIP3    H278849   5.527   0.417  11.552 -0.8271 -0.3220 -0.1291
19120TIP3   OH278850   5.301   0.230   1.807 -0.4426  0.1382  0.2895
19120TIP3    H178851   5.263   0.269   1.729 -0.0753  1.4725  0.7734
19120TIP3    H278852   5.226   0.187   1.851 -0.4589 -1.5319 -1.3039
19121TIP3   OH278853   1.687   0.473   6.380  0.2076  0.7695  0.3855
19121TIP3    H178854   1.768   0.492   6.427  0.3856 -0.0121  0.4045
19121TIP3    H278855   1.622   0.458   6.449  0.9339 -2.4101  0.4557
19122TIP3   OH278856   6.709   2.773   3.613 -0.4320  0.0792  0.7690
19122TIP3    H178857   6.663   2.852   3.582  0.2102 -0.0375 -0.5413
19122TIP3    H278858   6.799   2.785   3.581  0.0185 -0.5123  1.8093
19123TIP3   OH278859   2.507   3.309  16.593 -0.2810  0.1322 -0.3265
19123TIP3    H178860   2.425   3.280  16.553 -0.6986  1.3897 -0.3928
19123TIP3    H278861   2.574   3.253  16.553 -0.7098  1.2384 -2.6971
19124TIP3   OH278862   0.259   4.581  12.463  0.0185 -0.4939  0.1002
19124TIP3    H178863   0.280   4.623  12.379  0.6832 -1.9787 -0.4894
19124TIP3    H278864   0.184   4.525  12.443 -0.3816 -0.1734  0.7085
19125TIP3   OH278865   1.527   6.367  14.247 -0.1045 -0.1588  0.2190
19125TIP3    H178866   1.486   6.299  14.300  0.5398  0.8156  1.9953
19125TIP3    H278867   1.453   6.412  14.205 -0.6592 -0.5105  0.8110
19126TIP3   OH278868   1.460   0.645   4.217  0.8299 -0.2812 -0.0260
19126TIP3    H178869   1.496   0.621   4.132  0.3333  1.5216 -0.7704
19126TIP3    H278870   1.437   0.738   4.208  1.6266  0.1850  2.3620
19127TIP3   OH278871   3.690   1.786   4.500 -0.0987 -0.1471 -0.6453
19127TIP3    H178872   3.734   1.709   4.464 -0.4558 -0.4395 -0.4521
19127TIP3    H278873   3.691   1.850   4.429 -0.9204 -0.7700 -1.2191
19128TIP3   OH278874   0.980   4.438   2.674 -0.1228 -0.2551 -0.4371
19128TIP3    H178875   0.893   4.402   2.695 -0.9116  2.1627  0.6376
19128TIP3    H278876   1.037   4.402   2.741 -0.6024 -0.6774 -0.2497
19129TIP3   OH278877   6.284   2.041   2.848 -0.1174  0.1725  0.5636
19129TIP3    H178878   6.361   2.097   2.849  0.6707 -0.8963  1.0408
19129TIP3    H278879   6.295   1.986   2.771  0.1491 -0.7106  1.2178
19130TIP3   OH278880   5.211   3.466  12.453 -0.4462 -0.3346 -0.4398
19130TIP3    H178881   5.169   3.460  12.367 -0.8274 -1.8594 -0.1621
19130TIP3    H278882   5.267   3.389  12.458  3.3388  2.2116 -1.2405
19131TIP3   OH278883   0.592   0.703  12.284  0.0427  0.0185  0.2350
19131TIP3    H178884   0.563   0.767  12.219  0.0508 -0.7142 -0.4893
19131TIP3    H278885   0.571   0.618  12.246 -0.1369 -0.4168  1.2752
19132TIP3   OH278886   0.351   4.703  14.459 -0.0133 -0.1187  0.7460
19132TIP3    H178887   0.430   4.679  14.412 -0.9073 -1.7286  0.0181
19132TIP3    H278888   0.368   4.678  14.550  0.1991 -0.7614  0.5300
19133TIP3   OH278889   3.478   6.598  11.222 -0.2655 -0.0703 -0.5141
19133TIP3    H178890   3.494   6.595  11.316  0.0917 -0.8709 -0.5977
19133TIP3    H278891   3.563   6.577  11.182 -0.6867 -0.8561 -1.0034
19134TIP3   OH278892   3.324   2.028   2.631  0.2013  0.1710 -0.8113
19134TIP3    H178893   3.394   2.036   2.566 -0.3400 -0.5861 -1.4973
19134TIP3    H278894   3.326   2.111   2.678  0.4876  0.8022 -1.9112
19135TIP3   OH278895   4.387   6.606   3.482  0.1770 -0.0479  0.1709
19135TIP3    H178896   4.445   6.669   3.440  0.7788 -0.7477 -0.0506
19135TIP3    H278897   4.392   6.527   3.427 -0.8143 -0.1900  0.2635
19136TIP3   OH278898   2.777   3.863  12.467 -0.2870  0.6345  0.2864
19136TIP3    H178899   2.868   3.842  12.486 -0.2862 -0.4151 -0.7877
19136TIP3    H278900   2.781   3.932  12.401 -0.2566  0.4125  0.0521
19137TIP3   OH278901   6.139   0.236  15.833 -0.0179  0.2232  0.4710
19137TIP3    H178902   6.050   0.202  15.824  0.9182 -3.0161  2.2933
19137TIP3    H278903   6.134   0.298  15.906 -0.5786 -0.8519  1.3664
19138TIP3   OH278904   0.923   5.145  17.192 -0.1140 -0.8240  0.0029
19138TIP3    H178905   0.878   5.153  17.108  0.0819  0.8600  0.0495
19138TIP3    H278906   0.872   5.079  17.240 -1.6090 -0.0908 -0.5415
19139TIP3   OH278907   2.965   2.295  11.279  0.1323 -0.0935  0.0948
19139TIP3    H178908   2.888   2.246  11.253  0.8072 -1.6611  1.0144
19139TIP3    H278909   2.950   2.318  11.370  0.6392 -0.1657  0.1998
19140TIP3   OH278910   2.661   4.775   2.992  0.7268 -0.1468  0.1532
19140TIP3    H178911   2.585   4.821   3.027  1.8139  0.0103  2.3733
19140TIP3    H278912   2.716   4.844   2.954  0.8156  0.0135  0.5672
19141TIP3   OH278913   0.498   0.429   2.738 -0.8611  0.1778  0.5993
19141TIP3    H178914   0.412   0.402   2.707 -0.2881 -2.6301  1.3372
19141TIP3    H278915   0.545   0.457   2.659 -2.5034  2.0118  0.2347
19142TIP3   OH278916   4.341   3.566  16.701 -0.0384  0.0737  1.1272
19142TIP3    H178917   4.436   3.568  16.700 -0.0398 -0.1326  0.1304
19142TIP3    H278918   4.319   3.482  16.742  0.2304 -1.1197 -1.1145
19143TIP3   OH278919   4.592   4.445   2.082  0.4679  0.0028  0.2430
19143TIP3    H178920   4.560   4.359   2.055  0.7891 -0.4300  1.2048
19143TIP3    H278921   4.612   4.490   2.000 -1.3193 -0.2087 -0.3344
19144TIP3   OH278922   5.706   4.489   5.981  0.0146 -0.4367  0.8382
19144TIP3    H178923   5.732   4.405   5.942  0.5766 -0.4366  1.1960
19144TIP3    H278924   5.748   4.488   6.067 -2.0297 -0.8884  1.8669
19145TIP3   OH278925   3.966   5.922   1.055 -0.7966 -0.2611  0.1572
19145TIP3    H178926   3.987   5.996   1.113  0.5311  2.5022 -3.6128
19145TIP3    H278927   3.871   5.919   1.055 -0.8499  0.8231  1.0944
19146TIP3   OH278928   2.205   3.568  13.124  0.2850  0.1360 -0.2945
19146TIP3    H178929   2.148   3.506  13.170 -0.2059  1.4276  0.8674
19146TIP3    H278930   2.264   3.512  13.073 -1.0910 -1.2515 -0.4218
19147TIP3   OH278931   1.460   3.979  15.139  0.3768 -0.4647 -0.0100
19147TIP3    H178932   1.469   4.074  15.145  0.3240 -0.4402 -0.3102
19147TIP3    H278933   1.446   3.951  15.229 -0.5430 -0.0917 -0.0214
19148TIP3   OH278934   5.116   5.655  16.879 -0.6255 -0.1987  0.1421
19148TIP3    H178935   5.144   5.638  16.969 -2.2514 -0.9010  0.5462
19148TIP3    H278936   5.188   5.624  16.825 -0.8017 -2.4169  1.1244
19149TIP3   OH278937   3.560   2.738  16.562 -0.4211 -0.0840  0.1213
19149TIP3    H178938   3.515   2.691  16.632 -2.1927  0.7052 -0.4678
19149TIP3    H278939   3.494   2.797  16.525  0.6650  0.0289 -1.7476
19150TIP3   OH278940   6.225   3.941   5.892 -0.0429  0.1188 -0.2953
19150TIP3    H178941   6.184   3.856   5.905  1.1995 -0.2055  1.7079
19150TIP3    H278942   6.239   3.947   5.797 -0.4728 -1.7358 -0.4890
19151TIP3   OH278943   4.167   6.316  16.884  0.0307 -0.7098  0.1131
19151TIP3    H178944   4.139   6.232  16.919 -0.2750 -0.1016  1.3670
19151TIP3    H278945   4.255   6.299  16.850  0.0238 -1.5038  0.4687
19152TIP3   OH278946   0.787   2.823   0.880 -0.1692 -0.1733  0.5738
19152TIP3    H178947   0.860   2.868   0.923 -0.0464 -1.8560  2.1598
19152TIP3    H278948   0.724   2.807   0.950 -1.4529 -0.0136 -0.5130
19153TIP3   OH278949   6.528   3.114   4.485 -0.1331 -0.1386  0.0891
19153TIP3    H178950   6.552   3.174   4.556 -1.1862  0.2401  0.1259
19153TIP3    H278951   6.603   3.117   4.425  0.5358 -0.0545  0.9166
19154TIP3   OH278952   2.897   4.571  11.265  0.6610  0.2671 -0.1646
19154TIP3    H178953   2.855   4.648  11.227  0.1724  0.2631  0.3520
19154TIP3    H278954   2.840   4.498  11.241  0.8957  0.1263 -0.2962
19155TIP3   OH278955   3.024   1.628  12.686  0.6495  0.3001 -0.1482
19155TIP3    H178956   2.987   1.576  12.757  1.5930 -0.3309 -0.1217
19155TIP3    H278957   2.947   1.655  12.635 -0.2245  2.5409  2.2824
19156TIP3   OH278958   3.957   6.344  11.538  0.9667  0.0595  0.0743
19156TIP3    H178959   3.919   6.431  11.522 -0.9100 -0.1248  3.0527
19156TIP3    H278960   3.901   6.285  11.489 -0.3616  0.1794  1.3820
19157TIP3   OH278961   4.062   1.145   1.047  0.6137  0.5636  0.0516
19157TIP3    H178962   4.076   1.166   1.139 -1.0512 -2.5501  1.1069
19157TIP3    H278963   4.133   1.085   1.024 -0.0412 -0.1649 -0.1174
19158TIP3   OH278964   4.041   5.662   1.023 -0.4754 -0.7658  0.3305
19158TIP3    H178965   3.991   5.630   1.099 -1.7139  0.7080  0.1664
19158TIP3    H278966   4.031   5.757   1.027  1.6089 -0.5059 -0.2315
19159TIP3   OH278967   2.398   2.549  15.590  0.2103 -0.1428 -0.0281
19159TIP3    H178968   2.325   2.507  15.636 -0.2540  0.5276 -0.1658
19159TIP3    H278969   2.460   2.571  15.660  0.9106 -1.9459 -0.0477
19160TIP3   OH278970   2.685   4.082  17.065  0.2958  0.0389  0.1579
19160TIP3    H178971   2.613   4.022  17.088  0.6144 -0.1292  0.7206
19160TIP3    H278972   2.651   4.133  16.992  0.5472 -1.8244 -1.2862
19161TIP3   OH278973   4.840   1.474  11.107 -0.5390  0.0076  0.2423
19161TIP3    H178974   4.776   1.455  11.038  0.1546 -1.4683 -0.0037
19161TIP3    H278975   4.792   1.530  11.168 -1.2617  1.0391 -1.2528
19162TIP3   OH278976   2.113   2.811  15.650  0.0991 -0.0441  0.1049
19162TIP3    H178977   2.075   2.852  15.728  2.8170 -1.5509  2.3235
19162TIP3    H278978   2.208   2.823  15.661  0.5593 -0.4329 -2.9232
19163TIP3   OH278979   4.190   2.576   6.311 -0.2760  0.2798  0.0631
19163TIP3    H178980   4.277   2.540   6.330  0.0861  1.3644  0.4972
19163TIP3    H278981   4.135   2.543   6.382 -0.2097 -0.3989 -0.2036
19164TIP3   OH278982   0.584   2.773   3.243 -0.1824 -0.2822  0.7727
19164TIP3    H178983   0.553   2.712   3.310  0.9200  0.0422  1.6037
19164TIP3    H278984   0.527   2.849   3.251 -1.2942 -1.0240  0.0181
19165TIP3   OH278985   0.093   4.063   1.392  0.1863 -0.2225  0.1123
19165TIP3    H178986   0.101   4.155   1.420  1.6553 -0.7611  1.5440
19165TIP3    H278987   0.101   4.066   1.297 -0.6881  1.2337  0.0707
19166TIP3   OH278988   6.577   4.455  13.944 -0.0140  0.1326 -0.0599
19166TIP3    H178989   6.503   4.394  13.940  0.7025 -0.7787  0.2357
19166TIP3    H278990   6.607   4.450  14.035  1.4647 -0.7972 -0.5704
19167TIP3   OH278991   3.704   1.561   5.445  0.2297  0.0757  0.3158
19167TIP3    H178992   3.659   1.477   5.433 -0.2299  0.3595 -0.0042
19167TIP3    H278993   3.640   1.615   5.492 -0.2297  0.8678 -1.1972
19168TIP3   OH278994   4.146   4.577   1.114  0.2888  0.1111  0.0802
19168TIP3    H178995   4.175   4.486   1.123 -2.7148 -1.0851 -1.4775
19168TIP3    H278996   4.069   4.583   1.170 -0.7222  1.0765 -1.3711
19169TIP3   OH278997   1.302   6.710  17.034  0.5986  0.2855  0.3008
19169TIP3    H178998   1.340   6.658  16.962 -0.5872  0.3424 -0.3803
19169TIP3    H278999   1.208   6.695  17.027  0.3437  1.6230  0.8177
19170TIP3   OH279000   2.381   4.011  11.450 -0.0603  0.1950  0.0602
19170TIP3    H179001   2.458   4.062  11.425  0.1604 -1.1963 -2.2445
19170TIP3    H279002   2.308   4.072  11.439  0.1683  0.0098 -2.9673
19171TIP3   OH279003   2.031   5.718   3.073 -0.1526  0.2494 -0.5603
19171TIP3    H179004   1.969   5.663   3.120  0.0542 -0.6041 -1.2811
19171TIP3    H279005   2.093   5.746   3.140 -2.0846  2.2618  0.4453
19172TIP3   OH279006   5.591   3.201   4.126 -0.1596 -0.2028 -0.3075
19172TIP3    H179007   5.515   3.143   4.118 -0.8060  0.5918  0.0885
19172TIP3    H279008   5.665   3.146   4.098 -0.8094 -1.1112 -0.2853
19173TIP3   OH279009   3.352   4.924  14.195 -0.0251  0.3367  0.0459
19173TIP3    H179010   3.374   5.017  14.196 -0.8597  0.5425  0.5206
19173TIP3    H279011   3.418   4.882  14.250 -0.5473  0.8723  1.0942
19174TIP3   OH279012   0.925   3.945   5.164 -0.1343 -0.5327 -0.0160
19174TIP3    H179013   0.899   3.880   5.099 -1.3287 -0.8544  0.7754
19174TIP3    H279014   0.951   4.021   5.112 -0.0683 -1.1500 -0.8970
19175TIP3   OH279015   3.178   3.830  15.482 -0.4947  0.2266  0.3357
19175TIP3    H179016   3.244   3.771  15.520  1.6221  1.1014 -1.9069
19175TIP3    H279017   3.121   3.772  15.431 -0.5393 -0.3106  0.9777
19176TIP3   OH279018   5.337   4.095   0.880 -0.1740  0.0695  0.6036
19176TIP3    H179019   5.359   4.178   0.837 -0.2294 -0.3490 -0.2422
19176TIP3    H279020   5.412   4.077   0.936  0.1271  0.3720  0.3040
19177TIP3   OH279021   4.545   6.070  12.793  0.3782  0.2623 -0.8649
19177TIP3    H179022   4.583   6.092  12.878  0.4487 -0.3500 -0.7361
19177TIP3    H279023   4.482   6.139  12.777  0.1010  0.1836 -0.1422
19178TIP3   OH279024   3.291   5.346   0.881  0.0305  0.1926 -0.0618
19178TIP3    H179025   3.204   5.328   0.846 -0.2425  1.0763  0.1337
19178TIP3    H279026   3.335   5.394   0.811  0.7272 -1.1630 -0.5637
19179TIP3   OH279027   5.247   3.841  11.591 -0.4906 -0.4204 -0.1480
19179TIP3    H179028   5.165   3.800  11.619 -1.1563  0.5716 -0.6318
19179TIP3    H279029   5.246   3.833  11.496  0.0848 -0.6089 -0.1390
19180TIP3   OH279030   4.793   2.624  12.544  0.3590  0.6245 -0.1992
19180TIP3    H179031   4.766   2.597  12.632  0.3062  0.0139 -0.4045
19180TIP3    H279032   4.721   2.596  12.487  0.4278  0.9533 -0.4508
19181TIP3   OH279033   1.889   6.480  14.636  0.4083  0.0532  0.1158
19181TIP3    H179034   1.962   6.540  14.652 -0.1350  1.2211 -1.6472
19181TIP3    H279035   1.928   6.393  14.644  1.8151  0.6579  0.0168
19182TIP3   OH279036   6.367   3.294  16.532 -0.0925 -0.2143  0.5608
19182TIP3    H179037   6.273   3.286  16.513  0.1763 -1.2624 -0.3625
19182TIP3    H279038   6.377   3.256  16.620 -0.6660  0.7521  1.0578
19183TIP3   OH279039   1.753   3.735   2.502  0.1941  0.0062 -0.2041
19183TIP3    H179040   1.831   3.724   2.557  0.7837  2.6104 -0.4328
19183TIP3    H279041   1.788   3.742   2.413  0.0546  4.0241 -0.0475
19184TIP3   OH279042   6.033   1.407   1.014 -0.4121  0.2939  0.1863
19184TIP3    H179043   6.079   1.453   0.944 -2.5102 -0.1588 -1.5550
19184TIP3    H279044   6.097   1.345   1.049  1.1031  1.5271 -0.3536
19185TIP3   OH279045   1.391   1.708  15.926  0.2787  0.5036 -0.1591
19185TIP3    H179046   1.377   1.646  15.855  0.0933 -0.4244  0.6797
19185TIP3    H279047   1.460   1.669  15.980 -2.7658 -1.0867  2.7385
19186TIP3   OH279048   3.514   5.560  13.381  0.4084 -0.6580  0.0731
19186TIP3    H179049   3.538   5.500  13.451  2.1848 -1.2265 -0.9904
19186TIP3    H279050   3.419   5.556  13.377  0.1721  0.5246  3.4347
19187TIP3   OH279051   1.862   1.135   2.469  0.2474 -0.3756 -0.1274
19187TIP3    H179052   1.920   1.061   2.450 -0.1822 -0.5088 -0.9535
19187TIP3    H279053   1.776   1.106   2.438  0.6554  1.6383 -3.3460
19188TIP3   OH279054   0.344   1.781   2.020 -0.4838  0.7191  0.3789
19188TIP3    H179055   0.430   1.788   2.062  0.0906  2.3359 -1.0061
19188TIP3    H279056   0.309   1.698   2.051  1.6861 -0.0784  0.7721
19189TIP3   OH279057   6.127   2.204   0.534 -0.2221  0.4843  0.4636
19189TIP3    H179058   6.152   2.115   0.558 -2.5867 -0.3656 -0.0125
19189TIP3    H279059   6.176   2.222   0.454  0.7219 -0.1595  0.8950
19190TIP3   OH279060   3.941   0.622  13.527  0.2266  0.9542 -0.2025
19190TIP3    H179061   3.990   0.636  13.446  1.6165 -0.4031  0.3792
19190TIP3    H279062   3.999   0.568  13.581 -1.5512  0.0663  0.8605
19191TIP3   OH279063   1.903   0.879  11.330  0.1318  0.2283 -0.1277
19191TIP3    H179064   1.829   0.925  11.291  0.1249  0.1774 -0.1746
19191TIP3    H279065   1.976   0.941  11.326  0.2291  0.0845 -0.5716
19192TIP3   OH279066   2.391   6.318  13.018  0.2244 -0.1029 -0.4511
19192TIP3    H179067   2.471   6.314  12.966  0.0757  2.0873 -0.8964
19192TIP3    H279068   2.324   6.279  12.963  0.7865 -1.0793 -0.4547
19193TIP3   OH279069   4.487   4.785  13.410  0.5914  0.1087  0.2306
19193TIP3    H179070   4.450   4.748  13.329  2.6108 -3.6367  0.9094
19193TIP3    H279071   4.514   4.874  13.385 -2.1014  0.3403 -2.1842
19194TIP3   OH279072   3.590   4.993   2.454 -0.9189  0.5049 -0.6072
19194TIP3    H179073   3.622   4.916   2.501  0.6651  0.1715 -2.1840
19194TIP3    H279074   3.500   4.971   2.430 -0.7397 -0.5348 -0.3653
19195TIP3   OH279075   3.623   5.018  14.027  0.5739 -0.3604 -0.4543
19195TIP3    H179076   3.553   4.962  14.060 -3.1226  3.1853 -1.8520
19195TIP3    H279077   3.676   5.038  14.105  0.1448 -3.1145  0.6268
19196TIP3   OH279078   0.810   1.746  13.297 -0.3703 -0.0403 -0.6205
19196TIP3    H179079   0.744   1.720  13.361 -0.3667  0.5710 -0.3632
19196TIP3    H279080   0.893   1.713  13.332 -0.6070 -1.3423 -1.2468
19197TIP3   OH279081   1.887   1.739  12.182 -0.3461  0.5286 -0.2277
19197TIP3    H179082   1.919   1.696  12.262  1.0269  2.7487  0.4510
19197TIP3    H279083   1.874   1.666  12.121 -0.3286 -1.1033  1.6376
19198TIP3   OH279084   1.730   5.921  14.882 -0.1226  0.2830 -0.1645
19198TIP3    H179085   1.791   5.932  14.955  0.0242  0.1727 -0.2694
19198TIP3    H279086   1.765   5.976  14.813 -0.1072  0.1684 -0.2477
19199TIP3   OH279087   4.373   6.390   5.588 -0.2246  0.2540 -0.3742
19199TIP3    H179088   4.396   6.416   5.677  0.1418  1.2649 -0.7550
19199TIP3    H279089   4.413   6.303   5.577  0.3868  0.4615  0.1825
19200TIP3   OH279090   0.843   0.266   1.828 -0.9281  0.1081 -0.1944
19200TIP3    H179091   0.920   0.321   1.845 -0.6486  0.2318 -1.8534
19200TIP3    H279092   0.879   0.178   1.816 -1.2505 -0.2106  1.0299
19201TIP3   OH279093   1.809   3.921  11.113 -0.2988 -0.4491  0.7959
19201TIP3    H179094   1.763   3.839  11.128  3.1961 -2.5089  0.7608
19201TIP3    H279095   1.787   3.947  11.024 -0.9036 -1.6875  0.5898
19202TIP3   OH279096   3.393   6.707  14.090 -0.0276  0.1234  0.5135
19202TIP3    H179097   3.433   6.752  14.164  0.3616  0.1168  0.3111
19202TIP3    H279098   3.357   6.627  14.127 -1.5506  1.0445  1.0500
19203TIP3   OH279099   3.626   3.062   3.603 -0.2722 -0.1332 -0.0960
19203TIP3    H179100   3.576   3.075   3.683  0.1131  0.8654 -0.0192
19203TIP3    H279101   3.674   2.980   3.617  0.1791  0.2990  0.8827
19204TIP3   OH279102   1.258   4.639   1.220 -0.1200  0.1770 -0.7353
19204TIP3    H179103   1.240   4.555   1.178  2.3201 -1.4452  1.3020
19204TIP3    H279104   1.353   4.648   1.214 -0.1766  1.8835  0.7234
19205TIP3   OH279105   2.693   4.518   4.539 -0.3094  0.0556 -0.2619
19205TIP3    H179106   2.686   4.571   4.618 -0.0600 -1.0238  0.4911
19205TIP3    H279107   2.734   4.437   4.568  1.6063  0.4367 -1.8725
19206TIP3   OH279108   5.949   4.444   0.040 -0.9983 -0.0727 -0.2584
19206TIP3    H179109   5.937   4.516   0.102 -0.6281 -0.6613  0.5104
19206TIP3    H279110   5.864   4.434  -0.002 -1.0097  0.9256 -0.5033
19207TIP3   OH279111   1.886   1.061  16.421 -0.5740 -0.0666  0.1584
19207TIP3    H179112   1.939   1.002  16.474 -0.8001 -0.9841 -0.6311
19207TIP3    H279113   1.825   1.100  16.483 -2.0335 -2.4716  0.2860
19208TIP3   OH279114   0.847   5.164   6.435 -0.2526  0.4759  0.3143
19208TIP3    H179115   0.860   5.203   6.348 -1.2043  1.7863  0.7595
19208TIP3    H279116   0.753   5.152   6.442 -0.1175 -0.2863  0.9022
19209TIP3   OH279117   5.257   4.479  12.057 -0.1027  1.1280 -0.0858
19209TIP3    H179118   5.331   4.479  11.997 -0.7676  0.9030 -0.9075
19209TIP3    H279119   5.274   4.552  12.117  1.4823  0.2173  0.6075
19210TIP3   OH279120   2.299   1.734  15.490 -0.1855  0.2300  0.1915
19210TIP3    H179121   2.291   1.701  15.580  1.0421 -0.7682 -0.0623
19210TIP3    H279122   2.379   1.694  15.456 -0.5485  0.7376 -1.3014
19211TIP3   OH279123   6.651   6.652  12.709  0.4649 -0.0922 -0.0459
19211TIP3    H179124   6.575   6.610  12.670  0.0152  0.0819  0.6239
19211TIP3    H279125   6.686   6.709  12.641  0.7019 -1.0681 -0.7477
19212TIP3   OH279126   6.160   1.326  13.625  0.2588  0.2543  0.7277
19212TIP3    H179127   6.137   1.362  13.539 -0.0587 -3.1165 -0.6505
19212TIP3    H279128   6.243   1.370  13.647 -0.1335  1.8578 -0.8277
19213TIP3   OH279129   3.888   5.682  14.870 -0.1516  0.0681 -0.5454
19213TIP3    H179130   3.966   5.695  14.925  0.5953  1.3579 -1.8716
19213TIP3    H279131   3.923   5.668  14.782 -1.4093  0.0913 -1.0606
19214TIP3   OH279132   1.357   6.634  15.749  0.3602  0.4331 -0.2544
19214TIP3    H179133   1.314   6.555  15.784  2.5085 -0.9798 -0.6800
19214TIP3    H279134   1.311   6.707  15.790 -1.3420 -1.0627  0.5641
19215TIP3   OH279135   3.750   5.463   6.118  0.2636  0.1607  0.4216
19215TIP3    H179136   3.785   5.454   6.206 -0.1793 -1.6687  0.4197
19215TIP3    H279137   3.704   5.381   6.101 -3.4223  2.1631  0.1380
19216TIP3   OH279138   3.321   2.380   0.383  0.0798  0.2802 -0.2539
19216TIP3    H179139   3.314   2.286   0.365 -0.8711  0.2984  0.0177
19216TIP3    H279140   3.317   2.387   0.479  2.0963  0.4457 -0.1481
19217TIP3   OH279141   0.823   0.596   4.320 -0.5592 -0.6733  0.4473
19217TIP3    H179142   0.864   0.594   4.407 -0.2211 -0.3315  0.2947
19217TIP3    H279143   0.870   0.531   4.269 -0.3171 -0.4037  0.3240
19218TIP3   OH279144   6.284   1.131   4.179  0.1423  0.7526 -0.3092
19218TIP3    H179145   6.343   1.113   4.106 -0.6558  0.5455 -0.9151
19218TIP3    H279146   6.313   1.071   4.249  1.0613  1.1267 -0.3601
19219TIP3   OH279147   5.212   5.626   5.966  0.2855  0.8435 -0.4711
19219TIP3    H179148   5.294   5.634   6.014 -0.6469  0.4009  1.2532
19219TIP3    H279149   5.150   5.591   6.030 -0.5880 -1.4007 -2.4372
19220TIP3   OH279150   6.629   5.059  15.466 -0.2477  0.2214  0.3663
19220TIP3    H179151   6.582   4.987  15.508 -1.5044  0.7529 -0.1025
19220TIP3    H279152   6.701   5.017  15.419 -1.6933 -0.8798 -0.9081
19221TIP3   OH279153   3.303   4.018   2.287 -0.2560  0.1406 -0.2589
19221TIP3    H179154   3.278   4.072   2.362 -1.2448 -0.5774 -0.0613
19221TIP3    H279155   3.258   3.935   2.301  0.9444 -0.6032 -0.7575
19222TIP3   OH279156   2.000   0.324   2.059 -0.1046  0.5613 -0.1427
19222TIP3    H179157   1.910   0.290   2.058  0.2174 -0.3189  0.5478
19222TIP3    H279158   2.039   0.288   1.979  0.3093 -0.9416  0.7053
19223TIP3   OH279159   4.436   1.896   1.003 -0.4607 -0.0999  0.2826
19223TIP3    H179160   4.383   1.846   1.064 -0.5408 -0.6815 -0.2571
19223TIP3    H279161   4.502   1.939   1.057 -1.6349  0.8402  0.9987
19224TIP3   OH279162   4.974   5.984   5.746  0.8434 -0.6019  0.1106
19224TIP3    H179163   4.986   6.075   5.773  1.0168 -0.6885  0.3367
19224TIP3    H279164   4.982   5.985   5.651 -1.8495  0.0434 -0.1560
19225TIP3   OH279165   6.363   2.326  14.260  0.4798  0.3773 -0.2333
19225TIP3    H179166   6.427   2.285  14.318 -0.3406 -0.3246  0.1791
19225TIP3    H279167   6.352   2.264  14.188  0.7971  0.8278 -0.6757
19226TIP3   OH279168   0.648   1.693   0.771 -0.2211 -0.2899 -0.0532
19226TIP3    H179169   0.688   1.748   0.838  1.9395 -2.7868  0.8154
19226TIP3    H279170   0.569   1.659   0.811 -0.1386  0.0312  0.3886
19227TIP3   OH279171   4.835   0.234   5.309 -0.5593 -0.2198 -0.3571
19227TIP3    H179172   4.752   0.252   5.265  0.1186  1.0449 -1.1530
19227TIP3    H279173   4.822   0.149   5.350 -2.4383  0.1947 -0.0244
19228TIP3   OH279174   1.012   2.298   3.388 -0.1273  0.3131  0.4564
19228TIP3    H179175   1.032   2.221   3.335 -1.0761  0.0609  0.4522
19228TIP3    H279176   0.994   2.367   3.324  0.1830  0.3992  0.4595
19229TIP3   OH279177   2.672   0.756   3.363 -0.6677 -0.1917 -1.0843
19229TIP3    H179178   2.766   0.746   3.347 -0.8939 -1.6436 -1.6122
19229TIP3    H279179   2.654   0.848   3.344  0.8198  0.3401 -0.0120
19230TIP3   OH279180   2.330   0.739  16.251 -0.1036  0.2928 -0.1779
19230TIP3    H179181   2.243   0.778  16.237 -0.6397 -0.7548  0.1503
19230TIP3    H279182   2.336   0.670  16.185 -0.2451 -0.7786  0.8946
19231TIP3   OH279183   0.965   1.330  12.816 -0.0588  0.1353 -0.2535
19231TIP3    H179184   0.876   1.307  12.843 -0.2570  0.5649 -0.5545
19231TIP3    H279185   1.019   1.256  12.847 -0.5056 -0.0886 -0.0117
19232TIP3   OH279186   5.658   0.899  15.210 -0.1345  0.0759 -0.2638
19232TIP3    H179187   5.694   0.811  15.216  0.0551  0.2360  1.0584
19232TIP3    H279188   5.616   0.902  15.123  1.2147 -0.7808 -0.9558
19233TIP3   OH279189   1.537   5.484   0.866  0.0424 -0.3205 -0.1800
19233TIP3    H179190   1.444   5.462   0.872  0.0078 -0.6171 -1.7477
19233TIP3    H279191   1.582   5.400   0.856  0.6403 -0.3162  2.0941
19234TIP3   OH279192   3.598   4.347   2.298  0.1883 -0.3228 -0.3237
19234TIP3    H179193   3.629   4.429   2.260 -1.6552  0.6529  0.2083
19234TIP3    H279194   3.538   4.312   2.232 -0.5418 -0.2329  0.2803
19235TIP3   OH279195   5.073   4.173   4.839  0.1380 -0.6443 -0.2931
19235TIP3    H179196   5.106   4.116   4.769  1.8687  0.9280 -0.7890
19235TIP3    H279197   5.129   4.250   4.835 -0.0550 -0.3337  2.5435
19236TIP3   OH279198   0.178   0.160  16.589  0.6311 -0.2673 -0.2930
19236TIP3    H179199   0.144   0.071  16.602 -2.5691  0.9826  0.5399
19236TIP3    H279200   0.171   0.201  16.675  1.8820  0.8724 -0.7256
19237TIP3   OH279201   4.573   2.971   1.500  0.4723  0.0285  0.0673
19237TIP3    H179202   4.550   2.981   1.592 -0.9351 -0.6746 -0.2097
19237TIP3    H279203   4.667   2.952   1.501  0.1253 -1.6762  1.4591
19238TIP3   OH279204   1.988   3.205   4.770 -0.7006 -0.3396  0.1678
19238TIP3    H179205   2.000   3.299   4.756 -0.0127 -0.5504 -0.7236
19238TIP3    H279206   1.914   3.181   4.714 -1.7860 -0.0880  1.4476
19239TIP3   OH279207   4.055   1.961   3.019  0.4796 -0.1270  0.3929
19239TIP3    H179208   4.004   1.916   3.086 -0.1208  2.6628  1.9049
19239TIP3    H279209   4.109   2.023   3.068  2.1031  0.0243 -1.5222
19240TIP3   OH279210   2.391   0.487  12.624 -0.3309  0.4164  0.4177
19240TIP3    H179211   2.297   0.504  12.612 -0.3211 -0.5870 -1.1276
19240TIP3    H279212   2.409   0.412  12.569  1.1812 -0.0562  1.5329
19241TIP3   OH279213   3.317   4.182  14.420  0.5388 -0.0190  0.1838
19241TIP3    H179214   3.252   4.140  14.476  3.1178 -0.9881  2.5452
19241TIP3    H279215   3.271   4.258  14.384 -1.5961 -0.0752  2.6049
19242TIP3   OH279216   1.843   1.486   4.993  0.1573 -0.0200 -0.6383
19242TIP3    H179217   1.913   1.471   5.056  1.8778 -1.3090 -2.7845
19242TIP3    H279218   1.828   1.581   4.995 -0.2392 -0.0987  2.0757
19243TIP3   OH279219   0.660   0.408   3.055  0.0796  0.3698 -0.3295
19243TIP3    H179220   0.587   0.413   2.993  0.3086  0.0647 -0.6214
19243TIP3    H279221   0.654   0.320   3.092  0.9900 -0.0498 -1.1901
19244TIP3   OH279222   3.704   5.372  12.646 -0.4320 -0.3482  0.3581
19244TIP3    H179223   3.691   5.280  12.620  1.7595 -0.5523 -0.1154
19244TIP3    H279224   3.751   5.411  12.572  1.0846  0.4459  1.7189
19245TIP3   OH279225   6.084   0.314  12.190 -0.2323 -0.2735  0.5200
19245TIP3    H179226   6.093   0.220  12.175 -1.0914 -0.4349  0.9799
19245TIP3    H279227   6.133   0.355  12.119  0.8449 -1.0790  0.7894
19246TIP3   OH279228   1.369   1.777   1.237 -0.2222  0.3842  0.3544
19246TIP3    H179229   1.276   1.797   1.243 -0.1521  0.2296  2.0250
19246TIP3    H279230   1.377   1.685   1.261  0.5465  0.8603  2.0335
19247TIP3   OH279231   3.649   2.467   1.057 -0.0422 -0.2711 -0.1064
19247TIP3    H179232   3.648   2.491   1.149  0.3735 -2.3048  0.4718
19247TIP3    H279233   3.654   2.371   1.058  1.5905 -0.2450 -2.2236
19248TIP3   OH279234   1.799   4.300  12.433  0.4626  0.2526  0.4934
19248TIP3    H179235   1.851   4.225  12.465  0.8344  1.3365  2.5435
19248TIP3    H279236   1.851   4.377  12.456 -1.2729  1.2833  1.0753
19249TIP3   OH279237   1.834   0.851   3.873 -0.2746  0.1148 -0.0972
19249TIP3    H179238   1.820   0.756   3.877 -0.1252  0.0640 -0.6675
19249TIP3    H279239   1.752   0.887   3.840 -0.5589  0.2530  0.7465
19250TIP3   OH279240   0.274   6.140  15.069 -0.2259  0.1178  0.5437
19250TIP3    H179241   0.186   6.146  15.106  0.1740  0.3504  1.4704
19250TIP3    H279242   0.272   6.061  15.014 -0.6458 -0.5869  1.5581
19251TIP3   OH279243   0.166   5.706  15.843 -0.2555 -0.3567 -0.2811
19251TIP3    H179244   0.111   5.629  15.859  1.9518 -1.6818  1.1865
19251TIP3    H279245   0.107   5.768  15.800 -2.9790 -1.6062  1.4508
19252TIP3   OH279246   1.897   5.293  16.339 -0.2912  0.5257  0.1786
19252TIP3    H179247   1.911   5.354  16.265 -3.7386  0.4919 -0.6044
19252TIP3    H279248   1.889   5.350  16.415  0.3190  0.7681  0.0670
19253TIP3   OH279249   6.432   0.630  12.030  0.9708 -0.4969  0.2053
19253TIP3    H179250   6.406   0.722  12.032  1.7199 -0.2939  2.6650
19253TIP3    H279251   6.375   0.590  11.964 -0.7714  1.3216  0.5652
19254TIP3   OH279252   0.305   4.501   5.548  0.4400 -0.1759  0.3017
19254TIP3    H179253   0.332   4.558   5.476  1.0155 -0.8547 -0.0293
19254TIP3    H279254   0.255   4.431   5.506  0.4872 -0.3877  0.5986
19255TIP3   OH279255   1.275   6.041   1.585  0.0334 -0.1575  0.3911
19255TIP3    H179256   1.305   6.008   1.500  1.1701 -1.9019  1.4479
19255TIP3    H279257   1.354   6.053   1.636 -0.5919  1.5708  1.0035
19256TIP3   OH279258   6.453   2.648   3.995  0.8928  0.4297  0.5170
19256TIP3    H179259   6.524   2.710   3.978 -0.0964  1.4865  0.1811
19256TIP3    H279260   6.489   2.588   4.060  2.3958  0.4258 -0.2703
19257TIP3   OH279261   1.571   3.574   6.084  0.0016  0.0289  0.6032
19257TIP3    H179262   1.557   3.657   6.038  1.0860 -0.6218 -0.9439
19257TIP3    H279263   1.504   3.573   6.153 -0.7536  1.6608 -0.0815
19258TIP3   OH279264   2.983   2.441  11.030 -0.4004 -0.2347 -0.0219
19258TIP3    H179265   2.923   2.511  11.005 -2.0689 -1.8369 -0.6125
19258TIP3    H279266   2.952   2.414  11.117  0.1685 -0.3222  0.1545
19259TIP3   OH279267   6.549   2.665   4.785  0.3213  0.6351 -0.7644
19259TIP3    H179268   6.543   2.584   4.835  1.0482  1.6328  1.0073
19259TIP3    H279269   6.466   2.710   4.801  0.4126  0.7983 -0.7411
19260TIP3   OH279270   0.417   3.728  10.867  0.6913 -0.1337 -0.0981
19260TIP3    H179271   0.365   3.740  10.787  0.1671  1.7679  0.5141
19260TIP3    H279272   0.354   3.698  10.932  1.2222 -2.2451 -0.5020
19261TIP3   OH279273   0.861   0.471   5.874  0.1584  0.0012  0.0534
19261TIP3    H179274   0.774   0.451   5.839  0.0096  3.2610 -1.6076
19261TIP3    H279275   0.847   0.481   5.968 -0.8573 -1.3791  0.0755
19262TIP3   OH279276   1.924   5.199  13.421 -0.9705  0.3701  0.0606
19262TIP3    H179277   1.973   5.257  13.479  1.0055 -0.2281 -0.9687
19262TIP3    H279278   1.912   5.249  13.341 -1.1355  0.1537 -0.0495
19263TIP3   OH279279   3.259   3.285   3.715 -0.2152 -0.1814 -0.1084
19263TIP3    H179280   3.317   3.260   3.643  0.5120 -1.1908  0.8125
19263TIP3    H279281   3.208   3.358   3.681  0.1437 -0.6387 -1.6376
19264TIP3   OH279282   0.591   2.900   5.995  0.4301 -0.5317  0.3172
19264TIP3    H179283   0.538   2.904   6.074  0.6687 -1.5754  0.5457
19264TIP3    H279284   0.681   2.909   6.026  0.5310 -1.0397  0.1795
19265TIP3   OH279285   1.686   2.909   0.276 -0.3244  0.1357  0.3516
19265TIP3    H179286   1.597   2.936   0.298 -0.2379  0.2584  0.5471
19265TIP3    H279287   1.696   2.931   0.183 -0.4061  0.3639  0.3973
19266TIP3   OH279288   0.828   1.335   6.976 -0.0054  0.6580 -0.0631
19266TIP3    H179289   0.794   1.317   7.063  0.2832  0.4252  0.0024
19266TIP3    H279290   0.849   1.428   6.976 -0.5364  0.7820 -0.0701
19267TIP3   OH279291   4.182   1.891  16.270 -0.0283  0.1090  0.1854
19267TIP3    H179292   4.224   1.975  16.250  1.0396 -0.7835 -1.4912
19267TIP3    H279293   4.221   1.863  16.352  2.0160 -0.2660 -0.8900
19268TIP3   OH279294   1.729   5.947  16.073  0.7303 -0.0640 -0.4626
19268TIP3    H179295   1.759   6.020  16.126 -0.9098  0.3583 -0.0960
19268TIP3    H279296   1.643   5.974  16.040  0.3978 -1.5422 -0.8624
19269TIP3   OH279297   4.322   1.170  15.004  0.7006  0.2675  0.6059
19269TIP3    H179298   4.375   1.212  14.937 -0.2819  0.2039 -0.2324
19269TIP3    H279299   4.247   1.228  15.015  1.1974  0.6473  2.1801
19270TIP3   OH279300   4.627   6.111  15.574  0.2131  0.5750 -0.1369
19270TIP3    H179301   4.659   6.082  15.488 -0.3691 -4.2690  1.1291
19270TIP3    H279302   4.702   6.156  15.613  0.6325  2.4178 -2.9563
19271TIP3   OH279303   2.062   2.151   0.020 -0.0643  0.0922 -0.1408
19271TIP3    H179304   1.980   2.195   0.042  0.8074  1.8094 -0.2122
19271TIP3    H279305   2.053   2.064   0.058 -1.5231  0.5822  0.7010
19272TIP3   OH279306   3.375   4.264   2.168 -0.0028  0.4361  0.2182
19272TIP3    H179307   3.291   4.308   2.154  0.3547  0.4045 -2.2815
19272TIP3    H279308   3.351   4.172   2.182 -0.3877  0.3882 -0.7147
19273TIP3   OH279309   1.478   0.935  10.773  0.1795 -0.2613 -0.2944
19273TIP3    H179310   1.527   0.883  10.710 -0.4296  0.9783 -1.8210
19273TIP3    H279311   1.390   0.942  10.736  0.6332  3.1313 -0.9333
19274TIP3   OH279312   0.192   1.357  15.338  0.0411  0.5833  0.1873
19274TIP3    H179313   0.190   1.420  15.410 -1.1499 -0.5575  1.1691
19274TIP3    H279314   0.107   1.313  15.342  0.0992  0.2589 -1.7045
19275TIP3   OH279315   5.879   1.966   4.755  0.3593  0.3106 -0.0644
19275TIP3    H179316   5.968   1.985   4.783  0.5151  0.7801 -0.8730
19275TIP3    H279317   5.825   1.984   4.832  0.8812  0.7373  0.2004
19276TIP3   OH279318   1.685   2.514  14.610 -0.0204 -0.2900  0.2687
19276TIP3    H179319   1.680   2.486  14.701 -0.5341 -1.5823 -0.1604
19276TIP3    H279320   1.776   2.540  14.599  0.1976 -0.7340  0.9676
19277TIP3   OH279321   1.951   2.143  16.125 -0.5780 -0.4562 -0.0295
19277TIP3    H179322   1.867   2.120  16.085 -0.9946  0.5762  0.2341
19277TIP3    H279323   1.989   2.059  16.149 -1.9312 -0.9001  0.6458
19278TIP3   OH279324   1.945   5.483   2.383 -0.0658  0.5252 -0.1051
19278TIP3    H179325   1.918   5.395   2.409 -2.0178  1.1691  0.1485
19278TIP3    H279326   1.986   5.519   2.461 -0.4367  0.2993  0.1954
19279TIP3   OH279327   4.583   1.372  13.450  0.2575  0.4918  0.9531
19279TIP3    H179328   4.513   1.364  13.386  1.0171  1.1243  0.0107
19279TIP3    H279329   4.582   1.465  13.475  1.9641  0.9259 -0.5025
19280TIP3   OH279330   1.560   5.750  13.837  0.3879  0.8507  0.3385
19280TIP3    H179331   1.546   5.688  13.765  0.3948  0.5853  0.5631
19280TIP3    H279332   1.575   5.694  13.913 -1.4811  1.1037  0.9249
19281TIP3   OH279333   6.142   5.114   0.690  0.0611  0.1879  0.5209
19281TIP3    H179334   6.223   5.160   0.711 -0.5933  0.5639  2.2873
19281TIP3    H279335   6.084   5.183   0.657 -0.9412  0.7113  3.2270
19282TIP3   OH279336   5.872   3.091  12.962  0.3507 -0.3607  0.6746
19282TIP3    H179337   5.946   3.149  12.982  0.3497 -0.1828  0.1558
19282TIP3    H279338   5.899   3.006  12.996  0.9263 -0.3715  0.1903
19283TIP3   OH279339   5.586   2.300   3.391  0.3364 -0.1673 -0.4122
19283TIP3    H179340   5.583   2.240   3.466  0.3896 -0.8958 -0.9889
19283TIP3    H279341   5.577   2.387   3.430 -1.2744 -0.6318  0.3126
19284TIP3   OH279342   4.747   6.065  12.593 -0.4002 -0.6072 -1.2197
19284TIP3    H179343   4.823   6.015  12.622 -0.3375  0.2704  0.1492
19284TIP3    H279344   4.687   6.063  12.667 -0.2492  1.6203 -1.0089
19285TIP3   OH279345   5.967   4.943  15.191  0.4583  0.2111  0.0399
19285TIP3    H179346   6.038   4.890  15.227  0.1107 -0.2538  0.0531
19285TIP3    H279347   5.968   4.926  15.097  0.8701  0.8220 -0.0681
19286TIP3   OH279348   6.623   0.561   6.206 -0.8988 -0.1924  0.3483
19286TIP3    H179349   6.530   0.539   6.212 -0.4172 -2.5942 -0.1910
19286TIP3    H279350   6.664   0.508   6.274  0.1444  0.3784  0.1608
19287TIP3   OH279351   5.235   6.382  15.901 -0.2051 -0.4923 -0.2660
19287TIP3    H179352   5.207   6.315  15.838  0.6194  0.8534 -2.0986
19287TIP3    H279353   5.278   6.449  15.847  0.3258  0.7878  1.7162
19288TIP3   OH279354   5.643   2.778   1.233 -0.0845  0.0710  0.0786
19288TIP3    H179355   5.720   2.743   1.189 -0.1028 -0.0760  0.1652
19288TIP3    H279356   5.649   2.748   1.323 -0.7192 -0.7262 -0.1368
19289TIP3   OH279357   5.941   6.439  16.993  0.4941 -0.0361  0.3662
19289TIP3    H179358   6.018   6.474  17.037  0.0495 -0.8269  1.8228
19289TIP3    H279359   5.867   6.476  17.041 -0.0911  1.9221 -1.9557
19290TIP3   OH279360   4.604   5.930   0.975  0.1151 -0.0940  0.9415
19290TIP3    H179361   4.614   5.844   1.016  1.6128  0.1166  1.0322
19290TIP3    H279362   4.655   5.990   1.029 -0.0040  0.6495  0.2505
19291TIP3   OH279363   1.453   3.784   2.267  0.4422  0.0953 -0.6442
19291TIP3    H179364   1.362   3.814   2.261  0.4561  0.4169  0.6171
19291TIP3    H279365   1.454   3.724   2.341  1.0312 -0.8158 -1.3647
19292TIP3   OH279366   0.109   1.187  13.814 -0.2550  0.3468  0.3855
19292TIP3    H179367   0.072   1.235  13.739  0.1693  1.5287  0.9155
19292TIP3    H279368   0.102   1.249  13.887  1.7643  0.1764  0.7317
19293TIP3   OH279369   3.949   4.977   4.423 -0.0901  0.0502  0.5962
19293TIP3    H179370   4.017   4.914   4.400  0.3395  0.0867  1.7616
19293TIP3    H279371   3.996   5.057   4.446 -0.6946  1.4332 -2.6584
19294TIP3   OH279372   3.373   0.469   1.806 -0.1378 -0.0528 -0.1134
19294TIP3    H179373   3.430   0.545   1.816 -0.9202  0.5953 -0.5174
19294TIP3    H279374   3.432   0.399   1.777  0.7421  0.1469  1.1862
19295TIP3   OH279375   5.251   2.322  12.075 -0.0522 -0.3927  0.1621
19295TIP3    H179376   5.157   2.301  12.074  0.1783 -1.4024 -0.2160
19295TIP3    H279377   5.278   2.317  11.984  0.7682 -1.8939  0.4748
19296TIP3   OH279378   5.394   4.696   0.849 -0.0744 -0.0208  0.5068
19296TIP3    H179379   5.360   4.622   0.899 -0.0530 -0.8333 -0.6600
19296TIP3    H279380   5.405   4.766   0.914 -1.4688 -0.5735  1.3539
19297TIP3   OH279381   4.587   6.624   1.681  0.1907  0.5326  0.3190
19297TIP3    H179382   4.627   6.604   1.766 -2.3543  1.9642  1.9101
19297TIP3    H279383   4.502   6.579   1.683  0.3152  0.1572 -1.6930
19298TIP3   OH279384   1.806   4.542   3.373  0.5816  0.5577 -0.0991
19298TIP3    H179385   1.815   4.636   3.360  0.4690  0.4897 -0.6870
19298TIP3    H279386   1.884   4.505   3.333 -0.3972  0.2483 -1.7724
19299TIP3   OH279387   1.523   3.250   4.427  0.5688  0.1243  0.1516
19299TIP3    H179388   1.605   3.296   4.445 -0.4047  2.0723 -0.3364
19299TIP3    H279389   1.464   3.275   4.498 -1.0819  2.4395 -1.9464
19300TIP3   OH279390   6.178   1.778  11.827  0.0632  0.0662 -0.1198
19300TIP3    H179391   6.100   1.831  11.811 -1.1862 -1.7834 -0.3551
19300TIP3    H279392   6.145   1.688  11.828  2.7381 -1.0271 -3.8229
19301TIP3   OH279393   4.118   6.248  14.297 -0.0373  0.8881  0.3992
19301TIP3    H179394   4.136   6.250  14.391 -0.3127  1.0741  0.4471
19301TIP3    H279395   4.205   6.244  14.257  0.1179  1.6221  0.6385
19302TIP3   OH279396   5.880   2.158   0.810 -0.0742  0.2566  0.2322
19302TIP3    H179397   5.852   2.069   0.788  0.2907  0.2705 -0.3017
19302TIP3    H279398   5.868   2.164   0.905  0.4379 -0.5504  0.3541
19303TIP3   OH279399   0.728   4.885  16.967 -0.2376  0.7846  0.3570
19303TIP3    H179400   0.725   4.977  16.995 -1.7663  1.0160 -0.5283
19303TIP3    H279401   0.786   4.885  16.891  0.3776  0.8842  0.8244
19304TIP3   OH279402   2.788   1.728   4.093  0.1842 -0.0195 -0.6867
19304TIP3    H179403   2.848   1.654   4.097  0.5384  0.3210  0.3713
19304TIP3    H279404   2.821   1.782   4.021  0.2570 -0.5845 -1.0839
19305TIP3   OH279405   5.130   2.821   0.842 -0.5209  0.5592 -0.6411
19305TIP3    H179406   5.172   2.906   0.852  0.7354 -0.1463  0.2219
19305TIP3    H279407   5.076   2.811   0.921  0.1565  0.1173 -0.2228
19306TIP3   OH279408   6.431   1.862   0.193  0.2925 -0.4762  0.6152
19306TIP3    H179409   6.503   1.923   0.206  0.6453 -0.9608  0.9402
19306TIP3    H279410   6.359   1.916   0.162  1.2497 -0.1952 -1.2139
19307TIP3   OH279411   6.513   5.771   5.832  0.7720 -0.6025  0.1130
19307TIP3    H179412   6.521   5.735   5.920  0.7964 -1.2731 -0.1582
19307TIP3    H279413   6.470   5.702   5.782  1.3535 -0.4825 -0.5595
19308TIP3   OH279414   4.728   3.214  15.490 -0.4107  0.5804  0.2852
19308TIP3    H179415   4.754   3.145  15.429 -0.3673 -0.2650  1.2530
19308TIP3    H279416   4.635   3.198  15.506 -0.2903  0.4509  0.8765
19309TIP3   OH279417   2.251   0.179  16.051  0.0130  1.0247 -0.0571
19309TIP3    H179418   2.275   0.232  16.127  4.4915 -1.1079  0.2020
19309TIP3    H279419   2.215   0.099  16.088 -0.2424  1.0523 -0.2479
19310TIP3   OH279420   5.464   2.144   4.616 -0.2587 -0.3821 -0.3068
19310TIP3    H179421   5.473   2.160   4.522 -0.1435 -0.4538 -0.3081
19310TIP3    H279422   5.405   2.069   4.623  0.4160 -0.9143 -0.3445
19311TIP3   OH279423   2.636   6.551   0.647 -0.0914 -0.1101 -0.0375
19311TIP3    H179424   2.574   6.624   0.649 -1.0919 -0.9375 -0.3429
19311TIP3    H279425   2.599   6.486   0.706 -0.4629 -1.3576 -1.5942
19312TIP3   OH279426   3.078   6.559   1.600  0.2144  0.1875 -0.3742
19312TIP3    H179427   3.157   6.561   1.654  1.3198 -0.0572 -1.9802
19312TIP3    H279428   3.098   6.614   1.525 -1.4702  0.8570 -0.3643
19313TIP3   OH279429   6.671   5.762   1.759 -0.0078 -0.2917 -0.1501
19313TIP3    H179430   6.718   5.689   1.798 -2.0618 -1.7339 -0.3025
19313TIP3    H279431   6.585   5.760   1.800 -0.8809  0.6073 -1.8765
19314TIP3   OH279432   5.784   0.095  15.244  0.3612  0.0521 -0.1790
19314TIP3    H179433   5.736   0.023  15.202 -1.2663  0.5881  0.7142
19314TIP3    H279434   5.748   0.174  15.206  0.7576  0.4597  0.2875
19315TIP3   OH279435   2.237   5.645  12.316 -0.3337  0.5273  0.0386
19315TIP3    H179436   2.262   5.555  12.339  1.0918 -0.6851 -5.4573
19315TIP3    H279437   2.313   5.698  12.340  0.2511 -0.3106  0.0604
19316TIP3   OH279438   4.988   5.031   3.132  0.2747 -0.8120  0.5088
19316TIP3    H179439   4.954   5.002   3.048  0.2671  2.5530 -0.7248
19316TIP3    H279440   4.998   5.126   3.123  3.1986 -0.7441  3.2544
19317TIP3   OH279441   4.184   6.493   0.021  0.4369 -0.3275 -0.5574
19317TIP3    H179442   4.203   6.586   0.027 -0.0553 -0.1866 -1.1197
19317TIP3    H279443   4.148   6.482  -0.067  0.0570 -0.9681 -0.3200
19318TIP3   OH279444   3.774   2.796   2.972  0.3103  0.4788  0.3445
19318TIP3    H179445   3.769   2.738   3.047 -0.5795  0.6813  0.4474
19318TIP3    H279446   3.684   2.802   2.940  0.3408  1.9957  0.4978
19319TIP3   OH279447   2.903   0.772   4.503 -0.0263 -0.1496 -0.6636
19319TIP3    H179448   2.870   0.819   4.579 -1.0192  0.1740 -1.2790
19319TIP3    H279449   2.979   0.724   4.535  1.7101  2.7333 -0.2575
19320TIP3   OH279450   4.098   5.934   5.317  0.9806 -0.4231 -0.0706
19320TIP3    H179451   4.182   5.892   5.336  1.3232 -0.0447 -0.7394
19320TIP3    H279452   4.044   5.913   5.393  2.0742  0.3847  0.9568
19321TIP3   OH279453   3.271   2.662   0.430  0.5503 -0.5144 -0.0897
19321TIP3    H179454   3.365   2.661   0.414  1.0223  2.5749  1.9025
19321TIP3    H279455   3.252   2.578   0.471  2.2582 -1.5709 -1.4260
19322TIP3   OH279456   5.542   1.919   2.888 -0.0330 -0.3094 -0.2162
19322TIP3    H179457   5.490   1.876   2.956 -0.1007  0.7261  0.3996
19322TIP3    H279458   5.626   1.875   2.891 -0.2683 -0.7429  0.0731
19323TIP3   OH279459   3.582   4.245   4.159  0.5670 -0.3764 -0.2868
19323TIP3    H179460   3.645   4.183   4.195 -1.7313 -2.1461  0.7825
19323TIP3    H279461   3.593   4.324   4.212  1.6557 -0.7867  0.1045
19324TIP3   OH279462   5.326   5.137   1.684  0.0898  0.2898  0.0458
19324TIP3    H179463   5.312   5.102   1.772  0.7635  2.3120  0.9880
19324TIP3    H279464   5.244   5.179   1.661 -0.0675 -0.1894 -0.2771
19325TIP3   OH279465   5.593   6.551   5.359  0.4063  0.0051 -0.6201
19325TIP3    H179466   5.561   6.596   5.438 -2.2114 -0.9157 -1.1280
19325TIP3    H279467   5.651   6.483   5.392  1.1526  1.0952  0.3720
19326TIP3   OH279468   3.404   3.313  11.828 -0.1089  0.4231  0.1478
19326TIP3    H179469   3.459   3.345  11.756  0.9421 -0.7503  0.4176
19326TIP3    H279470   3.314   3.333  11.800  0.4346  2.2743 -0.3385
19327TIP3   OH279471   5.274   2.994  12.594 -0.0370  0.1450  0.2788
19327TIP3    H179472   5.215   3.047  12.539  1.0967  0.3980 -0.7225
19327TIP3    H279473   5.302   3.053  12.664 -0.2043  0.3199  0.1983
19328TIP3   OH279474   1.208   0.140   6.105  0.1013  0.4835  0.2616
19328TIP3    H179475   1.199   0.139   6.200 -0.5164 -0.8253  0.2025
19328TIP3    H279476   1.284   0.084   6.088  0.5736  1.1865  0.0008
19329TIP3   OH279477   0.574   3.133   4.295 -0.5963 -0.2945  0.3272
19329TIP3    H179478   0.668   3.149   4.288 -0.5204 -0.4183  1.0144
19329TIP3    H279479   0.567   3.037   4.303 -0.7079 -0.2161  1.2594
19330TIP3   OH279480   0.440   0.122   1.814  0.2712 -0.0320  0.2583
19330TIP3    H179481   0.470   0.127   1.723 -0.4940 -0.5480 -0.0305
19330TIP3    H279482   0.519   0.106   1.865  0.8935  1.5706 -0.1777
19331TIP3   OH279483   4.992   4.106  13.144 -0.3991  0.2465 -0.4119
19331TIP3    H179484   4.988   4.090  13.238  0.1290 -0.7905 -0.5523
19331TIP3    H279485   5.085   4.100  13.123 -0.4787  0.8552 -0.9415
19332TIP3   OH279486   6.736   5.323  15.372  0.0884  0.5012  0.0646
19332TIP3    H179487   6.820   5.354  15.405  1.3908 -1.7291 -1.0650
19332TIP3    H279488   6.715   5.248  15.428 -0.1585 -0.1952 -0.9506
19333TIP3   OH279489   6.557   2.170   3.691 -0.1330 -0.5741  0.3624
19333TIP3    H179490   6.581   2.079   3.711  0.2237 -0.5638 -0.0200
19333TIP3    H279491   6.604   2.190   3.610 -1.1133 -0.4220 -0.1832
19334TIP3   OH279492   2.151   2.049  13.446 -0.2851  0.1942  0.1119
19334TIP3    H179493   2.235   2.033  13.489 -1.4813 -1.5841  1.8940
19334TIP3    H279494   2.166   2.126  13.391  2.5528 -0.2569  0.2115
19335TIP3   OH279495   6.720   3.012  15.836  0.1765 -0.1348 -0.2813
19335TIP3    H179496   6.795   3.033  15.892 -2.8080  1.1291  3.5247
19335TIP3    H279497   6.656   3.080  15.856 -2.1732 -1.4324 -3.0689
19336TIP3   OH279498   4.427   4.553   2.528  0.5791 -0.5838 -0.0333
19336TIP3    H179499   4.421   4.514   2.441 -0.4269  1.3473 -0.8785
19336TIP3    H279500   4.384   4.490   2.586  0.0633 -1.2789 -1.1530
19337TIP3   OH279501   6.648   0.132  12.673  0.3952  0.1561 -0.2422
19337TIP3    H179502   6.670   0.117  12.581  4.0853 -0.1866  0.6407
19337TIP3    H279503   6.635   0.045  12.709  2.5622  0.0655  0.3725
19338TIP3   OH279504   2.138   6.764   0.605 -0.2725  0.2111 -0.3705
19338TIP3    H179505   2.086   6.727   0.534  0.8752 -1.9846 -0.0988
19338TIP3    H279506   2.081   6.831   0.644 -1.0416  1.2548 -3.1292
19339TIP3   OH279507   3.887   5.852  11.878  0.1134  0.0649 -0.0485
19339TIP3    H179508   3.969   5.887  11.913  0.0696  3.4354 -2.9824
19339TIP3    H279509   3.885   5.761  11.907  4.1293  0.3179  1.3565
19340TIP3   OH279510   2.902   3.121   4.683 -0.0799  0.1762 -0.1024
19340TIP3    H179511   2.831   3.057   4.691  2.0807 -2.1890  0.5366
19340TIP3    H279512   2.965   3.081   4.623  1.1047  1.9025 -0.0489
19341TIP3   OH279513   5.287   1.678   5.887  0.2799  0.3073 -0.5707
19341TIP3    H179514   5.210   1.624   5.868  0.9556 -0.6472 -0.6524
19341TIP3    H279515   5.265   1.765   5.854 -0.5879 -0.0702 -0.9972
19342TIP3   OH279516   3.743   4.931   2.242  0.0796 -0.0581  0.9130
19342TIP3    H179517   3.692   4.940   2.323  0.2867 -1.0465  1.1615
19342TIP3    H279518   3.678   4.909   2.175 -0.0329  0.3192  0.8965
19343TIP3   OH279519   5.611   3.147   4.645  0.0817 -0.1919  0.0982
19343TIP3    H179520   5.693   3.158   4.694  1.2404  1.0340 -2.0242
19343TIP3    H279521   5.603   3.228   4.594 -1.5610 -1.0267 -1.0057
19344TIP3   OH279522   6.313   3.246  11.991  0.1244 -0.1130  0.3627
19344TIP3    H179523   6.403   3.259  11.961  0.4304  1.1080  1.7099
19344TIP3    H279524   6.323   3.205  12.077 -0.6454 -1.1493 -0.0403
19345TIP3   OH279525   5.831   5.902   5.146 -0.2998  0.5160  0.0138
19345TIP3    H179526   5.806   5.986   5.110 -0.0271 -0.0119 -1.4419
19345TIP3    H279527   5.888   5.863   5.079 -1.6076 -1.4487 -0.0166
19346TIP3   OH279528   1.257   1.966  15.134  0.2212  0.7391  0.4347
19346TIP3    H179529   1.315   1.892  15.154 -0.0274  0.7246  1.1093
19346TIP3    H279530   1.271   2.028  15.206 -0.1924  0.9828  0.3085
19347TIP3   OH279531   4.497   0.906   1.457  0.0852  0.6556 -0.3853
19347TIP3    H179532   4.567   0.963   1.488  0.1032  1.3334 -1.6379
19347TIP3    H279533   4.537   0.819   1.450  1.2635  1.3556 -2.6477
19348TIP3   OH279534   5.188   5.463  13.738  0.4174  0.8339  0.0593
19348TIP3    H179535   5.214   5.466  13.646  0.2985  1.6513  0.0483
19348TIP3    H279536   5.236   5.535  13.779  0.4475  0.4921  0.6359
19349TIP3   OH279537   4.695   6.798  15.246 -0.5524 -0.4622  0.5729
19349TIP3    H179538   4.754   6.874  15.242  0.1758 -1.0636 -0.3840
19349TIP3    H279539   4.753   6.722  15.236 -1.3591 -1.1130  0.8000
19350TIP3   OH279540   3.834   6.777   1.948  0.3615 -0.0729  0.0089
19350TIP3    H179541   3.908   6.732   1.989 -0.3234 -1.6571 -0.4461
19350TIP3    H279542   3.771   6.790   2.018 -0.2967 -1.6835 -0.2671
19351TIP3   OH279543   5.939   2.904   1.359 -0.6178  0.2144 -0.0870
19351TIP3    H179544   5.938   2.812   1.332  0.7573 -0.2005  1.1864
19351TIP3    H279545   6.005   2.944   1.303 -0.1093  0.0760  0.4082
19352TIP3   OH279546   3.191   0.894  16.223 -0.1032 -0.0123 -0.4224
19352TIP3    H179547   3.236   0.830  16.169  1.5209  0.3708  0.4472
19352TIP3    H279548   3.259   0.933  16.277 -1.1849  1.8837 -0.3535
19353TIP3   OH279549   6.404   2.084   1.444 -0.8131 -0.2136 -0.1363
19353TIP3    H179550   6.315   2.118   1.450 -1.0173 -0.6251 -0.7524
19353TIP3    H279551   6.440   2.094   1.532 -0.3015  3.1374 -0.6724
19354TIP3   OH279552   5.251   0.435  11.713  0.3086 -0.2640 -0.8222
19354TIP3    H179553   5.277   0.347  11.743 -0.0881 -0.4568 -1.0460
19354TIP3    H279554   5.315   0.457  11.646  1.4240  0.3165  0.4037
19355TIP3   OH279555   4.344   4.452   0.907 -0.2114  0.1366  0.2190
19355TIP3    H179556   4.429   4.484   0.938  0.0427  0.4600 -0.7929
19355TIP3    H279557   4.309   4.403   0.981  1.7021 -1.5855  0.0368
19356TIP3   OH279558   0.548   5.735  13.360  0.3734  0.3293  0.2019
19356TIP3    H179559   0.572   5.734  13.452  0.7869 -0.1160  0.0943
19356TIP3    H279560   0.473   5.794  13.355 -1.8385 -2.2663  1.3553
19357TIP3   OH279561   2.478   6.273   0.418 -0.5140  0.0090 -0.0546
19357TIP3    H179562   2.441   6.358   0.395 -1.1236 -0.2835 -0.1473
19357TIP3    H279563   2.573   6.286   0.411 -0.6466  0.2319 -1.6883
19358TIP3   OH279564   3.614   1.174  12.812 -0.2097  0.7035 -0.3343
19358TIP3    H179565   3.589   1.143  12.725  1.0142  1.0321 -0.8147
19358TIP3    H279566   3.688   1.233  12.796  0.7947 -0.1541  1.0213
19359TIP3   OH279567   3.462   2.790   5.604 -0.0499 -0.1167  0.1002
19359TIP3    H179568   3.449   2.851   5.677  0.7083 -1.0127  1.0183
19359TIP3    H279569   3.374   2.763   5.579 -0.3045 -0.4168  1.2545
19360TIP3   OH279570   4.425   1.715   6.152 -0.0331 -0.3470  0.4591
19360TIP3    H179571   4.382   1.783   6.205 -1.4203  0.6708 -1.8748
19360TIP3    H279572   4.386   1.633   6.182  0.4207  0.0402  2.1414
19361TIP3   OH279573   1.432   5.060  12.463  0.8732  0.8766  0.3704
19361TIP3    H179574   1.458   5.138  12.415  0.1062 -0.5133 -2.3925
19361TIP3    H279575   1.343   5.041  12.433  0.7321 -0.5960  1.6176
19362TIP3   OH279576   0.606   0.868   1.112 -0.9497  0.2648  0.1321
19362TIP3    H179577   0.520   0.838   1.084 -0.1697 -0.1377 -1.9221
19362TIP3    H279578   0.620   0.828   1.198 -1.8947 -1.4238 -0.4935
19363TIP3   OH279579   2.328   5.977   5.949  0.9634 -0.1798  0.1285
19363TIP3    H179580   2.406   5.925   5.969  2.1410  0.3337 -2.8877
19363TIP3    H279581   2.342   6.010   5.860 -1.7671  1.6471  0.2815
19364TIP3   OH279582   0.519   6.355   2.021 -0.1265 -0.5122  0.3353
19364TIP3    H179583   0.548   6.305   2.096 -0.3221  0.1395  0.8526
19364TIP3    H279584   0.456   6.418   2.056  0.2314  0.2021 -0.2673
19365TIP3   OH279585   5.018   4.551  16.474 -0.1823 -0.6234  0.0353
19365TIP3    H179586   4.939   4.538  16.421  1.7364 -1.8598 -2.6085
19365TIP3    H279587   5.018   4.645  16.492 -2.2035 -0.5850  0.0218
19366TIP3   OH279588   6.308   1.372  16.228  0.1523  0.3460 -0.5085
19366TIP3    H179589   6.239   1.341  16.286  1.7961  1.5342  2.1763
19366TIP3    H279590   6.336   1.295  16.179 -0.0268 -1.0759  1.5957
19367TIP3   OH279591   0.707   1.025   5.303 -0.1138 -0.4220 -0.0748
19367TIP3    H179592   0.761   0.959   5.345  0.8384  0.0763 -0.5171
19367TIP3    H279593   0.673   0.982   5.224  1.1114 -0.1528 -0.7620
19368TIP3   OH279594   6.422   1.939  16.940  0.2951  0.3473 -0.1608
19368TIP3    H179595   6.349   1.877  16.943 -0.5031  1.2843  0.0613
19368TIP3    H279596   6.395   2.011  16.997  1.9087  0.1569  0.8612
19369TIP3   OH279597   2.674   1.927   0.987 -0.2796  0.3306 -0.6902
19369TIP3    H179598   2.676   1.882   0.903 -1.1228 -0.8136 -0.1095
19369TIP3    H279599   2.612   1.877   1.040 -0.0388  1.2536  0.4939
19370TIP3   OH279600   1.267   0.990   0.642  0.0107  0.6287 -0.2955
19370TIP3    H179601   1.303   1.016   0.727  0.0218  0.1277 -0.1398
19370TIP3    H279602   1.184   0.946   0.664  0.2580  0.0513 -0.5032
19371TIP3   OH279603   2.492   0.640   2.141  0.4585 -0.1357  0.0991
19371TIP3    H179604   2.435   0.656   2.217 -0.2736 -0.4760 -0.3720
19371TIP3    H279605   2.580   0.653   2.174  0.3245 -2.8629  1.7000
19372TIP3   OH279606   5.705   4.400   1.408 -0.4236 -0.3647  0.5267
19372TIP3    H179607   5.717   4.312   1.443 -3.2280 -1.1794 -0.4098
19372TIP3    H279608   5.696   4.456   1.485  0.6448 -1.0020  1.1197
19373TIP3   OH279609   5.355   3.565  16.590 -0.6601  0.0463 -0.0968
19373TIP3    H179610   5.439   3.604  16.610 -0.3192 -1.0883  0.7928
19373TIP3    H279611   5.298   3.639  16.569  0.4117  0.8581 -0.1840
19374TIP3   OH279612   5.753   1.953   5.046 -0.0441  0.0871 -0.0278
19374TIP3    H179613   5.833   1.961   5.099 -1.1472 -1.4548  1.9404
19374TIP3    H279614   5.714   2.041   5.050  1.8751  1.0653 -1.6207
19375TIP3   OH279615   5.659   6.148   0.647  0.7108  0.1189  0.1854
19375TIP3    H179616   5.566   6.130   0.635  0.3554  2.1078 -0.2511
19375TIP3    H279617   5.662   6.221   0.709  1.9893 -0.0008  0.2957
19376TIP3   OH279618   2.210   3.404   2.981 -0.2993 -0.3424  0.0068
19376TIP3    H179619   2.228   3.377   3.071 -0.0133 -1.4634 -0.3710
19376TIP3    H279620   2.278   3.469   2.962 -1.0493  0.7398  0.9647
19377TIP3   OH279621   5.075   3.585   2.865  0.0083 -0.8080 -0.2386
19377TIP3    H179622   5.158   3.612   2.905 -0.2568 -2.9351  1.7762
19377TIP3    H279623   5.008   3.616   2.925 -0.5458 -1.4437 -0.5291
19378TIP3   OH279624   4.807   3.175  14.199  0.2908  0.7249 -0.6357
19378TIP3    H179625   4.781   3.088  14.168 -0.4336  0.2738  1.1766
19378TIP3    H279626   4.894   3.161  14.236  0.3269  0.8617 -0.6694
19379TIP3   OH279627   2.735   5.790   1.005  0.4301  0.0335  0.3514
19379TIP3    H179628   2.674   5.832   1.065 -0.5284 -2.1328  0.9302
19379TIP3    H279629   2.811   5.768   1.059  0.2149 -0.5046  0.4414
19380TIP3   OH279630   1.888   0.494  11.651 -0.2869 -0.3134  0.2536
19380TIP3    H179631   1.870   0.545  11.730 -2.7206  1.1562 -1.1764
19380TIP3    H279632   1.923   0.558  11.588 -0.9993 -0.8841 -0.7507
19381TIP3   OH279633   1.715   6.364  15.894  0.4358 -0.2096 -0.3205
19381TIP3    H179634   1.686   6.331  15.809  2.0336 -1.5157 -0.3983
19381TIP3    H279635   1.799   6.406  15.876  1.3700 -1.5678  0.7841
19382TIP3   OH279636   2.046   6.307  16.152 -0.0710  0.2048  0.2174
19382TIP3    H179637   2.008   6.393  16.170 -1.1615 -0.2448  0.1222
19382TIP3    H279638   1.975   6.246  16.169  1.1393 -0.8108  1.7786
19383TIP3   OH279639   2.180   6.000   5.633  0.6696 -0.3331 -0.4856
19383TIP3    H179640   2.274   6.016   5.638  0.7906 -1.2508  0.4463
19383TIP3    H279641   2.170   5.908   5.656 -0.5289 -0.0353  0.2546
19384TIP3   OH279642   5.656   2.580  11.368  0.5854 -0.3106 -0.0028
19384TIP3    H179643   5.581   2.559  11.423  1.5092 -2.1042  0.5947
19384TIP3    H279644   5.699   2.653  11.412 -0.2526  0.0869  0.1608
19385TIP3   OH279645   5.960   0.069  13.138  0.5464  0.7775  0.2389
19385TIP3    H179646   5.942   0.161  13.121  3.7087  1.8646  2.2698
19385TIP3    H279647   5.947   0.026  13.054  1.1801  3.4645 -1.2905
19386TIP3   OH279648   2.254   3.061  12.975 -0.1235  0.2063 -0.0472
19386TIP3    H179649   2.300   2.981  12.948  1.7910  0.3418  2.5382
19386TIP3    H279650   2.177   3.030  13.023  0.7000 -0.1262  1.0851
19387TIP3   OH279651   1.370   3.372  16.619 -0.0426 -0.1494  0.2641
19387TIP3    H179652   1.406   3.301  16.565 -0.0266  0.7452 -0.9222
19387TIP3    H279653   1.294   3.333  16.662 -0.6582 -0.5925 -1.2010
19388TIP3   OH279654   0.921   6.812  14.778 -0.4790  0.0498 -0.1274
19388TIP3    H179655   0.975   6.741  14.743 -1.4906 -0.7129 -0.1480
19388TIP3    H279656   0.944   6.816  14.871 -0.0038  0.0741 -0.2464
19389TIP3   OH279657   5.593   4.161   5.022 -0.3099 -0.6486 -0.4947
19389TIP3    H179658   5.612   4.072   4.995  1.8779 -0.6173  0.7969
19389TIP3    H279659   5.642   4.216   4.961  1.7089 -0.4865  1.2044
19390TIP3   OH279660   6.000   2.697   1.544  0.6984  0.3663  0.6590
19390TIP3    H179661   5.926   2.747   1.508  1.1919 -0.6828 -1.9579
19390TIP3    H279662   5.971   2.606   1.539  2.5398 -0.1558 -1.4684
19391TIP3   OH279663   1.187   3.073   1.131  0.4146  0.2816 -0.0294
19391TIP3    H179664   1.257   3.007   1.134  0.4543  0.2887 -0.6829
19391TIP3    H279665   1.177   3.102   1.222  2.4845  1.5493 -0.1646
19392TIP3   OH279666   6.197   2.741  11.215  0.3823  0.1744 -0.0354
19392TIP3    H179667   6.180   2.789  11.134 -0.6751  2.6822  1.5945
19392TIP3    H279668   6.275   2.782  11.251  0.5831 -0.6229  0.4429
19393TIP3   OH279669   1.178   4.906   5.677  0.6015  0.5895  0.6468
19393TIP3    H179670   1.199   4.900   5.583 -1.9490  0.6375  0.0393
19393TIP3    H279671   1.118   4.981   5.683  0.7009  0.5481  2.3276
19394TIP3   OH279672   4.566   0.783  15.300  0.1263 -0.4287 -0.6262
19394TIP3    H179673   4.660   0.790  15.315  0.4038 -0.3051 -2.3700
19394TIP3    H279674   4.532   0.744  15.381  1.8137 -1.4707 -0.3869
19395TIP3   OH279675   1.072   0.085  13.409 -0.1155 -0.2163 -0.0059
19395TIP3    H179676   1.106   0.089  13.499  1.8651 -0.8791 -0.6996
19395TIP3    H279677   1.049  -0.007  13.396  1.4779 -0.5247 -0.8175
19396TIP3   OH279678   6.424   2.457  15.527  0.3444  0.3181 -0.3670
19396TIP3    H179679   6.408   2.400  15.452 -2.7669  0.5490  0.0594
19396TIP3    H279680   6.508   2.427  15.563  1.0429 -0.8858 -2.9122
19397TIP3   OH279681   2.300   5.128  11.621  0.2262 -0.3738 -1.2866
19397TIP3    H179682   2.223   5.166  11.665  0.8286 -1.4560  0.7354
19397TIP3    H279683   2.361   5.201  11.614 -0.8399  0.4249 -2.6399
19398TIP3   OH279684   4.852   2.511   1.719  0.1901  0.0105  0.4151
19398TIP3    H179685   4.826   2.481   1.806  1.1590  0.6870  0.9471
19398TIP3    H279686   4.944   2.533   1.728  0.1511  0.6307 -0.6384
19399TIP3   OH279687   5.704   4.342  17.189  0.2437  0.2551 -0.1599
19399TIP3    H179688   5.617   4.356  17.224 -1.1440 -0.7317 -3.0749
19399TIP3    H279689   5.696   4.265  17.133  3.2614 -0.5679  0.4330
19400TIP3   OH279690   5.859   6.162   5.005 -0.3113  0.2855  0.1814
19400TIP3    H179691   5.932   6.150   5.066  0.2268  1.7167 -0.1535
19400TIP3    H279692   5.885   6.237   4.951 -2.5020  1.4846  0.7498
19401TIP3   OH279693   5.637   5.868  15.799  0.1137 -0.6712 -0.3214
19401TIP3    H179694   5.640   5.937  15.865  1.0864 -2.6790  1.7966
19401TIP3    H279695   5.725   5.867  15.761  0.4279 -1.4596  0.4184
19402TIP3   OH279696   5.504   5.465  15.122 -0.5523  0.5437 -0.7115
19402TIP3    H179697   5.443   5.406  15.079 -1.9206  1.0157  0.5212
19402TIP3    H279698   5.458   5.549  15.127 -0.2751  0.6219  1.2269
19403TIP3   OH279699   2.259   2.681  16.084 -0.0038  0.9500 -0.0008
19403TIP3    H179700   2.265   2.605  16.142 -1.0440  1.0524  0.2467
19403TIP3    H279701   2.188   2.734  16.120  0.3082  1.7381 -0.5244
19404TIP3   OH279702   3.742   2.469  16.030 -0.2389  0.4020  0.0281
19404TIP3    H179703   3.792   2.399  16.071 -0.0528  0.2636 -0.4294
19404TIP3    H279704   3.794   2.548  16.046  1.1719 -0.0108 -2.1286
19405TIP3   OH279705   2.121   1.237  10.958  0.1071 -0.2874 -0.0533
19405TIP3    H179706   2.175   1.295  11.011 -1.2870  0.2527  0.7916
19405TIP3    H279707   2.162   1.240  10.871  1.8563 -0.4675  0.7458
19406TIP3   OH279708   0.805   1.243  12.355  0.1579 -0.2406 -0.6372
19406TIP3    H179709   0.714   1.216  12.367  0.7670 -1.7339  0.8062
19406TIP3    H279710   0.818   1.314  12.419  0.0301 -0.0944 -0.7743
19407TIP3   OH279711   4.367   2.724   0.302  0.0903 -0.2116 -0.0053
19407TIP3    H179712   4.279   2.717   0.263 -0.2182 -1.8224  0.9389
19407TIP3    H279713   4.410   2.642   0.280  1.6342  0.8276 -1.0180
19408TIP3   OH279714   2.795   5.935   0.799 -0.4250  0.1078  0.5009
19408TIP3    H179715   2.763   5.875   0.867 -0.6549 -0.0878  0.2217
19408TIP3    H279716   2.878   5.969   0.834  1.1479 -2.5056 -0.5217
19409TIP3   OH279717   3.196   5.578  15.639  0.8076 -0.0680 -0.4167
19409TIP3    H179718   3.161   5.658  15.678  0.2298 -0.6771  0.3390
19409TIP3    H279719   3.169   5.582  15.547  1.3046  0.8921 -0.5192
19410TIP3   OH279720   1.734   6.173  11.709 -0.5474 -0.4501  0.5740
19410TIP3    H179721   1.660   6.196  11.652 -0.2770  1.5761  0.9834
19410TIP3    H279722   1.802   6.144  11.648 -0.1349  2.0502 -0.2289
19411TIP3   OH279723   6.806   2.843   2.455 -0.3021 -0.2217  0.3629
19411TIP3    H179724   6.748   2.811   2.525 -0.5584 -1.3915 -0.3783
19411TIP3    H279725   6.807   2.773   2.390  1.8841 -0.1775  0.3114
19412TIP3   OH279726   4.103   0.815   2.351 -0.1807  0.3243 -0.5515
19412TIP3    H179727   4.183   0.868   2.359  0.0238  0.5507 -3.5702
19412TIP3    H279728   4.067   0.812   2.439  2.1938  1.7687  0.5017
19413TIP3   OH279729   1.847   4.521   5.200  0.9517 -0.2787  0.0874
19413TIP3    H179730   1.895   4.598   5.169 -0.4939  0.8696  0.6611
19413TIP3    H279731   1.886   4.448   5.152  2.0342  0.8587 -0.8010
19414TIP3   OH279732   4.308   3.395   4.337 -0.1719 -0.0471  0.1854
19414TIP3    H179733   4.278   3.486   4.330 -1.5133 -0.5373 -0.6712
19414TIP3    H279734   4.300   3.361   4.248  2.9055 -0.2362 -0.0822
19415TIP3   OH279735   2.722   5.518  14.002  0.1176  0.5555  0.1135
19415TIP3    H179736   2.760   5.432  14.017 -0.1304  0.5840  0.8942
19415TIP3    H279737   2.780   5.558  13.936  0.2710 -0.1694 -0.1984
19416TIP3   OH279738   5.135   3.606   3.662  0.0946  0.2313 -0.9565
19416TIP3    H179739   5.198   3.593   3.733 -0.4558 -0.5875 -0.6078
19416TIP3    H279740   5.165   3.686   3.618 -0.0487  1.2352  0.7177
19417TIP3   OH279741   1.396   0.019  11.623 -0.2128 -0.3460  0.0452
19417TIP3    H179742   1.482   0.046  11.654 -0.7680  2.7234 -0.8686
19417TIP3    H279743   1.413  -0.045  11.554  1.5925  3.2740 -3.0681
19418TIP3   OH279744   5.167   1.470   1.278  0.0099  0.3894 -0.0283
19418TIP3    H179745   5.170   1.565   1.261 -0.1130  0.5617  0.8768
19418TIP3    H279746   5.256   1.449   1.308  0.5627 -0.1319 -1.9811
19419TIP3   OH279747   0.880   5.944  16.872 -0.0666 -0.0350  0.4457
19419TIP3    H179748   0.906   6.028  16.911  1.5045 -0.7020  0.8472
19419TIP3    H279749   0.816   5.908  16.934 -0.0518  0.4241  0.7339
19420TIP3   OH279750   3.032   3.284  15.581  0.4396 -0.3064  0.2193
19420TIP3    H179751   3.102   3.260  15.521 -1.0892  1.9189 -2.5839
19420TIP3    H279752   2.959   3.227  15.557  0.5447 -1.0416  1.5952
19421TIP3   OH279753   5.314   1.214   3.136  0.2857  0.5654  0.8627
19421TIP3    H179754   5.318   1.266   3.216 -1.8359 -0.1025  1.4451
19421TIP3    H279755   5.336   1.125   3.164  0.8046  0.5628  0.4535
19422TIP3   OH279756   4.282   4.875   6.038  0.0595 -0.6283 -0.3382
19422TIP3    H179757   4.270   4.970   6.034 -1.4935 -0.8141 -0.6439
19422TIP3    H279758   4.262   4.853   6.129  0.4915 -0.6496 -0.2497
19423TIP3   OH279759   4.728   5.182   3.851 -0.2647 -0.2027 -0.4302
19423TIP3    H179760   4.680   5.177   3.933  0.8225 -1.3182  0.1471
19423TIP3    H279761   4.664   5.217   3.788 -0.4161  3.0120  1.4029
19424TIP3   OH279762   6.734   0.059  13.357  0.3081  0.4388 -0.1530
19424TIP3    H179763   6.680   0.078  13.434  0.3490  0.0530 -0.0264
19424TIP3    H279764   6.775   0.143  13.335  0.6641  0.4489  0.5311
19425TIP3   OH279765   1.457   6.388   0.888 -0.1559 -0.0038 -0.4317
19425TIP3    H179766   1.363   6.400   0.873 -0.7116 -1.2372  1.7959
19425TIP3    H279767   1.470   6.293   0.885  0.7164  0.0586  0.9010
19426TIP3   OH279768   3.353   0.244  14.311 -0.4313 -0.0429  0.2334
19426TIP3    H179769   3.375   0.327  14.353  2.5766 -0.3070 -0.6409
19426TIP3    H279770   3.261   0.252  14.288  0.0275  3.4536 -0.7168
19427TIP3   OH279771   2.135   4.663   5.488 -0.0929 -0.4548  0.0690
19427TIP3    H179772   2.138   4.646   5.582 -0.4824  1.4200  0.4384
19427TIP3    H279773   2.224   4.642   5.458  0.3529 -0.0406  1.0533
19428TIP3   OH279774   6.382   4.398  15.079 -0.0263  0.1581 -0.2811
19428TIP3    H179775   6.311   4.442  15.125 -0.3081  0.0069 -0.5680
19428TIP3    H279776   6.460   4.450  15.099 -0.0586 -0.1735  0.7491
19429TIP3   OH279777   5.454   0.776   4.457 -0.0618  0.5844 -0.0148
19429TIP3    H179778   5.394   0.849   4.472 -2.7236 -1.8142  1.2502
19429TIP3    H279779   5.421   0.733   4.378  0.9242  0.1177 -0.1895
19430TIP3   OH279780   2.875   1.287  12.158 -0.3326  0.5076 -0.1849
19430TIP3    H179781   2.839   1.320  12.076 -2.0974 -1.5484 -0.2742
19430TIP3    H279782   2.927   1.211  12.132 -2.0430 -1.0093  0.6915
19431TIP3   OH279783   5.148   1.821   1.247 -0.1235  0.3341 -0.4181
19431TIP3    H179784   5.147   1.910   1.211  0.9667  0.1973 -0.7798
19431TIP3    H279785   5.227   1.817   1.301  0.1565 -0.6054 -0.8911
19432TIP3   OH279786   4.105   0.814  14.663 -0.3534  0.6138  0.2058
19432TIP3    H179787   4.134   0.888  14.610 -0.9343  1.5480  1.1756
19432TIP3    H279788   4.087   0.852  14.749 -2.3600 -0.3223  0.2144
19433TIP3   OH279789   5.122   2.888  13.858 -0.3546  0.5703  0.3114
19433TIP3    H179790   5.157   2.975  13.844  0.0904  0.0280 -2.1535
19433TIP3    H279791   5.138   2.841  13.776 -0.7312 -1.7819  1.5172
19434TIP3   OH279792   0.089   2.747   2.745  0.1120 -0.1285 -0.2275
19434TIP3    H179793   0.171   2.719   2.784  1.9855  1.1243 -3.0847
19434TIP3    H279794   0.041   2.666   2.729  1.0012 -0.9117  1.0070
19435TIP3   OH279795   2.762   2.243   2.274  0.3109  0.0474  0.5156
19435TIP3    H179796   2.795   2.300   2.344  0.0879  1.6383 -0.6391
19435TIP3    H279797   2.825   2.253   2.203 -1.7318  1.8669 -1.1177
19436TIP3   OH279798   2.135   1.500  13.716  0.2622  0.3488 -0.1787
19436TIP3    H179799   2.042   1.523  13.715  0.3852  0.9463  1.3395
19436TIP3    H279800   2.161   1.505  13.624 -0.9368  1.2710 -0.4904
19437TIP3   OH279801   0.368   3.215  10.297 -0.5236 -0.0346 -0.9280
19437TIP3    H179802   0.371   3.275  10.372 -1.3020 -0.4745 -0.5442
19437TIP3    H279803   0.326   3.137  10.330 -0.1713 -0.5286 -1.6302
19438TIP3   OH279804   1.392   2.346  13.947 -0.0265  0.0958  0.3890
19438TIP3    H179805   1.475   2.369  13.990 -0.1604 -1.3803  1.5084
19438TIP3    H279806   1.337   2.315  14.019 -1.3322  0.4655 -0.4491
19439TIP3   OH279807   2.824   1.737  11.143 -0.1482 -0.2164 -0.1444
19439TIP3    H179808   2.740   1.691  11.152 -0.5019  0.6858  1.3409
19439TIP3    H279809   2.833   1.752  11.049 -2.2139  0.6958 -0.2218
19440TIP3   OH279810   3.619   6.002  13.037  0.4131 -0.2254 -0.1426
19440TIP3    H179811   3.618   5.934  13.103 -0.0702  0.0900  0.1774
19440TIP3    H279812   3.674   5.967  12.967 -1.9240 -2.0364 -1.1328
19441TIP3   OH279813   3.472   6.199  11.558 -0.2599  0.1686  0.3928
19441TIP3    H179814   3.477   6.217  11.652 -1.4706 -0.1700  0.5344
19441TIP3    H279815   3.561   6.214  11.526 -0.1193  1.5588  1.3609
19442TIP3   OH279816   5.973   1.940  16.652  0.7010 -0.1707  0.0767
19442TIP3    H179817   6.026   1.951  16.573  0.6157  0.7646  0.1494
19442TIP3    H279818   6.037   1.948  16.724  0.2483  2.5573  0.2281
19443TIP3   OH279819   0.375   4.096   5.359  0.2121  0.3401 -0.1427
19443TIP3    H179820   0.333   4.023   5.314  1.5704 -0.2736 -0.4214
19443TIP3    H279821   0.459   4.107   5.315  0.7534  0.9512  1.0288
19444TIP3   OH279822   0.011   4.281  13.151  0.6401  0.0301 -0.2676
19444TIP3    H179823   0.039   4.363  13.109 -1.0517  1.0118  0.4606
19444TIP3    H279824  -0.083   4.276  13.132  0.7926 -1.9499 -0.6208
19445TIP3   OH279825   0.353   2.731   2.143 -0.3233  0.6112 -0.5948
19445TIP3    H179826   0.277   2.699   2.094 -0.7214 -1.2425  1.1549
19445TIP3    H279827   0.315   2.778   2.218  0.2524  0.9445 -0.5122
19446TIP3   OH279828   1.964   5.618  12.845 -0.3823  0.3203 -0.0101
19446TIP3    H179829   1.875   5.616  12.810 -0.2673 -0.5220 -0.2659
19446TIP3    H279830   2.013   5.558  12.788 -0.1021 -0.7676  1.3675
19447TIP3   OH279831   4.426   1.355   0.343  0.3491 -0.1925 -0.0865
19447TIP3    H179832   4.517   1.330   0.357  0.4646  0.0947 -0.3243
19447TIP3    H279833   4.382   1.330   0.425  0.7468  0.1601  0.2388
19448TIP3   OH279834   6.630   4.833  12.540 -0.0596  0.2488 -0.2689
19448TIP3    H179835   6.630   4.927  12.558  0.0243  0.6206 -2.1358
19448TIP3    H279836   6.663   4.825  12.450 -0.3720 -1.5423 -0.2557
19449TIP3   OH279837   4.988   1.734  14.897 -0.0477 -0.0814  0.6750
19449TIP3    H179838   5.027   1.787  14.828 -1.3779  1.1298  0.8091
19449TIP3    H279839   5.018   1.645  14.880 -0.9280  0.0717 -1.8883
19450TIP3   OH279840   5.445   5.717  15.677 -0.7213  0.3538 -0.1200
19450TIP3    H179841   5.403   5.785  15.624  2.1050  0.9891 -1.6459
19450TIP3    H279842   5.519   5.761  15.718 -0.5747 -1.1181  1.2207
19451TIP3   OH279843   1.456   1.224   4.158 -0.0813  0.2336 -0.3925
19451TIP3    H179844   1.416   1.288   4.099  1.4515 -0.0426 -1.7950
19451TIP3    H279845   1.447   1.263   4.245 -3.5036  0.0802 -0.6109
19452TIP3   OH279846   3.070   3.242   2.671 -0.3370 -0.3937 -0.1400
19452TIP3    H179847   3.116   3.239   2.754  0.2093 -0.7854 -0.4555
19452TIP3    H279848   3.059   3.336   2.653 -0.5561 -0.3104  0.4236
19453TIP3   OH279849   1.164   0.421   1.062  0.0403  0.5438 -0.0327
19453TIP3    H179850   1.136   0.411   0.971  0.7878 -0.1656 -0.1976
19453TIP3    H279851   1.246   0.372   1.067  0.2336  0.9424  0.9182
19454TIP3   OH279852   0.981   6.266  15.882 -0.0680  0.2415  0.1511
19454TIP3    H179853   1.010   6.184  15.922 -0.8424  0.8136  1.9131
19454TIP3    H279854   0.935   6.238  15.802  1.6491 -0.8856 -0.4813
19455TIP3   OH279855   3.054   2.654  12.765 -0.0970 -0.4337  0.2742
19455TIP3    H179856   2.994   2.593  12.808 -1.0702  1.2880  1.4413
19455TIP3    H279857   3.041   2.737  12.812  1.6272  0.5162 -0.8747
19456TIP3   OH279858   6.028   1.569   4.755 -0.2082  0.7664  0.2811
19456TIP3    H179859   6.057   1.487   4.716 -1.4127 -0.4929  1.9872
19456TIP3    H279860   5.949   1.592   4.707 -0.6091  0.2376  0.6910
19457TIP3   OH279861   6.052   0.002  15.283 -0.3375  0.0744  0.5280
19457TIP3    H179862   5.957  -0.000  15.271 -0.1841  0.5902 -0.7977
19457TIP3    H279863   6.067   0.080  15.337 -0.8059 -0.9170  2.1094
19458TIP3   OH279864   5.850   3.214   2.736 -0.1179 -0.1935  0.2888
19458TIP3    H179865   5.823   3.123   2.722  1.1140 -0.5404  0.1172
19458TIP3    H279866   5.804   3.263   2.668  0.3869 -0.8994 -0.5800
19459TIP3   OH279867   4.949   0.342  11.802 -0.0182 -0.1041 -0.0980
19459TIP3    H179868   4.869   0.291  11.795  0.4567 -0.8784  0.0500
19459TIP3    H279869   5.011   0.298  11.744  0.8796 -0.6527  1.2550
19460TIP3   OH279870   5.419   4.331  17.212  0.3140 -0.0747 -0.0200
19460TIP3    H179871   5.405   4.351  17.304  2.3141  0.4790  0.2007
19460TIP3    H279872   5.348   4.375  17.166  0.9718  2.1503  1.0269
19461TIP3   OH279873   3.570   0.506   2.472 -0.3756  0.1588  0.0374
19461TIP3    H179874   3.580   0.427   2.525 -0.3638 -1.5964 -2.5024
19461TIP3    H279875   3.477   0.507   2.449 -0.5793  1.4524  0.9093
19462TIP3   OH279876   4.225   4.703   0.900  0.4518 -0.2202 -0.1582
19462TIP3    H179877   4.206   4.654   0.981 -1.8900 -2.3718 -1.9144
19462TIP3    H279878   4.264   4.638   0.842  0.0389  0.7624 -1.5435
19463TIP3   OH279879   2.667   6.142  11.210 -0.0495  0.6321 -0.7360
19463TIP3    H179880   2.610   6.183  11.144  2.2574  0.8717 -2.6649
19463TIP3    H279881   2.713   6.073  11.162  1.2031  0.3774  0.7896
19464TIP3   OH279882   5.587   1.908  14.771 -0.1544  0.2706 -0.1323
19464TIP3    H179883   5.668   1.865  14.798 -0.1219  0.5427  0.2046
19464TIP3    H279884   5.556   1.856  14.697 -0.0642 -0.2783  0.2122
19465TIP3   OH279885   1.723   1.699   6.836 -0.6691 -0.0858 -0.4717
19465TIP3    H179886   1.713   1.640   6.762 -1.9110 -0.6140  0.1051
19465TIP3    H279887   1.646   1.756   6.832  0.3030  1.2315 -0.7863
19466TIP3   OH279888   0.754   2.760  11.599 -0.2704 -0.1822 -0.2639
19466TIP3    H179889   0.830   2.760  11.656 -1.8093 -1.1187  1.8737
19466TIP3    H279890   0.753   2.673  11.560  0.0923  0.0474 -0.7989
19467TIP3   OH279891   0.026   4.130  10.932 -0.3538  0.6656  0.2404
19467TIP3    H179892   0.062   4.138  10.844 -0.9987 -0.9926 -0.1849
19467TIP3    H279893  -0.068   4.120  10.920 -0.3987 -0.0699  1.0654
19468TIP3   OH279894   5.390   5.886  11.181 -0.3492 -0.0442 -0.5225
19468TIP3    H179895   5.368   5.910  11.271 -3.6703  1.7372 -1.7035
19468TIP3    H279896   5.454   5.952  11.154  1.2166 -1.0298  0.7564
19469TIP3   OH279897   4.289   3.055  12.738 -0.2568  0.1741  0.3403
19469TIP3    H179898   4.378   3.022  12.728 -1.3302 -2.2458 -1.6862
19469TIP3    H279899   4.242   2.984  12.783 -2.0786 -0.2375 -2.1217
19470TIP3   OH279900   1.481   2.238   1.383 -0.8742 -0.5517  0.3928
19470TIP3    H179901   1.498   2.144   1.380 -1.1899 -0.5887 -0.3948
19470TIP3    H279902   1.507   2.269   1.296  0.1961  0.2576  0.9864
19471TIP3   OH279903   1.473   1.272   3.818 -0.3226 -0.2972 -0.2053
19471TIP3    H179904   1.454   1.366   3.825 -2.4854 -0.8024  1.1341
19471TIP3    H279905   1.563   1.268   3.786  0.3412  2.2387  1.2371
19472TIP3   OH279906   2.232   2.405  13.695 -0.5386  0.0422 -0.1642
19472TIP3    H179907   2.191   2.487  13.722 -1.4011 -0.2530 -0.5438
19472TIP3    H279908   2.307   2.432  13.643 -0.7242  0.5930 -0.1537
19473TIP3   OH279909   6.036   5.291   5.686  0.2573  0.7119 -0.3138
19473TIP3    H179910   6.060   5.205   5.652  2.0237  1.4141 -0.8621
19473TIP3    H279911   5.985   5.331   5.616 -1.5346 -0.2859  0.3679
19474TIP3   OH279912   2.883   4.044   4.605 -0.1786 -0.1746  0.3840
19474TIP3    H179913   2.924   3.958   4.596  0.4540  0.0705  0.8704
19474TIP3    H279914   2.893   4.084   4.518 -0.8406 -0.7414  0.0397
19475TIP3   OH279915   0.764   0.080   0.978 -0.0869  0.2573  0.2404
19475TIP3    H179916   0.757   0.173   0.954 -0.6689  0.0730 -0.3293
19475TIP3    H279917   0.689   0.065   1.036 -0.6747 -0.1336 -0.6041
19476TIP3   OH279918   5.053   5.901  12.435  0.0074 -0.0546  0.4302
19476TIP3    H179919   5.009   5.820  12.412  0.6339 -0.2841  0.0187
19476TIP3    H279920   5.140   5.874  12.464  0.5857  0.5396 -0.7109
19477TIP3   OH279921   4.533   0.363  14.180  0.1441  0.2260  0.1654
19477TIP3    H179922   4.477   0.311  14.123 -0.1664  0.9272 -0.1764
19477TIP3    H279923   4.617   0.366  14.136  0.6824 -1.4564  1.0417
19478TIP3   OH279924   4.134   0.723   4.471 -0.2393  0.3719 -0.8764
19478TIP3    H179925   4.072   0.796   4.473  0.6008  1.0825 -0.2933
19478TIP3    H279926   4.081   0.645   4.487 -0.7780  1.1193  1.0402
19479TIP3   OH279927   5.952   0.041  14.821 -0.2398  0.3671  0.3009
19479TIP3    H179928   5.944   0.127  14.781 -3.4812  0.4675  1.0122
19479TIP3    H279929   5.976  -0.017  14.748  0.0974  1.5392 -0.5328
19480TIP3   OH279930   4.077   2.576  13.672  0.2137  0.4298  0.3765
19480TIP3    H179931   4.147   2.529  13.627  1.1522  2.1801 -0.0197
19480TIP3    H279932   4.114   2.596  13.758 -0.9275 -1.3292  1.3130
19481TIP3   OH279933   3.926   1.228   6.451  0.2837 -0.1181  0.1637
19481TIP3    H179934   3.902   1.312   6.488 -0.4317 -0.5447  0.6904
19481TIP3    H279935   4.004   1.201   6.498  0.0245 -0.1343  0.5864
19482TIP3   OH279936   2.042   3.723  14.136  0.2378 -0.4101 -0.2694
19482TIP3    H179937   1.973   3.788  14.130  2.0466  1.5444 -0.5083
19482TIP3    H279938   2.104   3.748  14.067  1.7281 -1.4393  0.6733
19483TIP3   OH279939   4.907   4.594   2.783  0.5393  0.1159  0.2755
19483TIP3    H179940   4.811   4.594   2.785  0.5142 -1.9272  0.3370
19483TIP3    H279941   4.933   4.596   2.876  0.4922 -2.0269  0.3701
19484TIP3   OH279942   2.427   5.213   5.274 -0.1271 -0.0207 -0.1804
19484TIP3    H179943   2.408   5.133   5.322  1.3957 -0.2457  0.0540
19484TIP3    H279944   2.462   5.184   5.191 -0.8233  0.3987 -0.6312
19485TIP3   OH279945   3.509   1.276   4.905 -0.4992  0.2694  0.2356
19485TIP3    H179946   3.416   1.263   4.918 -0.0770 -1.0984  2.1447
19485TIP3    H279947   3.525   1.367   4.930 -1.1531  0.2088  0.8733
19486TIP3   OH279948   1.476   5.767  11.000 -0.4491 -0.5231 -0.0934
19486TIP3    H179949   1.389   5.804  10.992 -0.0183  0.8875  1.5755
19486TIP3    H279950   1.533   5.828  10.953 -0.0992 -0.4348  0.4401
19487TIP3   OH279951   5.874   4.000  16.841  0.9747 -0.2247 -0.1787
19487TIP3    H179952   5.836   4.082  16.808 -1.3398 -1.0619  0.2981
19487TIP3    H279953   5.959   3.994  16.798  1.4575  2.7463  0.2734
19488TIP3   OH279954   0.522   1.588   0.534  0.0287  0.7119  0.1376
19488TIP3    H179955   0.536   1.645   0.610  0.1067  2.0351 -0.8562
19488TIP3    H279956   0.566   1.507   0.557 -1.2382  0.5678  2.1337
19489TIP3   OH279957   3.301   1.394   5.376 -0.1353 -0.5252  0.0793
19489TIP3    H179958   3.309   1.435   5.462 -0.1208 -0.3083 -0.0264
19489TIP3    H279959   3.313   1.300   5.393 -0.2164 -0.4911  0.3256
19490TIP3   OH279960   2.116   3.820   5.267  0.1617 -0.2018  0.0797
19490TIP3    H179961   2.063   3.742   5.283  2.0346 -1.6413 -0.3920
19490TIP3    H279962   2.166   3.798   5.188  1.4268  1.0753  0.5037
19491TIP3   OH279963   3.860   5.084  14.458 -0.1887 -0.1085 -0.1898
19491TIP3    H179964   3.946   5.048  14.441  0.5337  1.5625 -0.1927
19491TIP3    H279965   3.861   5.109  14.550 -1.1621 -1.3484  0.1730
19492TIP3   OH279966   2.001   5.849   0.478 -0.1527 -0.1072  0.0280
19492TIP3    H179967   2.056   5.886   0.408  0.5158 -0.1850  0.5060
19492TIP3    H279968   2.037   5.886   0.559 -1.5732  0.7998  0.2649
19493TIP3   OH279969   4.630   3.823   1.425 -0.0415  0.1518  0.3360
19493TIP3    H179970   4.604   3.870   1.504  1.0961 -1.5958  1.7885
19493TIP3    H279971   4.566   3.753   1.416  0.6544 -0.5045  0.5025
19494TIP3   OH279972   2.295   2.881  15.073  0.2772  0.4040  0.4264
19494TIP3    H179973   2.309   2.787  15.060 -1.7215  0.2659 -0.8670
19494TIP3    H279974   2.286   2.891  15.168 -1.1788 -0.9555  0.4358
19495TIP3   OH279975   0.439   0.463   4.652 -0.6579 -0.4634 -0.3104
19495TIP3    H179976   0.455   0.496   4.740 -0.6374  0.5678 -0.6874
19495TIP3    H279977   0.351   0.492   4.631 -0.3143  0.1268 -0.9830
19496TIP3   OH279978   6.189   5.597   6.372  1.0381  0.0839  0.5578
19496TIP3    H179979   6.257   5.560   6.315  0.5345  0.4046 -0.2639
19496TIP3    H279980   6.180   5.688   6.343  0.6378  0.1981  1.0275
19497TIP3   OH279981   6.169   0.723  16.778  0.1148 -0.4677 -0.7845
19497TIP3    H179982   6.164   0.811  16.815 -0.2516 -0.7867 -0.0669
19497TIP3    H279983   6.103   0.723  16.708  0.6643  0.0712 -1.2967
19498TIP3   OH279984   5.119   4.008   1.754  0.4074  0.2054  0.3580
19498TIP3    H179985   5.142   4.038   1.842  0.9782 -0.6062  0.4984
19498TIP3    H279986   5.032   3.969   1.763  0.7291 -0.4432  0.7000
19499TIP3   OH279987   2.949   3.124   2.317 -0.6035  0.4582  0.4551
19499TIP3    H179988   2.924   3.182   2.389 -1.2923 -0.5384  1.0344
19499TIP3    H279989   3.044   3.132   2.312 -0.5135  0.2726  1.7097
19500TIP3   OH279990   1.946   3.476   1.924  0.1605 -0.2505  0.2554
19500TIP3    H179991   1.901   3.552   1.886  1.6330  0.7468  0.4923
19500TIP3    H279992   1.951   3.495   2.017  1.9879  0.1282  0.0961
19501TIP3   OH279993   0.327   6.642  15.570 -0.5621  0.4757  0.1078
19501TIP3    H179994   0.363   6.609  15.652  1.4967 -0.4267 -1.1321
19501TIP3    H279995   0.331   6.737  15.578 -0.1468  0.3866  0.9578
19502TIP3   OH279996   4.125   5.174   1.570 -0.2230  0.1375 -0.3204
19502TIP3    H179997   4.204   5.158   1.622  0.3261  0.3632 -1.0586
19502TIP3    H279998   4.070   5.228   1.626  0.4725  0.5945 -0.0608
19503TIP3   OH279999   4.857   5.781  14.014  0.0465  0.1377 -1.0238
19503TIP3    H180000   4.915   5.726  13.962  0.0086 -0.5436 -0.3535
19503TIP3    H280001   4.884   5.870  13.994  0.1278 -0.1194 -2.0996
19504TIP3   OH280002   0.113   1.530   3.704  0.4576 -0.4072  0.1200
19504TIP3    H180003   0.018   1.537   3.691  0.7550 -0.4263 -2.3586
19504TIP3    H280004   0.151   1.567   3.624  2.5111 -2.8276 -0.0922
19505TIP3   OH280005   2.882   4.170  10.975  0.2279  0.2524  0.2859
19505TIP3    H180006   2.798   4.195  10.935 -0.1808 -0.2426  0.8204
19505TIP3    H280007   2.871   4.078  10.997  0.2612  0.6320  1.9590
19506TIP3   OH280008   3.161   5.068  11.842 -0.0742 -0.4428 -0.0366
19506TIP3    H180009   3.125   5.108  11.921 -0.2258  0.3936 -0.5230
19506TIP3    H280010   3.211   4.993  11.874 -0.8968 -0.6551  0.7797
19507TIP3   OH280011   6.028   6.207   2.950 -0.1082 -0.1522  0.6679
19507TIP3    H180012   6.021   6.300   2.929  0.9905  0.3115  2.2757
19507TIP3    H280013   5.972   6.196   3.026 -0.8900 -1.0012 -0.0148
19508TIP3   OH280014   1.637   6.314   2.520 -0.2914  0.3660 -0.3212
19508TIP3    H180015   1.581   6.255   2.570 -1.3250 -0.7439 -2.7303
19508TIP3    H280016   1.580   6.388   2.499 -0.0385  0.5366 -0.4039
19509TIP3   OH280017   5.254   0.505   4.739  0.0494  0.3842 -0.3607
19509TIP3    H180018   5.212   0.421   4.758 -2.1158  1.5317  0.1137
19509TIP3    H280019   5.300   0.528   4.820 -2.5252  1.4409  0.8585
19510TIP3   OH280020   3.133   4.907   3.732  0.1638 -0.1004 -0.5525
19510TIP3    H180021   3.104   4.836   3.674  0.6124  0.1480 -1.0786
19510TIP3    H280022   3.054   4.960   3.746 -0.5861 -1.6258  1.1850
19511TIP3   OH280023   4.802   1.224   1.911  0.8080 -0.5440 -0.6642
19511TIP3    H180024   4.710   1.217   1.937  0.9431 -1.6456 -0.4886
19511TIP3    H280025   4.843   1.271   1.984  0.5130 -0.6059 -0.4566
19512TIP3   OH280026   1.742   2.041   4.138 -0.3465 -0.3188  0.8497
19512TIP3    H180027   1.748   2.064   4.230 -1.2915 -0.3220  0.9232
19512TIP3    H280028   1.806   2.097   4.094 -1.2723  1.0927  1.2637
19513TIP3   OH280029   0.616   3.219  14.304 -0.6868  0.7304  0.4130
19513TIP3    H180030   0.602   3.307  14.269  0.6586  0.1099 -1.8418
19513TIP3    H280031   0.708   3.219  14.332 -0.7106  0.0833  0.4993
19514TIP3   OH280032   2.904   4.747  15.284  0.4051  0.2998  0.2138
19514TIP3    H180033   2.864   4.831  15.261 -0.2353 -0.0475  0.0730
19514TIP3    H280034   2.980   4.771  15.338 -0.1339  0.9406  0.6950
19515TIP3   OH280035   2.184   4.448  12.574  0.1369  0.3147 -0.3838
19515TIP3    H180036   2.204   4.404  12.491  0.4474 -0.6246  0.1861
19515TIP3    H280037   2.266   4.448  12.622  0.0797  1.3036 -0.2613
19516TIP3   OH280038   5.380   0.296  12.118  0.8811  0.1009 -0.0941
19516TIP3    H180039   5.324   0.231  12.160 -0.8263  0.7470 -1.3057
19516TIP3    H280040   5.450   0.312  12.182  0.2800 -1.4964  1.0086
19517TIP3   OH280041   1.883   2.988   5.941 -0.1983 -0.3895  0.0356
19517TIP3    H180042   1.976   2.989   5.919 -0.6482  0.0482 -1.9576
19517TIP3    H280043   1.843   2.930   5.876 -1.6690  1.3638 -0.6764
19518TIP3   OH280044   1.907   1.018  12.765  0.3702 -0.0519  0.2903
19518TIP3    H180045   1.973   1.084  12.782  1.7692 -0.6902 -2.4897
19518TIP3    H280046   1.944   0.937  12.800 -0.7984  0.3345  2.5369
19519TIP3   OH280047   5.418   5.449  14.116 -0.1052 -0.7768 -0.2642
19519TIP3    H180048   5.477   5.380  14.086  0.6691 -0.0556 -0.4187
19519TIP3    H280049   5.475   5.513  14.159 -0.6974  0.1662 -0.8499
19520TIP3   OH280050   5.669   2.665  14.606  0.2411  0.2124  0.0692
19520TIP3    H180051   5.637   2.605  14.539 -0.2563 -0.2561  0.7289
19520TIP3    H280052   5.717   2.610  14.668  1.6893  0.8053 -0.5032
19521TIP3   OH280053   5.939   0.048   1.449  0.3646  0.7017  0.1623
19521TIP3    H180054   5.952  -0.013   1.521 -0.0564 -0.2869 -0.5967
19521TIP3    H280055   5.845   0.066   1.449  0.4045  0.9090  0.0315
19522TIP3   OH280056   5.578   4.978  15.521  0.6311  0.1111 -0.4452
19522TIP3    H180057   5.498   5.025  15.546  0.5225 -0.9331  1.2647
19522TIP3    H280058   5.607   5.020  15.440 -1.6486  0.5144 -1.0861
19523TIP3   OH280059   0.962   1.840  15.140 -0.1269  0.1290  0.3375
19523TIP3    H180060   0.902   1.913  15.123  0.3662  0.3373 -0.5389
19523TIP3    H280061   1.046   1.881  15.159 -0.0088 -0.1933  0.5265
19524TIP3   OH280062   5.901   2.364   5.796  0.5938  0.5860  0.3328
19524TIP3    H180063   5.965   2.293   5.794 -0.4236 -0.3231 -1.0591
19524TIP3    H280064   5.894   2.391   5.704  0.3689  1.9474  0.7484
19525TIP3   OH280065   4.401   6.290  16.760  0.1630 -0.1570 -0.3041
19525TIP3    H180066   4.415   6.366  16.703 -1.2461 -0.0395 -0.5117
19525TIP3    H280067   4.441   6.217  16.712  0.3780  0.2238 -0.7102
19526TIP3   OH280068   5.319   2.966  14.882 -0.1221  0.0692 -0.2385
19526TIP3    H180069   5.370   3.046  14.891 -0.2117  0.2092 -0.9401
19526TIP3    H280070   5.240   2.993  14.836 -1.1252 -0.0269  1.4137
19527TIP3   OH280071   5.319   1.340   6.296  0.1811 -0.4643  0.5061
19527TIP3    H180072   5.230   1.369   6.315 -0.3103 -0.3416 -1.8005
19527TIP3    H280073   5.318   1.246   6.316 -0.0976 -0.2236  1.6778
19528TIP3   OH280074   0.942   5.183   2.197 -0.2552  0.3192 -0.4852
19528TIP3    H180075   0.968   5.269   2.229 -0.8142  0.7056 -1.0523
19528TIP3    H280076   0.916   5.135   2.276 -0.0440  0.7078 -0.1797
19529TIP3   OH280077   6.385   1.991   2.036 -0.1155  0.0504  0.5785
19529TIP3    H180078   6.325   2.031   1.973  0.1064 -0.9531 -0.2922
19529TIP3    H280079   6.439   2.063   2.067  1.5631  0.1942 -2.4117
19530TIP3   OH280080   2.575   4.232  11.582  0.1261  0.4342  0.0870
19530TIP3    H180081   2.583   4.327  11.569 -0.2578  0.3025 -1.1365
19530TIP3    H280082   2.647   4.195  11.532 -0.6958 -0.0078 -0.7887
19531TIP3   OH280083   1.820   0.086  11.288 -0.1826  0.2955 -0.5451
19531TIP3    H180084   1.790   0.134  11.365  1.0643  0.6636 -0.2813
19531TIP3    H280085   1.825   0.151  11.219 -0.4068  0.1547 -0.6923
19532TIP3   OH280086   5.470   1.239   6.580  0.2962  0.0365  0.1385
19532TIP3    H180087   5.472   1.144   6.579 -0.4663  0.0265 -0.6627
19532TIP3    H280088   5.500   1.263   6.668 -0.8039 -0.9702  0.7948
19533TIP3   OH280089   0.028   0.461  11.762 -0.3871  0.0345 -0.0021
19533TIP3    H180090   0.027   0.369  11.737  0.1435  0.6591 -2.4366
19533TIP3    H280091   0.113   0.493  11.734 -0.2446  1.0864  1.5794
19534TIP3   OH280092   1.733   6.202   0.898  0.4061  0.5661  0.2750
19534TIP3    H180093   1.643   6.167   0.904  0.1544  1.0754 -0.4584
19534TIP3    H280094   1.733   6.252   0.816  1.4920  0.1953  0.0502
19535TIP3   OH280095   2.073   2.921   6.190  0.1773 -0.0518 -0.4481
19535TIP3    H180096   2.011   2.982   6.231  1.8580  0.3347  1.6126
19535TIP3    H280097   2.076   2.948   6.098 -0.9776  1.3881 -0.0843
19536TIP3   OH280098   2.817   4.340   4.695 -0.4805 -0.1916  0.5131
19536TIP3    H180099   2.908   4.310   4.691 -0.3080  0.4804 -0.9150
19536TIP3    H280100   2.802   4.357   4.788  0.5760 -1.1653  0.8749
19537TIP3   OH280101   2.346   2.904   1.900 -0.4533 -0.1602  0.6626
19537TIP3    H180102   2.285   2.962   1.944 -0.7823 -0.2103  0.2726
19537TIP3    H280103   2.386   2.853   1.971 -0.7004  0.0255  0.9365
19538TIP3   OH280104   0.715   4.648  15.354  0.0055 -0.3918  0.2839
19538TIP3    H180105   0.703   4.560  15.391 -1.4016  0.3512  1.6451
19538TIP3    H280106   0.733   4.704  15.430 -0.5226  0.7393 -0.4093
19539TIP3   OH280107   4.514   4.737  10.407 -0.8176 -0.3837  0.0483
19539TIP3    H180108   4.487   4.818  10.365 -0.0296 -0.5470 -0.7746
19539TIP3    H280109   4.607   4.749  10.426 -0.4021 -1.5461 -1.1501
19540TIP3   OH280110   2.516   1.933  15.526 -0.2926 -0.0587 -0.0797
19540TIP3    H180111   2.469   1.970  15.601 -1.0561  1.7124 -1.3794
19540TIP3    H280112   2.450   1.884  15.478 -0.1980  0.2076 -0.4846
19541TIP3   OH280113   6.655   2.510   0.905  0.3591 -0.5351  0.1486
19541TIP3    H180114   6.628   2.459   0.829  1.1112 -0.6366 -0.0591
19541TIP3    H280115   6.735   2.554   0.877  0.8193 -0.8248  0.9828
19542TIP3   OH280116   1.263   1.861   3.580  0.0722  0.2928 -0.4044
19542TIP3    H180117   1.354   1.892   3.589 -0.3103  1.0638  0.9689
19542TIP3    H280118   1.221   1.927   3.525 -0.2834  1.2713  1.0289
19543TIP3   OH280119   0.881   1.682   4.080  0.1371  0.2587  0.2865
19543TIP3    H180120   0.930   1.621   4.024 -1.1094  1.6501 -2.4127
19543TIP3    H280121   0.848   1.628   4.151  0.9988 -1.7645 -0.7968
19544TIP3   OH280122   4.950   2.212   4.857 -0.2223 -0.0281  0.2580
19544TIP3    H180123   4.957   2.222   4.952 -0.2390 -1.9339  0.4793
19544TIP3    H280124   4.914   2.124   4.844 -0.3719  0.2624 -1.5117
19545TIP3   OH280125   3.231   6.617   3.865  0.1674  0.0707  0.3586
19545TIP3    H180126   3.247   6.646   3.955 -0.9374  1.2333  0.1945
19545TIP3    H280127   3.250   6.523   3.867 -1.0525 -0.1784  2.1345
19546TIP3   OH280128   0.346   4.468   5.833 -0.0405  0.1630 -0.3258
19546TIP3    H180129   0.302   4.537   5.883 -1.3122  0.1177 -1.3493
19546TIP3    H280130   0.300   4.466   5.749  3.5789  1.8750 -2.4665
19547TIP3   OH280131   4.617   2.139   6.235  0.4654  0.1030  0.3134
19547TIP3    H180132   4.536   2.110   6.278 -0.0768  2.3541  0.8762
19547TIP3    H280133   4.680   2.147   6.307 -0.1604  2.8969  0.6136
19548TIP3   OH280134   1.833   1.448  16.442  0.3265 -0.1493  0.2970
19548TIP3    H180135   1.818   1.478  16.531  0.2636 -0.4537  0.3891
19548TIP3    H280136   1.745   1.443  16.403  0.2560 -1.0991  0.5688
19549TIP3   OH280137   0.450   2.523  13.127  0.1071 -0.5836  0.2073
19549TIP3    H180138   0.446   2.611  13.166  0.8078  0.6608 -2.4213
19549TIP3    H280139   0.528   2.483  13.166 -0.6377 -0.3429  1.9970
19550TIP3   OH280140   0.903   4.918   1.185 -0.2926 -0.1589 -0.1480
19550TIP3    H180141   0.911   4.826   1.158 -1.9876 -1.7574  4.3214
19550TIP3    H280142   0.991   4.942   1.213 -0.1658 -0.9024  0.1058
19551TIP3   OH280143   5.374   1.353  12.210  0.3996 -0.0006  0.6643
19551TIP3    H180144   5.364   1.448  12.209  1.2245  0.0842 -0.8240
19551TIP3    H280145   5.386   1.331  12.302  0.7264  1.3953  0.9618
19552TIP3   OH280146   5.798   0.538   0.601  0.2363 -0.2704  0.1026
19552TIP3    H180147   5.853   0.548   0.523 -0.3201  0.1886 -0.2413
19552TIP3    H280148   5.765   0.626   0.618 -3.1649 -1.1009 -1.7765
19553TIP3   OH280149   1.700   3.014   0.915  0.6548 -0.1789  0.2719
19553TIP3    H180150   1.644   3.057   0.850 -0.2678 -1.8475 -0.0626
19553TIP3    H280151   1.686   3.065   0.995  2.3103  2.2973 -0.9479
19554TIP3   OH280152   6.369   0.823   5.868  0.0927  0.0785  0.6501
19554TIP3    H180153   6.309   0.780   5.929  0.5497  1.0469  1.8034
19554TIP3    H280154   6.449   0.769   5.870  1.1935  1.7306  3.1860
19555TIP3   OH280155   4.428   3.042   3.542  0.3741 -0.3389 -0.0943
19555TIP3    H180156   4.445   2.959   3.585  0.7812 -0.8713 -1.2599
19555TIP3    H280157   4.340   3.034   3.507 -0.1679  0.3017  1.1059
19556TIP3   OH280158   3.058   1.320   2.393  0.1828  0.1132  0.7951
19556TIP3    H180159   3.110   1.384   2.442  0.1366  1.7290 -1.1975
19556TIP3    H280160   3.119   1.248   2.375  1.4305  1.4429 -0.4546
19557TIP3   OH280161   4.619   3.657  11.501  0.5995  0.5513  0.0834
19557TIP3    H180162   4.612   3.566  11.532  0.5933  0.0028 -1.5085
19557TIP3    H280163   4.592   3.709  11.577 -0.7721 -0.8304  0.5924
19558TIP3   OH280164   4.838   3.074  15.710 -0.5693 -0.5674 -0.4768
19558TIP3    H180165   4.851   2.981  15.689 -0.9062 -0.7765  0.2239
19558TIP3    H280166   4.784   3.107  15.639 -1.8307 -1.3000  0.1277
19559TIP3   OH280167   3.676   3.245  14.490 -0.3461  0.0103 -0.5592
19559TIP3    H180168   3.589   3.275  14.515 -1.4889 -1.9038 -2.0901
19559TIP3    H280169   3.661   3.185  14.417  2.3836  0.7728 -1.8216
19560TIP3   OH280170   5.796   3.912   0.562  0.1141  0.5813 -0.6962
19560TIP3    H180171   5.751   3.835   0.595 -1.7738  1.2116 -1.6982
19560TIP3    H280172   5.885   3.882   0.544 -0.9161 -1.7347 -2.2762
19561TIP3   OH280173   5.541   1.357  11.186  0.2981 -0.1482 -0.0209
19561TIP3    H180174   5.628   1.341  11.222  0.2358 -0.8564 -0.1874
19561TIP3    H280175   5.557   1.379  11.095  0.3125 -0.1396 -0.0163
19562TIP3   OH280176   2.559   3.367  11.573 -0.0740  0.1156 -0.1235
19562TIP3    H180177   2.541   3.459  11.554 -1.9528  0.0514  1.2471
19562TIP3    H280178   2.485   3.319  11.535  1.1928 -0.9208 -1.3714
19563TIP3   OH280179   1.594   5.972   2.131  0.3862 -0.0184 -0.7288
19563TIP3    H180180   1.579   6.054   2.085  0.7649 -0.4435 -1.6203
19563TIP3    H280181   1.687   5.973   2.154  0.3756 -0.1628 -0.6745
19564TIP3   OH280182   6.309   5.725   5.025 -0.0409  0.4318  0.9179
19564TIP3    H180183   6.307   5.629   5.024 -1.6552  0.3807 -2.7283
19564TIP3    H280184   6.391   5.748   4.981  0.6423  0.7664  2.3335
19565TIP3   OH280185   1.185   1.804  13.226  0.3160  0.3794 -0.3616
19565TIP3    H180186   1.098   1.795  13.187 -0.1724  1.2190  0.5096
19565TIP3    H280187   1.168   1.824  13.318  1.4386  0.3009 -0.1265
19566TIP3   OH280188   6.719   4.845   6.086  0.3619 -0.2812  0.3714
19566TIP3    H180189   6.807   4.857   6.121 -0.0089  0.0670  1.1880
19566TIP3    H280190   6.687   4.765   6.128 -0.8489  1.2461  2.3891
19567TIP3   OH280191   0.193   5.746   2.426 -0.0273  0.5492 -0.4612
19567TIP3    H180192   0.222   5.836   2.437 -1.2418  1.2943 -3.0619
19567TIP3    H280193   0.108   5.753   2.383 -0.7789 -1.8076  0.5395
19568TIP3   OH280194   4.236   5.337  15.343  0.0105 -0.4261  0.4376
19568TIP3    H180195   4.301   5.407  15.353  0.0603 -0.8785  3.7369
19568TIP3    H280196   4.160   5.368  15.393 -1.0132 -1.4902 -0.4419
19569TIP3   OH280197   2.375   0.657  16.731  0.3374 -0.2832  0.5845
19569TIP3    H180198   2.314   0.688  16.798  0.1409 -0.5587  0.5368
19569TIP3    H280199   2.327   0.670  16.648 -0.2545 -1.8701  0.6550
19570TIP3   OH280200   3.238   5.420  14.670 -0.0541 -0.0310 -0.5362
19570TIP3    H180201   3.272   5.437  14.582  0.8632  2.1704  0.1894
19570TIP3    H280202   3.224   5.507  14.708  0.5375 -0.9172  1.8509
19571TIP3   OH280203   1.698   3.600   6.675 -0.0733 -0.2151 -0.3178
19571TIP3    H180204   1.635   3.662   6.637 -0.9777 -1.0886 -0.2515
19571TIP3    H280205   1.644   3.533   6.716  0.9094 -0.6669  0.2414
19572TIP3   OH280206   3.524   3.935   4.760 -0.0969 -0.1544  0.3949
19572TIP3    H180207   3.463   3.972   4.824 -0.0078  0.4374  0.1450
19572TIP3    H280208   3.519   3.841   4.773 -1.3294 -0.1310  0.1484
19573TIP3   OH280209   2.649   0.533   3.058 -0.1795 -0.2914 -0.6045
19573TIP3    H180210   2.624   0.625   3.067  0.4825 -0.2170  0.5070
19573TIP3    H280211   2.651   0.500   3.147 -3.6405 -2.2607 -1.1535
19574TIP3   OH280212   2.388   0.374   5.897 -0.1467  0.0847  0.0327
19574TIP3    H180213   2.482   0.367   5.886 -0.3199 -3.1001  0.2007
19574TIP3    H280214   2.372   0.348   5.988 -1.2400 -0.0909 -0.1944
19575TIP3   OH280215   1.884   5.917  15.147 -0.0328 -0.2628 -0.3114
19575TIP3    H180216   1.970   5.878  15.132  0.2421 -0.0235  0.6248
19575TIP3    H280217   1.902   5.998  15.196 -0.6548  0.6673 -1.5937
19576TIP3   OH280218   4.156   0.416   1.627 -0.3343  0.2226 -0.7196
19576TIP3    H180219   4.115   0.502   1.634  1.7959  1.1790  0.6723
19576TIP3    H280220   4.236   0.432   1.576  1.2459 -0.4407  1.4455
19577TIP3   OH280221   5.977   2.881   2.222  0.1752 -0.2259 -0.2889
19577TIP3    H180222   6.064   2.916   2.205  0.6528 -0.6932  1.1363
19577TIP3    H280223   5.927   2.902   2.143  1.6016 -0.0657 -1.1660
19578TIP3   OH280224   4.135   5.363  13.238 -0.0401  0.0156 -0.3491
19578TIP3    H180225   4.191   5.294  13.274 -0.4271  0.3846  0.9884
19578TIP3    H280226   4.119   5.422  13.312  0.8360  1.9156 -1.6372
19579TIP3   OH280227   1.004   1.794   6.072 -0.0350 -0.0380  0.1131
19579TIP3    H180228   1.053   1.743   6.137  0.7154  0.2398 -0.2269
19579TIP3    H280229   1.022   1.885   6.096 -0.5527  0.0618  0.1109
19580TIP3   OH280230   5.553   2.712  13.149 -0.0525 -0.3976  0.3982
19580TIP3    H180231   5.465   2.682  13.126 -0.5482  1.4885 -0.2960
19580TIP3    H280232   5.611   2.665  13.089 -0.6103 -1.4557  0.6810
19581TIP3   OH280233   6.255   1.407  12.588  0.1759  0.1044 -0.1367
19581TIP3    H180234   6.320   1.393  12.657 -0.0191  0.1380  0.0550
19581TIP3    H280235   6.245   1.321  12.547  1.0553  0.3185 -0.8000
19582TIP3   OH280236   5.386   1.433  15.343  0.2058  0.5240 -0.0159
19582TIP3    H180237   5.362   1.508  15.398  2.0999 -0.0797  1.7272
19582TIP3    H280238   5.409   1.364  15.406 -0.2053 -1.0800 -1.5899
19583TIP3   OH280239   2.907   6.482   2.987  0.6018 -0.2614  0.2823
19583TIP3    H180240   2.871   6.413   3.044 -1.5438  0.2073 -0.4895
19583TIP3    H280241   2.962   6.434   2.925  0.3419 -1.1363  0.7082
19584TIP3   OH280242   2.363   6.104   4.152  0.0416  0.0688 -0.6627
19584TIP3    H180243   2.372   6.016   4.116 -0.4227  0.0378 -0.7068
19584TIP3    H280244   2.302   6.093   4.225  1.0032  0.1208  0.1556
19585TIP3   OH280245   6.169   0.271  15.311 -0.1027 -0.0636  0.3860
19585TIP3    H180246   6.220   0.253  15.232 -0.7825  0.7338 -0.2441
19585TIP3    H280247   6.226   0.243  15.383  0.1425 -1.6805 -0.4175
19586TIP3   OH280248   1.051   0.424   4.907  0.5784  0.1556  0.3026
19586TIP3    H180249   0.971   0.429   4.855  0.9212  0.0517 -0.2435
19586TIP3    H280250   1.021   0.408   4.996  0.0490 -1.4546 -0.1456
19587TIP3   OH280251   3.334   0.174   3.599  0.3978  0.5395  0.1828
19587TIP3    H180252   3.378   0.259   3.599  2.8314 -0.6991 -0.3482
19587TIP3    H280253   3.287   0.172   3.683  0.8959  2.0967  0.5197
19588TIP3   OH280254   2.748   6.584  15.293  0.1726  0.1949  0.2234
19588TIP3    H180255   2.789   6.633  15.365 -2.1354  0.9313  1.0885
19588TIP3    H280256   2.687   6.647  15.254 -0.1045 -0.8599 -1.0422
19589TIP3   OH280257   0.691   4.851   5.554  0.6052  0.2693  0.4546
19589TIP3    H180258   0.674   4.833   5.646  0.9161  0.6869  0.5969
19589TIP3    H280259   0.653   4.777   5.507 -2.6921  1.7452  0.6686
19590TIP3   OH280260   2.357   3.129   4.224  0.8480 -0.0608  0.4717
19590TIP3    H180261   2.375   3.215   4.262  0.8908 -0.1820  0.7333
19590TIP3    H280262   2.355   3.143   4.130  0.4536  0.3052  0.5323
19591TIP3   OH280263   3.942   0.464  15.804  0.2587  0.0705  1.0361
19591TIP3    H180264   4.032   0.433  15.808  1.0581  2.2218  0.4842
19591TIP3    H280265   3.945   0.538  15.744 -1.4795  1.4791  2.6117
19592TIP3   OH280266   0.866   0.014  14.315  0.0411 -0.4696 -0.5591
19592TIP3    H180267   0.894  -0.047  14.247 -1.0401 -1.1922 -0.3724
19592TIP3    H280268   0.922  -0.005  14.390 -0.1376 -1.0616 -0.5799
19593TIP3   OH280269   2.848   6.101  14.527 -0.5585  0.0614  0.0866
19593TIP3    H180270   2.754   6.117  14.523 -0.8432 -1.0245  1.8513
19593TIP3    H280271   2.862   6.024  14.472 -0.5120  0.9120 -1.1150
19594TIP3   OH280272   5.123   2.786   3.345  0.2471  0.5193  0.3920
19594TIP3    H180273   5.077   2.866   3.322  0.8823  1.0110  0.8403
19594TIP3    H280274   5.184   2.811   3.414 -1.0246 -0.7749  2.0359
19595TIP3   OH280275   2.189   4.339   0.394  0.0897  0.0722  0.2887
19595TIP3    H180276   2.240   4.383   0.326  0.3368 -2.2015 -1.0590
19595TIP3    H280277   2.099   4.342   0.362 -0.2126  1.5313  1.2640
19596TIP3   OH280278   3.855   3.557   2.494  0.2276 -0.2166 -0.1141
19596TIP3    H180279   3.879   3.646   2.472  0.4535 -0.4610 -0.8572
19596TIP3    H280280   3.868   3.507   2.413  0.7908 -1.0608  0.4808
19597TIP3   OH280281   4.044   0.861  16.548  0.0846 -0.0325  0.2406
19597TIP3    H180282   4.011   0.780  16.587  1.1458 -0.5544  0.0526
19597TIP3    H280283   3.992   0.930  16.590 -0.1994 -0.7373  1.0611
19598TIP3   OH280284   1.568   3.757  12.961  0.2135  0.1563  0.0456
19598TIP3    H180285   1.481   3.790  12.985 -0.2748 -0.5672 -0.7086
19598TIP3    H280286   1.585   3.796  12.876 -0.4515 -1.6491 -0.9464
19599TIP3   OH280287   3.937   6.033   5.911 -0.1485 -0.4236  0.1739
19599TIP3    H180288   3.899   6.081   5.837 -1.2325  0.0640  1.0321
19599TIP3    H280289   4.032   6.048   5.903 -0.1033 -1.7241 -2.0327
19600TIP3   OH280290   0.677   0.632  15.165 -0.8835  0.7729  0.6421
19600TIP3    H180291   0.668   0.635  15.261 -1.1408  0.9123  0.6149
19600TIP3    H280292   0.589   0.652  15.133 -0.7209  1.0517  0.3732
19601TIP3   OH280293   3.021   0.679   4.833 -0.1673  0.5076 -0.7364
19601TIP3    H180294   2.945   0.640   4.877 -1.0610  0.3496 -2.3961
19601TIP3    H280295   3.082   0.607   4.822  0.6697  0.8285  1.4713
19602TIP3   OH280296   4.707   1.040  12.924 -0.1799  0.1595  0.7950
19602TIP3    H180297   4.788   1.068  12.879 -0.3883  0.5554  0.6637
19602TIP3    H280298   4.672   0.971  12.867  0.7402 -0.9275  1.5160
19603TIP3   OH280299   6.123   4.134  12.233 -0.1766  0.0842 -0.2031
19603TIP3    H180300   6.133   4.068  12.163 -2.1670  1.7806 -2.1781
19603TIP3    H280301   6.031   4.127  12.259  0.0753  0.8023  0.8916
19604TIP3   OH280302   0.092   2.228   5.926  0.8679  0.4553  0.1432
19604TIP3    H180303   0.037   2.155   5.956  0.3259  0.4125 -0.9070
19604TIP3    H280304   0.036   2.305   5.937  1.0452  0.5693  0.2357
19605TIP3   OH280305   4.271   2.905   4.125 -0.1558  0.1103 -0.4597
19605TIP3    H180306   4.350   2.889   4.177  0.7583 -0.2037 -1.9255
19605TIP3    H280307   4.259   3.000   4.128 -0.6245  0.0231  1.0464
19606TIP3   OH280308   1.816   2.060   1.611  0.0734  0.4305 -0.1798
19606TIP3    H180309   1.743   2.122   1.615  0.4955  0.8706  0.7218
19606TIP3    H280310   1.857   2.076   1.526 -0.9715  0.0678 -0.7682
19607TIP3   OH280311   1.444   0.420   5.770  0.2431 -0.1729 -0.4135
19607TIP3    H180312   1.453   0.394   5.862  0.9885  0.0143 -0.4249
19607TIP3    H280313   1.531   0.454   5.747 -0.2800  0.8970 -0.8402
19608TIP3   OH280314   2.564   3.123  17.121 -0.3692 -0.1793 -0.4080
19608TIP3    H180315   2.603   3.132  17.035  0.7038  1.6333  0.2250
19608TIP3    H280316   2.621   3.062  17.168 -0.9149 -1.1116 -0.9459
19609TIP3   OH280317   0.219   2.849  15.698 -0.3514  0.5983  0.6848
19609TIP3    H180318   0.295   2.905  15.710 -1.4400  2.0856  0.7738
19609TIP3    H280319   0.197   2.857  15.605  0.5568 -1.0967  0.3073
19610TIP3   OH280320   3.746   3.809   3.990 -0.0951  0.1616 -0.2162
19610TIP3    H180321   3.826   3.813   4.042 -0.2107 -3.8418  0.4231
19610TIP3    H280322   3.768   3.854   3.908  1.9489  1.3696  0.9751
19611TIP3   OH280323   3.404   0.008  11.078  0.2324  0.4685 -0.5130
19611TIP3    H180324   3.431  -0.071  11.124  2.6776  0.9248 -1.0779
19611TIP3    H280325   3.388   0.072  11.147 -1.3068 -0.3884 -0.0737
19612TIP3   OH280326   2.836   2.369   4.254 -0.0691 -0.2909  0.5168
19612TIP3    H180327   2.905   2.420   4.295 -0.7241  1.2266 -0.1967
19612TIP3    H280328   2.877   2.330   4.177 -0.3853  2.0163 -0.8836
19613TIP3   OH280329   1.127   6.700  12.891 -0.5570 -0.2291  0.5565
19613TIP3    H180330   1.067   6.751  12.836  0.0510 -1.5110 -1.3485
19613TIP3    H280331   1.171   6.641  12.830  0.7538 -1.1200  2.3195
19614TIP3   OH280332   3.549   5.646  14.090 -0.4308  0.3402  0.1598
19614TIP3    H180333   3.608   5.617  14.159 -1.2351 -0.0594  0.6793
19614TIP3    H280334   3.574   5.593  14.014 -0.4372 -0.1596  0.5055
19615TIP3   OH280335   5.636   6.686   2.515  0.0267 -0.1664 -0.3298
19615TIP3    H180336   5.591   6.759   2.472  1.3931  1.6378  1.2727
19615TIP3    H280337   5.679   6.639   2.443  0.5374  1.5687 -1.1640
19616TIP3   OH280338   5.308   2.252  12.372 -0.5433  0.0932 -0.5065
19616TIP3    H180339   5.332   2.274  12.282 -1.9422 -0.9558 -1.1587
19616TIP3    H280340   5.294   2.337  12.414  0.4025  0.6039 -1.2051
19617TIP3   OH280341   5.563   0.512   1.187 -0.2553 -0.2717 -0.2120
19617TIP3    H180342   5.545   0.462   1.108 -1.8888  2.2559 -1.5069
19617TIP3    H280343   5.657   0.528   1.185  0.6687 -4.8742  1.2646
19618TIP3   OH280344   2.621   0.235   0.941  0.8916  0.5077  0.3629
19618TIP3    H180345   2.606   0.141   0.952 -1.8960  0.8928  0.2908
19618TIP3    H280346   2.673   0.242   0.861  1.7523 -1.0097  0.7747
19619TIP3   OH280347   2.880   4.448   1.513  0.2194 -0.2327  0.4364
19619TIP3    H180348   2.862   4.445   1.419 -0.5003 -0.1609  0.5635
19619TIP3    H280349   2.963   4.495   1.521  0.4218 -0.4845 -0.1791
19620TIP3   OH280350   6.447   5.639  14.593  0.7042  0.2567 -0.1682
19620TIP3    H180351   6.365   5.646  14.544 -1.2048  1.6269  3.0170
19620TIP3    H280352   6.477   5.730  14.602  0.7639  0.1000  1.4837
19621TIP3   OH280353   5.280   2.788   1.975 -0.2336  0.2938 -0.2207
19621TIP3    H180354   5.204   2.844   1.983 -0.9026 -0.7701  1.1723
19621TIP3    H280355   5.343   2.823   2.038  0.9003  1.8647 -2.1797
19622TIP3   OH280356   0.895   1.662  11.195 -0.9113 -0.0917  0.4073
19622TIP3    H180357   0.888   1.567  11.195 -1.1834 -0.0706  0.1794
19622TIP3    H280358   0.988   1.679  11.210 -0.4683 -0.4143 -1.8740
19623TIP3   OH280359   4.294   5.817  15.426 -0.5837 -0.1187  0.0586
19623TIP3    H180360   4.273   5.725  15.445 -0.9845 -0.1587 -0.5675
19623TIP3    H280361   4.277   5.863  15.508  0.4242 -0.7371  0.6170
19624TIP3   OH280362   4.532   3.949  11.221 -0.5829  0.4285  0.4132
19624TIP3    H180363   4.461   4.014  11.224 -0.6991  0.4358 -1.7215
19624TIP3    H280364   4.602   3.992  11.172  0.3454 -0.1137  1.2554
19625TIP3   OH280365   5.459   1.080   1.591  0.1322  0.0115  0.0598
19625TIP3    H180366   5.548   1.047   1.602 -0.0123 -0.3278  0.1928
19625TIP3    H280367   5.402   1.005   1.610 -0.1922  0.3369  0.3982
19626TIP3   OH280368   1.761   0.490  14.656 -0.1473  0.0619  0.1036
19626TIP3    H180369   1.759   0.534  14.571  0.1110 -1.0899 -0.4977
19626TIP3    H280370   1.840   0.524  14.698  0.5491 -0.5023 -0.7287
19627TIP3   OH280371   4.593   5.605  14.528  0.4470  0.1537  0.1930
19627TIP3    H180372   4.622   5.516  14.506  1.2691 -0.0185  1.9148
19627TIP3    H280373   4.598   5.609  14.623 -0.3575  1.7986  0.1816
19628TIP3   OH280374   4.123   3.492  16.302  0.4055  1.1007  0.3038
19628TIP3    H180375   4.078   3.529  16.226  0.9392  0.8662 -0.1265
19628TIP3    H280376   4.053   3.454  16.355  0.1752  0.1094 -0.7069
19629TIP3   OH280377   1.081   6.388  11.818  0.7614  0.1110  0.4250
19629TIP3    H180378   0.991   6.409  11.843  0.9395  1.4154 -0.0063
19629TIP3    H280379   1.111   6.327  11.886 -0.5644 -0.6355  0.3537
19630TIP3   OH280380   4.057   6.759  11.399 -0.1022 -0.0049  0.6579
19630TIP3    H180381   4.001   6.816  11.345 -1.0208  1.5947  3.2077
19630TIP3    H280382   4.100   6.701  11.336 -3.0472  0.1217 -1.5511
19631TIP3   OH280383   0.581   6.602   2.676 -0.7356  0.0290  0.0438
19631TIP3    H180384   0.578   6.640   2.588 -0.2950  0.4801  0.2210
19631TIP3    H280385   0.657   6.545   2.675  0.7502  1.9452  0.8878
19632TIP3   OH280386   2.667   3.152  16.422 -0.1484  0.0464 -0.6342
19632TIP3    H180387   2.643   3.061  16.437 -0.2539  0.1954  0.1434
19632TIP3    H280388   2.758   3.158  16.451 -0.0819  0.1403 -0.8667
19633TIP3   OH280389   4.268   3.154  17.051 -0.7716 -0.2315 -0.7416
19633TIP3    H180390   4.267   3.071  17.003 -2.2916  0.3080 -1.7103
19633TIP3    H280391   4.245   3.131  17.141 -0.9175 -0.8859 -0.9499
19634TIP3   OH280392   4.510   2.303  15.720  0.1834 -0.0103  0.1896
19634TIP3    H180393   4.428   2.348  15.740 -0.3311 -0.0183 -1.8229
19634TIP3    H280394   4.578   2.367  15.742 -0.3005 -0.2711  2.5682
19635TIP3   OH280395   0.268   0.264  12.265  0.1525 -0.3621  0.0875
19635TIP3    H180396   0.347   0.251  12.214  0.8866  0.3162  1.0193
19635TIP3    H280397   0.210   0.314  12.208  0.1762 -1.3474 -0.8013
19636TIP3   OH280398   5.167   5.810  13.576  0.1902  0.0424  0.6498
19636TIP3    H180399   5.140   5.902  13.581  1.6557  0.4865  0.5338
19636TIP3    H280400   5.262   5.812  13.582  0.4006 -1.3046 -1.6771
19637TIP3   OH280401   3.952   0.864  16.274  0.6421  0.1762 -0.4179
19637TIP3    H180402   3.958   0.769  16.267  2.2164  0.3211 -1.2727
19637TIP3    H280403   4.003   0.886  16.352 -0.6477  0.2413  0.4273
19638TIP3   OH280404   2.075   5.720  11.550  0.0679  0.2344  0.5399
19638TIP3    H180405   2.134   5.768  11.608  1.3629  0.3170 -0.7981
19638TIP3    H280406   2.127   5.646  11.519 -0.1300  0.9087 -1.5164
19639TIP3   OH280407   6.673   2.798   4.292  0.4298 -0.3520  0.2547
19639TIP3    H180408   6.604   2.751   4.337 -0.9255  0.7345 -0.6489
19639TIP3    H280409   6.737   2.731   4.268 -0.9078 -1.5436 -0.0028
19640TIP3   OH280410   1.719   2.554   2.116 -0.4825  0.1449 -1.5226
19640TIP3    H180411   1.777   2.560   2.040  0.5622 -1.9010 -0.8979
19640TIP3    H280412   1.699   2.461   2.125 -2.6669  0.6439 -0.8050
19641TIP3   OH280413   2.095   1.782   4.070  0.1603  0.2855  0.2460
19641TIP3    H180414   2.011   1.771   4.114 -0.4846  0.5531 -0.9165
19641TIP3    H280415   2.126   1.693   4.054 -0.2824  0.1826 -0.0473
19642TIP3   OH280416   0.994   2.940  10.959 -0.2078  0.3752 -0.4029
19642TIP3    H180417   0.923   2.914  11.018  1.3789  0.6736  1.6585
19642TIP3    H280418   1.037   2.857  10.936  0.6450  0.4847  0.7685
19643TIP3   OH280419   5.029   3.102   1.811  0.1914 -0.3085  1.2303
19643TIP3    H180420   5.056   3.030   1.868 -0.3184  0.2884  2.2341
19643TIP3    H280421   5.076   3.179   1.844 -1.1033  0.3098  1.6778
19644TIP3   OH280422   6.568   5.139  13.682 -0.6743  0.5271 -0.4075
19644TIP3    H180423   6.533   5.177  13.763 -0.3374  1.0128 -0.4854
19644TIP3    H280424   6.493   5.134  13.623 -0.8824  0.3449 -0.1247
19645TIP3   OH280425   3.478   1.344   0.388  0.4651  0.1930  0.0910
19645TIP3    H180426   3.531   1.307   0.317  0.0736  2.1987 -1.2976
19645TIP3    H280427   3.542   1.364   0.457  1.0075 -0.7807 -0.1165
19646TIP3   OH280428   4.666   5.008   6.258 -0.5961  0.0626 -0.1762
19646TIP3    H180429   4.745   5.062   6.257 -1.3663  1.2225  0.6588
19646TIP3    H280430   4.631   5.016   6.169  0.3527 -0.6581 -0.6229
19647TIP3   OH280431   6.773   6.315  14.097  0.9397  0.9131 -0.0553
19647TIP3    H180432   6.756   6.376  14.168  0.5133  1.3256 -0.5117
19647TIP3    H280433   6.869   6.308  14.094  0.9342  0.2652  1.0879
19648TIP3   OH280434   3.610   0.116   5.702 -0.2192  0.5854  0.5623
19648TIP3    H180435   3.616   0.091   5.610 -0.9999  0.5974  0.5064
19648TIP3    H280436   3.520   0.095   5.727  0.1120  0.2005  1.4376
19649TIP3   OH280437   0.506   1.179   3.057 -0.1455  0.0777  0.0999
19649TIP3    H180438   0.553   1.196   2.975 -0.9008 -0.0063 -0.3543
19649TIP3    H280439   0.518   1.086   3.073  0.1777  0.1349  0.1996
19650TIP3   OH280440   3.462   2.213  12.360 -0.1564 -0.3262  0.0607
19650TIP3    H180441   3.449   2.308  12.368  0.4599 -0.2767  0.4935
19650TIP3    H280442   3.384   2.175  12.402 -0.1939 -0.0149  0.2753
19651TIP3   OH280443   5.354   1.929  12.983 -0.4411 -0.5263 -0.4850
19651TIP3    H180444   5.370   1.958  13.073  2.6826  0.7378 -1.3455
19651TIP3    H280445   5.262   1.948  12.967 -1.1382 -1.0809  2.5292
19652TIP3   OH280446   1.047   1.172  15.450  0.1924  0.1630 -0.0728
19652TIP3    H180447   1.070   1.187  15.542  0.2249 -1.0837  0.1305
19652TIP3    H280448   0.958   1.206  15.442 -0.7673 -2.0428  1.0606
19653TIP3   OH280449   3.565   5.224   6.489  0.3432 -0.3276  0.6371
19653TIP3    H180450   3.650   5.201   6.526  0.4434  0.4904  0.9326
19653TIP3    H280451   3.561   5.319   6.498 -0.8697 -0.4281  1.2003
19654TIP3   OH280452   1.560   1.869  14.942  0.0200  0.5544 -0.0709
19654TIP3    H180453   1.637   1.841  14.892 -0.0232  0.1059  0.1108
19654TIP3    H280454   1.524   1.788  14.978  1.5940  1.1249  2.9680
19655TIP3   OH280455   6.285   0.069   3.047 -0.1265 -0.1872 -0.0663
19655TIP3    H180456   6.361   0.121   3.074  0.0233  0.0874 -1.0266
19655TIP3    H280457   6.235   0.126   2.989  0.3620 -1.3141 -1.6293
19656TIP3   OH280458   4.261   6.560  14.197 -0.7527 -0.5764 -0.0312
19656TIP3    H180459   4.310   6.478  14.198 -0.4967 -0.4277 -0.4121
19656TIP3    H280460   4.249   6.582  14.290 -1.7682 -1.6018  0.1027
19657TIP3   OH280461   5.119   1.234  12.560 -0.0881  0.2620 -0.5061
19657TIP3    H180462   5.159   1.319  12.539 -2.3396  1.3605 -0.5443
19657TIP3    H280463   5.033   1.237  12.518 -0.9954 -1.2385  1.1565
19658TIP3   OH280464   2.194   4.113   5.747  0.0152  0.4495 -0.2671
19658TIP3    H180465   2.170   4.166   5.670 -0.1790  2.2667  1.0087
19658TIP3    H280466   2.268   4.160   5.786  0.2179 -0.5562  0.5787
19659TIP3   OH280467   3.625   0.283   4.832  0.3772  0.8519 -0.0989
19659TIP3    H180468   3.576   0.291   4.913  0.1318 -1.0548 -0.0203
19659TIP3    H280469   3.560   0.300   4.763  0.0434  0.2613  0.0607
19660TIP3   OH280470   5.310   4.075  13.950 -0.5443  1.0018  0.6218
19660TIP3    H180471   5.382   4.061  14.011 -1.0905 -0.1495  1.0156
19660TIP3    H280472   5.231   4.070  14.004 -0.9856  0.8105 -0.0373
19661TIP3   OH280473   5.287   4.106  14.319 -0.1247  0.0699  0.2660
19661TIP3    H180474   5.243   4.135  14.399 -0.4826 -1.6778  0.7335
19661TIP3    H280475   5.240   4.026  14.294 -0.6563  1.1183 -2.2364
19662TIP3   OH280476   0.298   4.955   5.970 -0.3428  0.4542  0.2084
19662TIP3    H180477   0.232   4.903   6.017  1.0313 -1.2852  0.2552
19662TIP3    H280478   0.282   4.936   5.878  2.9665 -3.6531  0.3634
19663TIP3   OH280479   1.686   4.855  11.103  0.0673  0.3506  0.2532
19663TIP3    H180480   1.648   4.932  11.060  1.2952  1.2370  0.7279
19663TIP3    H280481   1.686   4.788  11.035  0.3237  1.2007 -0.6034
19664TIP3   OH280482   1.968   0.159   0.220 -0.4163 -0.1999 -0.4270
19664TIP3    H180483   2.032   0.119   0.162  0.8563  0.1706  0.6973
19664TIP3    H280484   2.012   0.237   0.254 -1.9219  0.7605 -0.6038
19665TIP3   OH280485   2.125   0.510  12.631 -0.1945 -0.7057  0.4127
19665TIP3    H180486   2.105   0.516  12.725 -2.5389  1.5567 -0.1394
19665TIP3    H280487   2.045   0.541  12.588  1.1311 -0.9072 -2.3188
19666TIP3   OH280488   2.775   6.004   3.228 -0.2537  0.1073  0.2538
19666TIP3    H180489   2.762   6.082   3.282  0.2788  0.2419  0.1905
19666TIP3    H280490   2.718   5.938   3.268  0.1114  0.2145  0.9717
19667TIP3   OH280491   5.180   0.408  16.656 -0.0518  0.1564 -0.1177
19667TIP3    H180492   5.161   0.373  16.743  0.1182 -1.6452 -0.8005
19667TIP3    H280493   5.101   0.392  16.606 -0.0398  0.9354 -0.4000
19668TIP3   OH280494   0.816   0.732  12.092  0.3850 -0.4239 -0.4062
19668TIP3    H180495   0.737   0.752  12.142  0.4852 -0.2336 -0.3266
19668TIP3    H280496   0.842   0.645  12.123  1.8736  0.7344  1.6821
19669TIP3   OH280497   4.916   1.005   5.399  0.2209  0.4681  0.5781
19669TIP3    H180498   4.866   0.961   5.330 -1.1585  0.6948  1.4092
19669TIP3    H280499   4.938   1.090   5.363 -0.3863  0.5380  0.3758
19670TIP3   OH280500   0.870   4.167  15.394  0.3424  0.4248 -0.3440
19670TIP3    H180501   0.844   4.079  15.366  0.1284  0.7655 -1.2582
19670TIP3    H280502   0.852   4.222  15.318 -2.6866  1.8328  1.3079
19671TIP3   OH280503   4.329   3.862  16.449 -0.3166 -0.2092 -0.4180
19671TIP3    H180504   4.282   3.939  16.479 -0.9834 -0.7695 -0.0121
19671TIP3    H280505   4.269   3.789  16.464 -0.0439 -0.7022 -1.6275
19672TIP3   OH280506   4.934   1.491  11.963  0.3483  0.0147 -0.3028
19672TIP3    H180507   5.024   1.522  11.950  0.4860 -1.0589 -2.0070
19672TIP3    H280508   4.901   1.477  11.875 -1.3412 -0.0756  0.3340
19673TIP3   OH280509   1.033   2.816   4.681 -0.4422  0.0158 -0.2100
19673TIP3    H180510   1.114   2.859   4.709 -1.9525  1.5318  1.8599
19673TIP3    H280511   1.008   2.862   4.601 -1.7173  2.6884  1.6539
19674TIP3   OH280512   6.262   2.831  13.446 -0.3038 -0.2087 -0.1396
19674TIP3    H180513   6.251   2.911  13.496  0.5291 -1.1033  1.5229
19674TIP3    H280514   6.317   2.775  13.501 -0.9056 -1.9411 -1.2327
19675TIP3   OH280515   0.571   0.960  15.348  0.1044 -0.2180 -0.0102
19675TIP3    H180516   0.635   0.943  15.279 -0.1426 -1.8158  0.1305
19675TIP3    H280517   0.599   0.906  15.422 -1.0834 -0.5349  0.2326
19676TIP3   OH280518   0.430   6.474  15.764  0.0630  0.1871 -0.1108
19676TIP3    H180519   0.341   6.445  15.745  0.4629 -1.0640 -0.1371
19676TIP3    H280520   0.423   6.526  15.844 -0.4859 -1.0798  0.6774
19677TIP3   OH280521   2.959   3.072   5.212 -0.6118  0.1508 -0.5913
19677TIP3    H180522   2.932   3.001   5.155  0.5612 -0.6450 -0.1656
19677TIP3    H280523   2.885   3.084   5.272 -0.2544 -1.6711  0.2480
19678TIP3   OH280524   5.235   6.255   5.032 -0.5047 -0.6640  0.2764
19678TIP3    H180525   5.276   6.183   5.080  0.0502 -0.2351  0.4450
19678TIP3    H280526   5.271   6.248   4.944  0.0161 -0.2255  0.4513
19679TIP3   OH280527   0.850   5.650  11.658 -0.4489  0.2601 -0.0912
19679TIP3    H180528   0.757   5.626  11.652  0.1130 -1.4824 -2.3078
19679TIP3    H280529   0.857   5.733  11.612 -0.7004 -0.2808 -1.1239
19680TIP3   OH280530   4.710   4.310  11.496  0.4827  0.3312 -0.3015
19680TIP3    H180531   4.772   4.239  11.510  0.4241  0.3662  0.1174
19680TIP3    H280532   4.625   4.274  11.518  0.6456  1.0180  1.5149
19681TIP3   OH280533   3.392   1.995  15.789 -0.1084 -0.1350 -0.5199
19681TIP3    H180534   3.463   1.932  15.777 -0.0286 -0.0412 -0.5332
19681TIP3    H280535   3.400   2.055  15.716 -1.5855 -1.4388 -1.7993
19682TIP3   OH280536   5.527   3.366  11.138 -0.0533 -0.6498 -0.9162
19682TIP3    H180537   5.617   3.339  11.123 -0.4684 -2.7399  0.1648
19682TIP3    H280538   5.475   3.288  11.121 -1.5924  0.2970 -0.6836
19683TIP3   OH280539   5.506   6.436   4.991 -0.6883 -0.2712  0.0604
19683TIP3    H180540   5.524   6.415   4.899  0.1747 -0.9964  0.3867
19683TIP3    H280541   5.592   6.456   5.028 -1.3640  3.2842 -0.0627
19684TIP3   OH280542   1.045   6.265  12.426  0.2887  0.1973  0.2537
19684TIP3    H180543   1.133   6.239  12.399 -0.5156 -1.9399 -0.3613
19684TIP3    H280544   1.046   6.361  12.419  2.4553  0.1860 -0.0502
19685TIP3   OH280545   1.226   3.711   1.460 -0.0631 -0.0887 -0.5137
19685TIP3    H180546   1.161   3.678   1.398  0.8360  1.8881 -2.6049
19685TIP3    H280547   1.299   3.740   1.405  0.7462  1.8084  1.4516
19686TIP3   OH280548   5.988   6.262  15.941 -0.3925  0.1893  0.3092
19686TIP3    H180549   6.079   6.239  15.960 -0.3155 -0.6196 -0.9588
19686TIP3    H280550   5.952   6.290  16.025  0.9598  0.2864  0.8648
19687TIP3   OH280551   3.625   4.487  15.903  0.0162  0.0028  0.0569
19687TIP3    H180552   3.573   4.566  15.885  1.6481  1.0546 -0.1444
19687TIP3    H280553   3.664   4.464  15.818  1.1109  0.1283  0.5224
19688TIP3   OH280554   5.478   5.453  13.698  0.1057 -0.2831 -0.0227
19688TIP3    H180555   5.436   5.495  13.774 -0.4106 -0.5318 -0.1697
19688TIP3    H280556   5.433   5.490  13.623  0.9309  0.3110 -0.2375
19689TIP3   OH280557   5.222   5.012   1.882  0.5567  0.0833  0.3039
19689TIP3    H180558   5.245   4.955   1.955  0.4962  1.2879  1.2729
19689TIP3    H280559   5.140   4.975   1.848  1.9900 -2.0942 -0.9047
19690TIP3   OH280560   1.948   3.601   5.296  0.6219 -0.5035 -0.1550
19690TIP3    H180561   1.961   3.513   5.260  1.5913 -0.9673  1.2688
19690TIP3    H280562   1.872   3.592   5.354  0.8625 -0.4508  0.1676
19691TIP3   OH280563   2.551   3.656  13.489 -0.5680  0.6168 -0.6630
19691TIP3    H180564   2.617   3.636  13.555 -1.0313  0.5304 -0.2177
19691TIP3    H280565   2.534   3.572  13.446 -0.4429  0.6245 -0.7263
19692TIP3   OH280566   3.409   6.660   0.867 -0.2588  0.1678  0.6327
19692TIP3    H180567   3.477   6.600   0.837  1.3200  0.8753  2.7393
19692TIP3    H280568   3.327   6.618   0.841  0.9348 -0.6612 -2.0026
19693TIP3   OH280569   6.377   1.392   1.404  0.1941 -0.4575  0.3012
19693TIP3    H180570   6.356   1.312   1.356  0.3736 -0.5014  0.2931
19693TIP3    H280571   6.408   1.452   1.336 -2.7152  0.6336 -0.1302
19694TIP3   OH280572   1.738   6.693  16.374  0.2380  0.3935  0.2865
19694TIP3    H180573   1.668   6.732  16.426 -1.4458 -0.5740 -1.1883
19694TIP3    H280574   1.742   6.747  16.295 -0.9160 -1.3191 -0.9794
19695TIP3   OH280575   1.624   2.407  14.887  0.4586 -0.4298 -0.2011
19695TIP3    H180576   1.658   2.325  14.852 -2.1562 -2.0351  0.9312
19695TIP3    H280577   1.638   2.400  14.981 -0.0457  0.3158 -0.0683
19696TIP3   OH280578   4.663   0.579   5.890  0.9925 -0.2803  0.0043
19696TIP3    H180579   4.714   0.499   5.901  1.6338  0.2368  0.7536
19696TIP3    H280580   4.607   0.583   5.967 -0.3871 -0.9755 -0.9259
19697TIP3   OH280581   4.179   2.227  11.918 -0.2093  0.2040  0.0941
19697TIP3    H180582   4.195   2.191  11.831  0.2658 -0.6471  0.5266
19697TIP3    H280583   4.254   2.284  11.934  0.7378 -1.1907  0.7504
19698TIP3   OH280584   1.366   0.030  13.021 -0.2220  0.6434  0.2780
19698TIP3    H180585   1.292  -0.022  12.988  1.0662 -1.0860  0.0709
19698TIP3    H280586   1.332   0.072  13.099 -1.3926 -0.2622  0.2711
19699TIP3   OH280587   0.928   2.897   6.598 -0.0102  0.6745  0.4400
19699TIP3    H180588   0.986   2.957   6.552  0.4009 -0.9450 -1.2127
19699TIP3    H280589   0.982   2.821   6.618 -0.9216  0.1865  1.1008
19700TIP3   OH280590   2.684   0.498   1.710 -0.1872 -0.4725 -0.2484
19700TIP3    H180591   2.694   0.576   1.656  0.2884  0.0160  0.5299
19700TIP3    H280592   2.672   0.427   1.648  0.2884  0.0894 -0.9944
19701TIP3   OH280593   1.096   2.777   5.769  0.2588  0.7783  0.5254
19701TIP3    H180594   1.104   2.856   5.821 -1.1937  0.5180  1.1772
19701TIP3    H280595   1.004   2.752   5.777  0.9388 -1.6775  1.3774
19702TIP3   OH280596   3.913   2.395   0.781  0.5228  0.1751 -0.3062
19702TIP3    H180597   3.849   2.324   0.773  1.4446 -0.7138  0.1913
19702TIP3    H280598   3.869   2.461   0.835 -0.7812  0.5178 -1.7299
19703TIP3   OH280599   0.197   5.008  16.295  0.5383 -0.1447 -0.0683
19703TIP3    H180600   0.242   5.067  16.235  1.4391  0.2449  0.9708
19703TIP3    H280601   0.112   5.048  16.309  0.0777 -0.5714 -1.5827
19704TIP3   OH280602   1.672   0.004  13.899  0.1657  0.0553  0.6297
19704TIP3    H180603   1.685  -0.028  13.989 -2.3899 -1.2718  0.5580
19704TIP3    H280604   1.629   0.089  13.910  1.5023  0.7379  0.6796
19705TIP3   OH280605   3.579   5.435  14.618  0.0969  0.3409 -0.0409
19705TIP3    H180606   3.546   5.427  14.528  1.3697  0.2295 -0.5113
19705TIP3    H280607   3.589   5.345  14.648  0.8645  0.3431 -0.2547
19706TIP3   OH280608   3.786   4.398   5.476 -0.2130 -1.1180  0.6255
19706TIP3    H180609   3.879   4.418   5.473 -0.5478  0.3445 -0.3708
19706TIP3    H280610   3.776   4.321   5.420  0.0049  0.3650 -1.5064
19707TIP3   OH280611   3.019   2.598   5.876 -0.3861 -0.3345 -0.7893
19707TIP3    H180612   3.099   2.644   5.850 -0.5355  0.2427 -0.2410
19707TIP3    H280613   3.050   2.525   5.929 -0.3055  0.9027  0.8994
19708TIP3   OH280614   4.638   3.667   5.189  0.0623 -0.1513  0.0822
19708TIP3    H180615   4.621   3.752   5.229  0.5070 -0.4715  0.9601
19708TIP3    H280616   4.658   3.687   5.097  0.4547  0.7091  0.3541
19709TIP3   OH280617   4.074   2.732  15.851 -0.0433 -0.3572  0.2081
19709TIP3    H180618   4.130   2.808  15.868  0.2922 -0.5318 -0.1262
19709TIP3    H280619   4.004   2.766  15.796 -1.2823  0.2779  2.1138
19710TIP3   OH280620   2.705   4.467   2.382 -0.0763 -0.0574  0.1820
19710TIP3    H180621   2.773   4.410   2.346 -0.0899 -0.5476  0.9043
19710TIP3    H280622   2.672   4.517   2.307  0.3672 -0.5588 -0.3497
19711TIP3   OH280623   2.486   2.334   4.157 -0.4704 -0.0358  0.3896
19711TIP3    H180624   2.540   2.310   4.082 -2.3668 -0.4764 -0.8491
19711TIP3    H280625   2.460   2.251   4.197  0.7611  0.1950  1.7322
19712TIP3   OH280626   0.786   0.719   2.431 -0.2693 -0.1980  0.1152
19712TIP3    H180627   0.880   0.715   2.450 -0.5088 -0.7560  1.2062
19712TIP3    H280628   0.751   0.778   2.498 -0.6219  0.4672 -0.6356
19713TIP3   OH280629   5.362   0.023   1.526 -0.3170  0.2744 -0.1783
19713TIP3    H180630   5.422   0.001   1.454  0.8025  0.5902  0.6407
19713TIP3    H280631   5.295  -0.045   1.523  0.6321 -0.6615 -0.4985
19714TIP3   OH280632   1.757   4.306  12.984 -0.1563 -0.2894  0.5745
19714TIP3    H180633   1.719   4.267  13.062 -1.4832  1.4504  0.8346
19714TIP3    H280634   1.733   4.247  12.913 -0.5381 -0.9064  1.2165
19715TIP3   OH280635   5.020   5.576   3.710  0.0432  0.0638  0.3065
19715TIP3    H180636   5.005   5.668   3.732 -1.4279  0.0072 -0.4007
19715TIP3    H280637   5.040   5.577   3.616  2.7005 -0.0769  0.8179
19716TIP3   OH280638   4.613   5.900  14.207  0.4231  0.4901  0.1051
19716TIP3    H180639   4.577   5.984  14.177  1.4477  0.9578  0.1630
19716TIP3    H280640   4.669   5.871  14.134 -1.3622 -1.0608 -0.6967
19717TIP3   OH280641   2.879   1.988   0.343 -0.2159  0.0799  0.4458
19717TIP3    H180642   2.954   1.950   0.297  0.3454 -0.2208  1.5903
19717TIP3    H280643   2.818   2.011   0.273  0.7988  0.0272 -0.4806
19718TIP3   OH280644   0.474   6.516  14.618  0.2910 -0.3011  0.2749
19718TIP3    H180645   0.473   6.475  14.531  2.4692  0.0766  0.0309
19718TIP3    H280646   0.528   6.595  14.606  0.8919 -0.4293  2.0406
19719TIP3   OH280647   1.483   0.857   1.218 -0.2697  0.3577  0.5029
19719TIP3    H180648   1.566   0.900   1.238 -1.1876  1.7713  1.3768
19719TIP3    H280649   1.506   0.765   1.206  1.2860  0.5771  1.6084
19720TIP3   OH280650   3.995   5.408  13.907  0.8242 -0.2908 -0.4020
19720TIP3    H180651   4.087   5.429  13.888  0.5725  0.5510 -0.7286
19720TIP3    H280652   3.951   5.493  13.906  0.6104 -0.3079  2.9896
19721TIP3   OH280653   6.561   6.120   0.015  0.5570  0.0537 -0.9434
19721TIP3    H180654   6.560   6.043   0.072  0.0355  1.0570  0.4197
19721TIP3    H280655   6.613   6.185   0.062  0.2621  0.8387 -1.6827
19722TIP3   OH280656   4.829   2.813  14.527 -0.1371 -0.0777 -0.6335
19722TIP3    H180657   4.870   2.760  14.594  0.8150  0.9682 -0.3721
19722TIP3    H280658   4.852   2.771  14.445 -0.5192 -0.8283 -0.3543
19723TIP3   OH280659   6.224   0.497  11.860  0.5476  0.7369  0.0568
19723TIP3    H180660   6.162   0.425  11.875 -1.0308  1.9102 -0.7190
19723TIP3    H280661   6.282   0.464  11.791 -0.9506  0.6534 -1.1925
19724TIP3   OH280662   6.358   1.210   3.727  0.7096  0.8987  0.3566
19724TIP3    H180663   6.309   1.274   3.675 -0.1095 -0.6118 -0.7662
19724TIP3    H280664   6.395   1.150   3.663  1.3343  0.1476  1.4067
19725TIP3   OH280665   0.303   5.381  12.660  0.1821  0.3731 -0.2556
19725TIP3    H180666   0.372   5.340  12.608  0.3213  0.4912 -0.1611
19725TIP3    H280667   0.329   5.367  12.750  0.2145  0.6487 -0.2228
19726TIP3   OH280668   1.640   0.032  15.817 -0.1544 -0.0886  0.1187
19726TIP3    H180669   1.620   0.099  15.752 -1.1752 -0.8904 -0.4032
19726TIP3    H280670   1.693  -0.032  15.769  0.6119  0.2027  0.5550
19727TIP3   OH280671   3.454   1.789   4.642 -0.5521 -0.2208 -0.7075
19727TIP3    H180672   3.542   1.792   4.605 -0.0659 -0.2812  0.4334
19727TIP3    H280673   3.446   1.701   4.679  0.3628  1.0492  2.6779
19728TIP3   OH280674   4.712   1.632  11.304 -0.0496 -0.0808 -0.2147
19728TIP3    H180675   4.680   1.637  11.394 -0.0729  0.4189 -0.2527
19728TIP3    H280676   4.763   1.711  11.293 -0.1232 -0.1006 -0.6758
19729TIP3   OH280677   3.212   3.081  13.334 -0.3057 -0.2097 -0.5038
19729TIP3    H180678   3.191   3.156  13.390 -2.2192 -0.3051 -1.0525
19729TIP3    H280679   3.204   3.005  13.390  0.4569 -0.1020 -0.2430
19730TIP3   OH280680   3.767   6.399   5.424 -0.8220 -0.5818 -0.2353
19730TIP3    H180681   3.788   6.467   5.488 -0.3692 -1.8781  1.0235
19730TIP3    H280682   3.675   6.379   5.439 -0.0192 -2.8432  1.9445
19731TIP3   OH280683   2.185   3.571   0.404  0.6304  0.9884  0.5395
19731TIP3    H180684   2.192   3.625   0.482  1.3297  2.4787 -0.5317
19731TIP3    H280685   2.271   3.576   0.363  1.5079 -2.9225  1.6542
19732TIP3   OH280686   1.514   0.437  13.847 -0.1727 -0.1749 -0.5596
19732TIP3    H180687   1.569   0.433  13.926 -0.1309 -1.2818 -0.6356
19732TIP3    H280688   1.511   0.347  13.815 -2.2102 -0.1836 -0.4398
19733TIP3   OH280689   3.042   2.016  15.359  0.0207 -0.3051  0.0468
19733TIP3    H180690   3.047   2.003  15.264 -1.0697 -2.5411  0.2541
19733TIP3    H280691   3.074   2.105  15.373  1.0917 -0.2804 -2.3205
19734TIP3   OH280692   0.774   1.326   4.006  0.7433 -0.4010  0.3538
19734TIP3    H180693   0.742   1.275   4.080  2.0003  1.2650  2.0700
19734TIP3    H280694   0.821   1.263   3.951 -0.2867 -1.6576  0.9044
19735TIP3   OH280695   5.318   6.022   1.630 -0.2499  0.0464  0.0635
19735TIP3    H180696   5.346   6.083   1.698 -1.0827  0.1139  0.3478
19735TIP3    H280697   5.297   5.941   1.677 -0.0531 -0.1651 -0.2072
19736TIP3   OH280698   5.569   3.456   4.921  0.0331 -0.3999 -0.5823
19736TIP3    H180699   5.637   3.468   4.855 -0.5595  0.5727 -1.0238
19736TIP3    H280700   5.488   3.448   4.871 -0.0254 -3.0474 -0.1457
19737TIP3   OH280701   5.004   2.912  14.117 -0.1172  0.1523  0.9460
19737TIP3    H180702   5.050   2.949  14.042  0.2238  0.6211  1.3773
19737TIP3    H280703   4.955   2.838  14.082  1.9876 -1.1719  0.7171
19738TIP3   OH280704   1.057   4.498  15.187 -0.2244 -0.0717 -0.3188
19738TIP3    H180705   1.058   4.403  15.201 -3.5750 -0.1484 -0.3044
19738TIP3    H280706   1.130   4.531  15.240  0.5575 -2.5581  0.1894
19739TIP3   OH280707   3.437   2.892  12.702 -0.5859  0.7069 -0.0983
19739TIP3    H180708   3.353   2.868  12.662 -0.3773  1.5964 -1.1034
19739TIP3    H280709   3.424   2.983  12.731  0.2364  1.0644 -0.8404
19740TIP3   OH280710   0.080   2.397   3.628 -0.2095  0.3890 -0.0685
19740TIP3    H180711   0.058   2.448   3.705 -2.5188  0.0058 -0.4392
19740TIP3    H280712   0.006   2.336   3.618  0.6163 -0.3369 -1.8960
19741TIP3   OH280713   2.236   4.432  15.566  0.0106 -0.5840 -0.4037
19741TIP3    H180714   2.240   4.513  15.618 -0.2957 -0.7649 -0.1004
19741TIP3    H280715   2.195   4.459  15.484 -0.3736 -0.4962 -0.1812
19742TIP3   OH280716   2.987   4.987  15.639 -0.7512  0.2715  0.3952
19742TIP3    H180717   3.005   4.894  15.621  0.3748  0.3557  1.0283
19742TIP3    H280718   2.942   5.018  15.561 -1.1558 -0.8192  0.1849
19743TIP3   OH280719   6.130   3.925   1.062  0.3467 -0.1678  0.3099
19743TIP3    H180720   6.121   4.015   1.031  2.5362 -0.2113 -0.5623
19743TIP3    H280721   6.049   3.882   1.036  0.0067  1.1178 -0.8135
19744TIP3   OH280722   6.700   1.036  12.529 -0.4341 -0.1419 -0.1403
19744TIP3    H180723   6.680   0.966  12.468 -2.2944  0.9521 -0.8154
19744TIP3    H280724   6.794   1.052  12.517 -0.5781 -0.6006 -1.9952
19745TIP3   OH280725   5.387   5.658   1.483  0.0661 -0.4510  0.1711
19745TIP3    H180726   5.347   5.572   1.489 -1.3285  0.0784 -1.0830
19745TIP3    H280727   5.363   5.702   1.565 -0.4908 -0.7433  0.1683
19746TIP3   OH280728   0.839   1.361   3.054 -0.5249 -0.5031  0.5699
19746TIP3    H180729   0.898   1.310   3.110  2.2996  0.0992 -1.7255
19746TIP3    H280730   0.861   1.452   3.073 -1.1065 -0.2622  0.1021
19747TIP3   OH280731   3.670   4.125   1.627  0.0999  0.1550 -0.0487
19747TIP3    H180732   3.615   4.100   1.701  0.0252 -0.1954 -0.2228
19747TIP3    H280733   3.748   4.070   1.634  0.2238  0.3270 -0.0655
19748TIP3   OH280734   3.938   1.656  12.927 -0.2164 -0.1091  0.3400
19748TIP3    H180735   3.993   1.720  12.972  1.3025 -1.8977  1.0378
19748TIP3    H280736   3.962   1.664  12.834  1.1676 -0.8449  0.6366
19749TIP3   OH280737   5.681   0.759  16.906  0.3817 -0.8312 -0.4819
19749TIP3    H180738   5.684   0.674  16.863  0.2473 -1.1845  0.2189
19749TIP3    H280739   5.706   0.742  16.996 -2.7478 -0.6619  0.4698
19750TIP3   OH280740   3.283   1.096  10.437  0.5174  0.5416  0.1537
19750TIP3    H180741   3.209   1.068  10.491 -0.6773 -0.7508 -2.0722
19750TIP3    H280742   3.359   1.053  10.476 -0.5425 -1.5745 -0.0063
19751TIP3   OH280743   3.389   3.077  14.146 -0.3553 -0.6024  0.1357
19751TIP3    H180744   3.407   2.983  14.153 -0.0668 -0.5079  0.6726
19751TIP3    H280745   3.344   3.087  14.062 -1.2354 -1.3546  0.5133
19752TIP3   OH280746   0.374   3.703   5.791 -0.0407 -0.5625  0.1207
19752TIP3    H180747   0.412   3.779   5.747  0.8615 -0.5057  0.9864
19752TIP3    H280748   0.303   3.675   5.733 -1.2267  1.7224  0.4342
19753TIP3   OH280749   0.868   2.087  15.118  0.5110 -0.2485  0.6227
19753TIP3    H180750   0.778   2.110  15.142  0.4084 -0.8578  0.8383
19753TIP3    H280751   0.901   2.165  15.073 -0.4912 -0.4036 -0.4327
19754TIP3   OH280752   6.444   3.982  15.084 -0.4205  0.4550 -0.7411
19754TIP3    H180753   6.464   4.043  15.013 -0.5247  2.2201  0.7052
19754TIP3    H280754   6.353   4.001  15.108 -1.1908 -1.7851 -1.6934
19755TIP3   OH280755   5.493   5.501   0.492  0.1771  0.1281  0.3095
19755TIP3    H180756   5.485   5.496   0.396  0.6724 -1.3212  0.3301
19755TIP3    H280757   5.448   5.582   0.515 -0.7831  0.0149 -1.0605
19756TIP3   OH280758   6.067   0.689  14.500  0.3101 -0.2417  0.4251
19756TIP3    H180759   6.072   0.785  14.497  1.9044 -0.3216 -0.0557
19756TIP3    H280760   6.011   0.671  14.575  0.4028  1.0635  0.8338
19757TIP3   OH280761   3.613   2.873   0.922  0.9397  0.0735 -0.2448
19757TIP3    H180762   3.598   2.844   1.012  0.4204  0.5149 -0.1859
19757TIP3    H280763   3.557   2.815   0.869 -0.4620  1.2693 -0.0854
19758TIP3   OH280764   0.516   6.772  12.162  0.8113  0.1843  0.1119
19758TIP3    H180765   0.428   6.765  12.197 -0.2089 -0.2738 -2.4468
19758TIP3    H280766   0.568   6.711  12.214 -0.2415  0.8700  1.9950
19759TIP3   OH280767   5.116   4.062   4.306 -0.3035  0.2175 -0.3304
19759TIP3    H180768   5.112   4.044   4.400 -0.4106  1.1751 -0.1461
19759TIP3    H280769   5.139   3.978   4.267 -1.0413 -0.3746  0.4807
19760TIP3   OH280770   6.376   6.427  14.632  0.0880 -0.5435 -0.5737
19760TIP3    H180771   6.314   6.499  14.619  0.5761 -0.1717 -0.8509
19760TIP3    H280772   6.344   6.383  14.711 -0.2203 -0.0319 -0.4052
19761TIP3   OH280773   1.668   0.039   2.890 -0.1379 -0.3156 -0.7154
19761TIP3    H180774   1.699  -0.006   2.969  0.2579  2.4615  0.7779
19761TIP3    H280775   1.573   0.036   2.896 -0.1261 -1.6643 -1.0677
19762TIP3   OH280776   2.120   4.293   1.273  0.5340  0.0775  0.3158
19762TIP3    H180777   2.179   4.231   1.230 -0.0203 -0.8532  0.8729
19762TIP3    H280778   2.048   4.304   1.211  0.2769 -0.4039  0.5269
19763TIP3   OH280779   6.200   3.075  11.812  0.3605  0.0564  0.0215
19763TIP3    H180780   6.226   3.161  11.846  0.7789  0.6478 -1.7410
19763TIP3    H280781   6.192   3.020  11.890  0.7426  1.5138  1.1182
19764TIP3   OH280782   6.179   5.443  17.235 -0.3708  0.8456  0.3266
19764TIP3    H180783   6.094   5.436  17.279 -1.1398 -2.7139 -1.5287
19764TIP3    H280784   6.157   5.453  17.142  1.2605  1.8223  0.0271
19765TIP3   OH280785   1.550   6.459  17.171 -0.7223 -0.1634  0.2175
19765TIP3    H180786   1.622   6.507  17.128 -1.5500  1.5736  0.7434
19765TIP3    H280787   1.472   6.485  17.122 -1.0538 -1.7468 -0.1022
19766TIP3   OH280788   4.420   1.323   5.137 -0.2094 -0.4791  0.0610
19766TIP3    H180789   4.441   1.324   5.044 -2.0035  1.0010 -0.3427
19766TIP3    H280790   4.444   1.410   5.169 -1.5123 -0.2887  0.5435
19767TIP3   OH280791   4.189   5.164  10.869 -0.5264 -0.3115  0.8362
19767TIP3    H180792   4.181   5.226  10.798 -0.7512 -1.1775  0.0948
19767TIP3    H280793   4.230   5.213  10.940  0.6659  0.2634 -0.2492
19768TIP3   OH280794   1.614   0.009  12.889  0.5123  0.0546 -0.5877
19768TIP3    H180795   1.527   0.027  12.924  0.5958 -0.9817  0.1485
19768TIP3    H280796   1.599  -0.013  12.797 -0.1459 -1.4505 -0.1336
19769TIP3   OH280797   2.164   1.632   2.054 -0.2210  0.1872 -0.2860
19769TIP3    H180798   2.089   1.591   2.097  0.8181 -1.0288  0.4292
19769TIP3    H280799   2.240   1.587   2.092  0.7499 -0.6982 -3.1584
19770TIP3   OH280800   5.715   1.553  12.491  0.3552  0.0313  0.0013
19770TIP3    H180801   5.674   1.609  12.425  1.9032  0.0243 -0.9969
19770TIP3    H280802   5.717   1.466  12.451  1.6915  0.1170 -0.1488
19771TIP3   OH280803   5.320   2.164   0.252  0.3287 -0.4851  0.1507
19771TIP3    H180804   5.360   2.179   0.337  0.8643  0.8362 -0.3269
19771TIP3    H280805   5.356   2.233   0.196 -1.1264 -0.4641 -0.7720
19772TIP3   OH280806   6.280   5.733  14.037  0.2628  0.6183  0.9555
19772TIP3    H180807   6.329   5.815  14.047 -0.6804  1.2871  0.2276
19772TIP3    H280808   6.211   5.755  13.975 -0.6001 -0.4691  1.5254
19773TIP3   OH280809   2.972   6.309  16.660 -0.1185  0.1832 -0.0469
19773TIP3    H180810   3.056   6.346  16.632  0.0684  0.2457  0.5754
19773TIP3    H280811   2.969   6.223  16.618 -0.2221  0.6091 -0.9108
19774TIP3   OH280812   4.975   6.814   1.561  0.4225 -0.0759 -0.3840
19774TIP3    H180813   4.989   6.746   1.627  0.0914  0.4365  0.2216
19774TIP3    H280814   4.938   6.767   1.486 -2.4247 -0.2050  1.0148
19775TIP3   OH280815   1.728   3.115  16.439 -0.4355 -0.3508 -0.2804
19775TIP3    H180816   1.707   3.208  16.434  1.5928  0.0747 -1.2189
19775TIP3    H280817   1.725   3.085  16.348 -0.9247 -1.1763  0.0031
19776TIP3   OH280818   5.392   4.608   2.365 -0.1128 -0.4865 -0.0643
19776TIP3    H180819   5.360   4.659   2.440  1.1094  0.4889 -0.1906
19776TIP3    H280820   5.314   4.566   2.329 -0.9781  0.4827  0.6652
19777TIP3   OH280821   3.442   1.091  14.046 -0.4494 -0.2874 -0.5127
19777TIP3    H180822   3.533   1.117  14.032 -0.3525 -1.4315 -2.2746
19777TIP3    H280823   3.447   0.997  14.064 -1.3305 -0.5958 -1.7703
19778TIP3   OH280824   1.915   3.800  14.879 -0.4182  0.5112  0.2938
19778TIP3    H180825   1.940   3.819  14.970  1.6628 -1.3836  0.1530
19778TIP3    H280826   1.827   3.762  14.886 -0.2978  0.4272  1.4946
19779TIP3   OH280827   0.516   4.710  15.728 -0.2926 -0.7156  0.3888
19779TIP3    H180828   0.471   4.779  15.679  1.3832 -1.0760 -1.7567
19779TIP3    H280829   0.457   4.635  15.724  0.3417 -1.1288 -2.2386
19780TIP3   OH280830   1.464   6.106   6.119  0.0801  0.2934 -0.8846
19780TIP3    H180831   1.553   6.140   6.105  0.4861  0.9191  2.6345
19780TIP3    H280832   1.477   6.028   6.173 -1.5758  1.2108  0.8861
19781TIP3   OH280833   3.125   2.131   5.864 -0.5078  0.0540 -0.5919
19781TIP3    H180834   3.217   2.149   5.884 -0.1197 -0.0124 -2.2038
19781TIP3    H280835   3.118   2.144   5.769 -2.2183  0.2848 -0.4527
19782TIP3   OH280836   6.360   5.793   3.232  0.0278  0.3548  0.6623
19782TIP3    H180837   6.391   5.716   3.184 -0.8037  0.0872  0.5536
19782TIP3    H280838   6.338   5.857   3.164  1.1628  0.8739  0.7626
19783TIP3   OH280839   0.201   0.421   3.421  0.4499  0.1154 -0.0168
19783TIP3    H180840   0.217   0.385   3.334  0.7967 -0.1072  0.1384
19783TIP3    H280841   0.227   0.513   3.414 -1.5657  0.6408 -0.7387
19784TIP3   OH280842   0.248   4.863   4.835  0.3810 -0.1856 -0.2368
19784TIP3    H180843   0.250   4.959   4.828 -2.0301 -0.1956 -1.4209
19784TIP3    H280844   0.267   4.832   4.747 -1.0175 -0.7536 -0.3476
19785TIP3   OH280845   1.651   4.829   2.574 -0.5381 -0.0099 -0.1280
19785TIP3    H180846   1.571   4.778   2.562 -0.2298 -0.5914  0.2794
19785TIP3    H280847   1.657   4.884   2.496  0.5287 -2.4867 -1.8564
19786TIP3   OH280848   3.600   5.552  13.782 -0.8243 -0.4039  0.2633
19786TIP3    H180849   3.684   5.566  13.826 -1.2058 -1.7372  1.4163
19786TIP3    H280850   3.622   5.499  13.705 -0.3638  0.7883 -0.4543
19787TIP3   OH280851   3.484   5.432  16.779 -0.3249  0.5208 -0.4118
19787TIP3    H180852   3.529   5.447  16.696 -1.1332 -2.1989 -1.3944
19787TIP3    H280853   3.471   5.337  16.783 -2.6728  0.8600  1.5704
19788TIP3   OH280854   0.097   5.348   4.357 -0.1147 -0.5013 -0.1990
19788TIP3    H180855   0.143   5.276   4.314 -0.5808 -1.4081  0.8103
19788TIP3    H280856   0.152   5.424   4.341 -0.1139 -0.8720 -2.1401
19789TIP3   OH280857   3.413   6.603   1.308 -0.2323  0.0252 -0.1783
19789TIP3    H180858   3.431   6.532   1.370 -1.0499  1.0107  1.2098
19789TIP3    H280859   3.499   6.630   1.277  0.2674  0.3226  1.4391
19790TIP3   OH280860   5.071   0.356  15.691  0.3999 -0.0918  0.2955
19790TIP3    H180861   5.087   0.418  15.620 -0.8134  0.8639  0.8240
19790TIP3    H280862   5.146   0.367  15.750  1.0031 -0.3068 -0.4285
19791TIP3   OH280863   4.364   5.021   2.249 -0.0525  0.3516 -0.0119
19791TIP3    H180864   4.337   5.107   2.219  0.6288 -0.5840 -3.4397
19791TIP3    H280865   4.282   4.978   2.274 -0.6392  1.1665 -0.4872
19792TIP3   OH280866   4.662   3.644  14.738  0.0450 -0.9226  0.2780
19792TIP3    H180867   4.619   3.560  14.723 -1.5374 -0.2437  0.9314
19792TIP3    H280868   4.705   3.635  14.823  0.7453 -1.4185 -0.1259
19793TIP3   OH280869   5.838   3.012  13.311  0.0586 -0.9375  0.1098
19793TIP3    H180870   5.753   2.968  13.312  0.3060 -1.4215 -0.2839
19793TIP3    H280871   5.900   2.945  13.283  0.5892 -0.6093  0.4890
19794TIP3   OH280872   5.724   0.328  14.219 -0.5047 -0.4358 -0.2115
19794TIP3    H180873   5.672   0.382  14.161  0.5429  1.5826  0.6928
19794TIP3    H280874   5.796   0.296  14.165 -0.0550  0.6672 -0.2673
19795TIP3   OH280875   3.765   0.156   0.904 -0.0492 -0.5143 -0.7240
19795TIP3    H180876   3.736   0.066   0.887 -2.0386  0.0949 -0.6481
19795TIP3    H280877   3.684   0.206   0.912  1.0429  1.2294 -0.4075
19796TIP3   OH280878   3.162   5.325   3.009  0.4874  0.0014  0.3512
19796TIP3    H180879   3.114   5.408   3.002  0.7890  0.1414 -0.1015
19796TIP3    H280880   3.104   5.268   3.060 -0.0393  0.2585  0.0523
19797TIP3   OH280881   5.123   1.024  13.165 -0.3356  0.2023 -0.3619
19797TIP3    H180882   5.128   1.104  13.112 -3.6278  1.2214  0.7009
19797TIP3    H280883   5.029   1.009  13.176  0.2192 -3.2471  0.3768
19798TIP3   OH280884   2.397   1.203  13.241 -0.0259  0.0648 -0.0068
19798TIP3    H180885   2.397   1.110  13.220  0.5427 -0.1905  1.1012
19798TIP3    H280886   2.381   1.206  13.335 -0.9474  1.1303 -0.1801
19799TIP3   OH280887   1.498   1.885   0.997 -0.0093  0.2354  0.2798
19799TIP3    H180888   1.575   1.829   0.986 -1.0305 -0.7230 -2.4928
19799TIP3    H280889   1.459   1.856   1.080  0.1510 -2.4083 -0.5009
19800TIP3   OH280890   6.208   2.625   2.878 -0.5097 -0.5270 -0.0166
19800TIP3    H180891   6.211   2.720   2.882 -1.8552 -0.4517 -0.6255
19800TIP3    H280892   6.288   2.601   2.830 -0.5484  0.3348 -0.5241
19801TIP3   OH280893   5.205   6.374  13.275  0.1302 -0.4622 -0.7511
19801TIP3    H180894   5.295   6.346  13.288  0.9068  1.3936 -1.9125
19801TIP3    H280895   5.156   6.333  13.346  2.4191  1.0730  1.7846
19802TIP3   OH280896   5.053   5.859   4.429  0.5528  0.6228 -0.1105
19802TIP3    H180897   5.132   5.905   4.402  0.7788 -0.2807 -1.0749
19802TIP3    H280898   5.079   5.809   4.506  1.2552 -0.5365 -1.0662
19803TIP3   OH280899   4.692   1.761  14.795  0.5615  0.1210 -0.0136
19803TIP3    H180900   4.762   1.820  14.823  1.3114 -0.4019 -0.7553
19803TIP3    H280901   4.681   1.779  14.701  0.0146 -0.1300 -0.0007
19804TIP3   OH280902   5.277   4.678   3.114  0.1908  0.1501 -0.2900
19804TIP3    H180903   5.362   4.679   3.070 -0.1724 -0.3746 -1.0283
19804TIP3    H280904   5.290   4.726   3.195  0.9696  0.8249 -0.8196
19805TIP3   OH280905   5.678   2.898  12.169  0.0654  0.1351 -0.0849
19805TIP3    H180906   5.717   2.828  12.221 -0.2389  0.0930  0.0871
19805TIP3    H280907   5.584   2.881  12.173 -0.0979  1.2762  0.9885
19806TIP3   OH280908   4.734   4.383   0.118 -0.2402 -0.4345 -0.4466
19806TIP3    H180909   4.693   4.300   0.093 -1.2376 -0.3236  0.7862
19806TIP3    H280910   4.664   4.448   0.109  0.0767  0.0063  0.2148
19807TIP3   OH280911   0.532   3.784  12.891 -0.3251 -0.7686  0.1111
19807TIP3    H180912   0.592   3.773  12.965 -0.9875 -0.3145  0.7386
19807TIP3    H280913   0.534   3.878  12.872 -2.0058 -0.4685  1.1943
19808TIP3   OH280914   4.109   5.738  11.461 -0.2787 -0.2397  0.3014
19808TIP3    H180915   4.157   5.710  11.539  1.5811  1.1134 -0.3291
19808TIP3    H280916   4.159   5.703  11.388 -1.9411 -1.3884 -0.3273
19809TIP3   OH280917   2.245   6.323  16.672  0.1433 -0.5010 -0.2181
19809TIP3    H180918   2.304   6.305  16.746 -0.3904 -3.1931 -0.4004
19809TIP3    H280919   2.239   6.418  16.670  3.4456 -0.1969  0.6365
19810TIP3   OH280920   5.077   4.046   3.876  0.0138 -0.2004  0.3956
19810TIP3    H180921   5.164   4.086   3.875 -0.3197  0.5396 -1.1136
19810TIP3    H280922   5.079   3.986   3.950  0.7806  2.0786  2.2747
19811TIP3   OH280923   3.969   4.176   2.208  0.3948 -0.0789  0.1674
19811TIP3    H180924   3.971   4.096   2.156  1.6919  0.7102 -1.0293
19811TIP3    H280925   4.061   4.193   2.230  0.0949  0.8868  0.7179
19812TIP3   OH280926   2.617   0.987  12.493  0.0339 -0.6386 -0.0485
19812TIP3    H180927   2.594   0.960  12.404 -1.3513  0.6881 -0.1067
19812TIP3    H280928   2.659   1.072  12.483 -0.3746 -0.3573  0.5814
19813TIP3   OH280929   1.461   0.399  14.435 -0.2270  0.3230 -0.1845
19813TIP3    H180930   1.545   0.434  14.407  0.3007 -0.8609 -0.1022
19813TIP3    H280931   1.466   0.399  14.531 -0.1177 -0.2228 -0.1881
19814TIP3   OH280932   3.475   6.546   4.704 -1.0876  0.0226 -0.3028
19814TIP3    H180933   3.440   6.569   4.617  0.2581 -1.3958 -1.2504
19814TIP3    H280934   3.550   6.604   4.715 -0.6176 -0.5320 -0.5636
19815TIP3   OH280935   1.772   4.934  12.476 -0.2312  0.0709 -0.2959
19815TIP3    H180936   1.709   4.925  12.548 -0.1798 -1.8462 -0.4782
19815TIP3    H280937   1.740   4.873  12.409  0.9034  0.3148 -1.0648
19816TIP3   OH280938   5.387   1.157  14.714 -0.1584  0.3543  0.4325
19816TIP3    H180939   5.353   1.092  14.653  1.5733 -0.2805  0.1010
19816TIP3    H280940   5.419   1.106  14.789  0.5528  0.8717  0.4907
19817TIP3   OH280941   0.116   5.234   2.769  0.2276  0.2108  0.7863
19817TIP3    H180942   0.055   5.185   2.825 -0.5984  1.4557  0.9776
19817TIP3    H280943   0.119   5.322   2.807  1.1727  0.5189  0.0214
19818TIP3   OH280944   3.277   1.975  16.963  0.0058  0.0146 -0.2736
19818TIP3    H180945   3.240   2.061  16.942 -1.4155 -0.6640 -0.5920
19818TIP3    H280946   3.260   1.922  16.885  0.4298 -0.6918  0.1139
19819TIP3   OH280947   1.531   3.299   2.711  0.0038  0.4268  0.1996
19819TIP3    H180948   1.470   3.356   2.663 -0.4539  0.2541  0.5705
19819TIP3    H280949   1.611   3.351   2.718  0.0916  0.4283 -0.8025
19820TIP3   OH280950   0.119   5.497   5.259 -0.0242  0.1461  0.0968
19820TIP3    H180951   0.033   5.485   5.217  0.1259  3.0632 -1.1787
19820TIP3    H280952   0.182   5.474   5.191  0.1835  1.3018 -0.1260
19821TIP3   OH280953   0.217   3.119   1.974  0.2363 -0.2422  0.2452
19821TIP3    H180954   0.263   3.101   2.057 -0.2853 -1.1300  0.3531
19821TIP3    H280955   0.280   3.094   1.906 -0.3824 -2.2954  0.3959
19822TIP3   OH280956   1.345   3.731  15.001  0.4689  0.8196 -0.5569
19822TIP3    H180957   1.299   3.675  14.939  0.4023  0.7047 -0.4060
19822TIP3    H280958   1.291   3.727  15.081  0.3633  1.2426 -0.6039
19823TIP3   OH280959   1.066   5.811   2.185 -0.1743  0.8702  0.0816
19823TIP3    H180960   1.151   5.836   2.220  0.3625 -0.1483 -0.5002
19823TIP3    H280961   1.063   5.853   2.099 -0.4092  1.1981  0.2483
19824TIP3   OH280962   2.002   3.713   4.311  0.2074  0.3764  0.4949
19824TIP3    H180963   1.960   3.792   4.347  2.1567  1.9698 -0.6104
19824TIP3    H280964   2.004   3.652   4.385 -2.4026  0.9076  1.0566
19825TIP3   OH280965   1.126   0.270   6.611  0.3886  0.2570  0.5609
19825TIP3    H180966   1.071   0.192   6.600  0.0644  0.4181  0.9991
19825TIP3    H280967   1.167   0.258   6.697  0.9423  0.2027  0.2934
19826TIP3   OH280968   1.815   4.715  15.983  0.3878  0.3271 -0.2327
19826TIP3    H180969   1.820   4.764  16.065  0.7863 -0.2065  0.0635
19826TIP3    H280970   1.880   4.756  15.927 -0.2815  1.0611 -0.4805
19827TIP3   OH280971   5.727   6.031   1.919 -0.2367 -0.3505  0.0565
19827TIP3    H180972   5.695   5.952   1.874  0.8034 -1.9606  2.0761
19827TIP3    H280973   5.763   6.085   1.848  0.0399 -2.1838 -1.2542
19828TIP3   OH280974   4.875   0.818  15.575  0.6584  0.3357 -0.2035
19828TIP3    H180975   4.819   0.878  15.624 -0.3221 -0.0548 -0.8180
19828TIP3    H280976   4.916   0.763  15.642 -2.3584 -1.6564  0.1385
19829TIP3   OH280977   5.028   1.755   2.386 -0.2940  0.2452  0.2584
19829TIP3    H180978   5.007   1.666   2.413 -2.6444 -0.0537 -2.3214
19829TIP3    H280979   4.952   1.807   2.412  1.2431  1.6388  2.1637
19830TIP3   OH280980   4.309   5.234  14.409 -0.1689 -0.6878  0.3560
19830TIP3    H180981   4.240   5.297  14.433 -1.3355 -2.3197  1.3477
19830TIP3    H280982   4.368   5.234  14.484 -0.4094 -1.1035  0.5451
19831TIP3   OH280983   2.453   1.347   5.376  0.6572  0.6971 -0.4123
19831TIP3    H180984   2.490   1.259   5.386  0.8746  0.9334  0.9842
19831TIP3    H280985   2.523   1.406   5.405 -0.4234  1.1993  1.2808
19832TIP3   OH280986   5.177   3.854  12.838 -0.0695 -0.6005 -0.4523
19832TIP3    H180987   5.258   3.804  12.850  1.3567  1.5692 -0.8122
19832TIP3    H280988   5.136   3.814  12.761  0.0697 -2.4171  0.3723
19833TIP3   OH280989   5.953   5.589  14.166 -0.1879  0.3077  0.6064
19833TIP3    H180990   5.912   5.628  14.089  0.5925  1.1930  0.6284
19833TIP3    H280991   6.036   5.554  14.133 -1.2292 -2.0790  0.4167
19834TIP3   OH280992   3.623   4.827   5.258 -0.3164 -0.0457 -0.3489
19834TIP3    H180993   3.593   4.746   5.217 -2.6884  0.1994  0.8221
19834TIP3    H280994   3.655   4.880   5.186  0.7118 -1.7680 -1.2024
19835TIP3   OH280995   1.670   1.651   5.731  0.3356  0.2793 -0.2633
19835TIP3    H180996   1.654   1.627   5.640 -0.3167 -2.7675  0.5884
19835TIP3    H280997   1.585   1.678   5.764  0.3092  0.1332 -0.2117
19836TIP3   OH280998   6.645   0.722   0.148  0.0674 -0.1090 -0.0917
19836TIP3    H180999   6.581   0.775   0.195  0.3393 -0.9534  1.2442
19836TIP3    H281000   6.720   0.781   0.136  0.8749 -0.5539  2.5364
19837TIP3   OH281001   5.493   0.824  11.618 -0.0372  0.2432 -0.3695
19837TIP3    H181002   5.422   0.872  11.659 -0.7787 -0.1136 -1.2293
19837TIP3    H281003   5.564   0.888  11.610  0.3951  0.1398  2.1054
19838TIP3   OH281004   4.325   5.440   4.179 -0.2489  0.1497  0.0273
19838TIP3    H181005   4.341   5.452   4.085  0.3679 -0.7990 -0.0037
19838TIP3    H281006   4.381   5.505   4.222 -0.7169  0.7497 -0.2719
19839TIP3   OH281007   2.069   2.812   1.963 -0.5778  0.2558 -0.2046
19839TIP3    H181008   2.089   2.896   1.922 -0.1776  0.0655 -0.3973
19839TIP3    H281009   2.126   2.749   1.919 -0.7158 -0.0814  0.0948
19840TIP3   OH281010   4.416   4.231   4.367 -0.5038 -0.1316 -0.0374
19840TIP3    H181011   4.413   4.157   4.306  1.0521  0.0403 -0.3309
19840TIP3    H281012   4.450   4.193   4.448 -0.8316  0.0285  0.1773
19841TIP3   OH281013   4.705   2.784  11.977 -0.7850  0.6403 -0.7722
19841TIP3    H181014   4.778   2.745  11.929 -1.0736  1.1650 -1.6610
19841TIP3    H281015   4.639   2.716  11.980 -0.5540  0.4216 -0.6500
19842TIP3   OH281016   3.205   1.159  15.984 -0.1220 -0.1780  0.1954
19842TIP3    H181017   3.183   1.067  15.967  0.3893 -1.0288  3.6687
19842TIP3    H281018   3.183   1.172  16.076  0.8401  2.9010  0.0483
19843TIP3   OH281019   3.683   1.059  11.316 -0.1206  0.2466  0.0268
19843TIP3    H181020   3.608   1.078  11.260 -0.3919  0.4351  0.4505
19843TIP3    H281021   3.746   1.129  11.296 -1.1105  1.6510  1.5681
19844TIP3   OH281022   3.082   2.451   0.557 -0.2807 -0.1179  0.4906
19844TIP3    H181023   3.053   2.365   0.587  2.2321 -1.3914 -0.6189
19844TIP3    H281024   3.036   2.464   0.474  0.4823 -1.0539 -0.0775
19845TIP3   OH281025   0.342   3.096  12.237 -0.1504  0.4312 -0.1488
19845TIP3    H181026   0.429   3.094  12.197 -0.4441  0.2003 -0.7891
19845TIP3    H281027   0.287   3.140  12.172 -0.7898 -0.6140 -0.3276
19846TIP3   OH281028   1.012   6.137  17.062 -0.0446 -0.3245  0.0909
19846TIP3    H181029   0.943   6.124  17.126  1.0040 -0.8257  1.1443
19846TIP3    H281030   1.086   6.086  17.096  1.3723  1.5009 -0.1691
19847TIP3   OH281031   6.024   0.999   4.254  0.1297  0.3821  0.1000
19847TIP3    H181032   6.032   0.904   4.250 -0.1815  0.2756  1.7041
19847TIP3    H281033   6.105   1.033   4.216  0.3434 -0.5203 -0.2448
19848TIP3   OH281034   3.131   5.259  15.376 -0.3255 -0.2875  0.7366
19848TIP3    H181035   3.156   5.332  15.319 -1.8220  0.5104  1.0863
19848TIP3    H281036   3.215   5.219  15.400  0.5107  1.1571  0.3331
19849TIP3   OH281037   3.380   5.828  15.931  0.2891 -0.4435  0.0176
19849TIP3    H181038   3.456   5.796  15.883  0.1938  2.6484 -2.3541
19849TIP3    H281039   3.414   5.854  16.017  2.0761  1.3388 -1.1762
19850TIP3   OH281040   3.112   1.404  16.728  1.2028  0.4437 -0.2374
19850TIP3    H181041   3.151   1.462  16.793  2.6200 -0.0957 -0.5866
19850TIP3    H281042   3.183   1.385  16.667  0.7211 -1.5321 -0.2201
19851TIP3   OH281043   0.468   6.550  12.306  0.0973  0.5300  0.2884
19851TIP3    H181044   0.441   6.479  12.366  0.0147  0.1957 -0.1409
19851TIP3    H281045   0.489   6.623  12.364  0.9823 -0.1118  0.7841
19852TIP3   OH281046   6.765   3.837  12.132  0.3713 -0.3168  0.0413
19852TIP3    H181047   6.770   3.873  12.220 -0.7506  0.7293 -0.3021
19852TIP3    H281048   6.823   3.892  12.080 -1.6261  1.2959 -0.5595
19853TIP3   OH281049   4.091   4.966  14.115  0.2479 -0.4138  0.1268
19853TIP3    H181050   4.137   4.889  14.149 -0.7979 -0.8409  0.5980
19853TIP3    H281051   4.129   5.040  14.163  1.5219 -0.5871 -0.6004
19854TIP3   OH281052   3.468   4.756  12.229  0.0821  0.3730  0.7344
19854TIP3    H181053   3.473   4.661  12.222  0.6988  0.4351  0.2298
19854TIP3    H281054   3.559   4.784  12.241  0.2656  1.0755 -1.8503
19855TIP3   OH281055   3.466   2.582   4.728 -0.0057 -0.7197 -0.0289
19855TIP3    H181056   3.420   2.631   4.796  0.2732 -0.1810 -0.2333
19855TIP3    H281057   3.507   2.509   4.775 -1.0732 -1.2154  0.1556
19856TIP3   OH281058   3.284   3.330   5.328 -0.0115  0.9360 -0.5045
19856TIP3    H181059   3.329   3.414   5.336  0.6056  0.4452  1.4567
19856TIP3    H281060   3.199   3.345   5.369 -0.7139  1.1581 -1.9936
19857TIP3   OH281061   6.186   5.252   2.690 -0.2599 -0.4316  0.0095
19857TIP3    H181062   6.116   5.189   2.705 -0.7105  0.0946  0.1505
19857TIP3    H281063   6.256   5.225   2.750 -0.5377 -0.6664  0.2295
19858TIP3   OH281064   5.855   2.723  12.758 -0.1180  0.1196 -0.0236
19858TIP3    H181065   5.766   2.725  12.725  1.0052  3.6966 -3.2092
19858TIP3    H281066   5.897   2.650  12.711 -0.4269  0.6836 -1.1734
19859TIP3   OH281067   1.203   5.828  10.967  0.3287 -0.0716  0.5137
19859TIP3    H181068   1.165   5.892  10.906  2.0305  0.4009 -0.0843
19859TIP3    H281069   1.186   5.743  10.926  1.1634  0.2232 -0.4559
19860TIP3   OH281070   5.579   5.395  17.274 -0.2973  0.2522  0.2733
19860TIP3    H181071   5.511   5.424  17.335  0.6244  1.1179  0.9082
19860TIP3    H281072   5.622   5.322  17.318 -0.0431  0.4743  0.3999
19861TIP3   OH281073   0.430   6.124  14.632  0.5595 -0.2860  0.1459
19861TIP3    H181074   0.376   6.188  14.586  1.1375 -0.5424 -0.9042
19861TIP3    H281075   0.450   6.165  14.716 -1.2602 -0.1907  0.5479
19862TIP3   OH281076   0.255   5.888  14.898 -0.4164 -0.2891  0.7173
19862TIP3    H181077   0.235   5.967  14.849 -0.4935  0.1380  1.4345
19862TIP3    H281078   0.314   5.838  14.840 -0.7360  0.0736  0.0808
19863TIP3   OH281079   2.032   0.411  14.315  0.5158  0.0786 -0.1153
19863TIP3    H181080   2.086   0.339  14.282  2.5094  1.4774 -0.0515
19863TIP3    H281081   2.091   0.487  14.313 -0.9604  1.3003  1.6281
19864TIP3   OH281082   0.338   2.983  12.876  0.4054  0.4887  0.0297
19864TIP3    H181083   0.243   2.974  12.879  0.5295 -0.3505  3.1112
19864TIP3    H281084   0.360   2.977  12.783 -2.5618  1.0192 -0.7494
19865TIP3   OH281085   0.748   4.440  17.154 -0.4050  0.3687  0.3828
19865TIP3    H181086   0.759   4.518  17.100 -0.4374  1.4699  1.9679
19865TIP3    H281087   0.824   4.385  17.132  0.3904  1.4748  0.3395
19866TIP3   OH281088   3.462   1.080  15.069 -0.0874  0.2224  0.0762
19866TIP3    H181089   3.474   1.071  14.974 -0.4765 -0.3907  0.0872
19866TIP3    H281090   3.424   1.167  15.080  1.5776  1.0104 -0.1963
19867TIP3   OH281091   1.854   1.369  13.082 -0.1863  0.4050 -0.1983
19867TIP3    H181092   1.884   1.411  13.002 -0.6350 -0.6972 -0.9747
19867TIP3    H281093   1.806   1.437  13.129  0.0674  1.0559 -0.8760
19868TIP3   OH281094   3.679   1.665   0.322  0.6705 -0.6420  0.0322
19868TIP3    H181095   3.607   1.638   0.380  0.9935 -0.2018  0.6365
19868TIP3    H281096   3.676   1.760   0.322  0.6810 -0.6383 -0.6732
19869TIP3   OH281097   6.717   6.559  11.787  0.2020 -0.0744  0.0068
19869TIP3    H181098   6.713   6.546  11.692 -0.1082 -0.6981  0.0973
19869TIP3    H281099   6.798   6.516  11.814  1.5756  2.2548 -0.2880
19870TIP3   OH281100   5.056   0.514  16.130  0.0781 -0.1845 -0.6289
19870TIP3    H181101   5.098   0.586  16.083  0.2489  1.0896  1.4418
19870TIP3    H281102   5.010   0.556  16.203  2.0672 -2.3483  1.9647
19871TIP3   OH281103   2.951   6.240  10.524 -0.2956  0.4408 -0.1000
19871TIP3    H181104   2.892   6.235  10.449 -0.9783  1.5958  0.3369
19871TIP3    H281105   3.039   6.241  10.486 -0.5741 -0.6075 -0.7940
19872TIP3   OH281106   0.407   5.572  14.668 -0.4937 -0.3196  0.3714
19872TIP3    H181107   0.449   5.563  14.583  0.6460  0.9521  0.7883
19872TIP3    H281108   0.415   5.665  14.689 -2.2381 -0.3237  1.1227
19873TIP3   OH281109   2.315   1.566  11.514  0.2954  0.2746  0.0517
19873TIP3    H181110   2.235   1.578  11.462  0.7188 -0.4880 -0.7987
19873TIP3    H281111   2.296   1.492  11.571 -0.0170  0.8401  0.6885
19874TIP3   OH281112   0.731   0.889   0.560  0.5265  0.4910  0.3342
19874TIP3    H181113   0.697   0.824   0.622 -0.5906 -0.0084 -0.7738
19874TIP3    H281114   0.790   0.839   0.503  1.9616  1.0510  1.2920
19875TIP3   OH281115   3.518   0.921  14.446  0.4357  0.1872 -1.0292
19875TIP3    H181116   3.552   0.854  14.505 -0.8369 -0.1225 -0.6193
19875TIP3    H281117   3.583   0.991  14.449  0.8035 -0.1883  0.0999
19876TIP3   OH281118   4.591   1.021   3.631  0.0005  0.5555  0.5966
19876TIP3    H181119   4.533   0.953   3.664 -0.2382  0.9854  1.0703
19876TIP3    H281120   4.677   0.979   3.628 -0.5706 -0.5246 -1.4695
19877TIP3   OH281121   3.512   1.981   1.894 -0.2547  0.4287 -0.8367
19877TIP3    H181122   3.432   1.939   1.865 -1.2865  1.7659  0.0035
19877TIP3    H281123   3.494   2.075   1.887  0.9822  0.7486  0.0458
19878TIP3   OH281124   6.400   6.070  14.043 -0.0117  0.1825 -0.3444
19878TIP3    H181125   6.459   6.081  13.969 -2.3516 -0.8692 -2.4284
19878TIP3    H281126   6.376   6.160  14.068  0.8671  0.5374 -0.7388
19879TIP3   OH281127   6.785   2.798   6.129  0.2376 -0.2668  0.6768
19879TIP3    H181128   6.778   2.876   6.184  0.4529 -0.2112  0.6287
19879TIP3    H281129   6.804   2.727   6.190  1.5345 -0.0258  0.5713
19880TIP3   OH281130   5.021   1.763  13.351  0.3162 -0.4711  0.0143
19880TIP3    H181131   5.032   1.857  13.365  2.9209 -1.0380  2.1927
19880TIP3    H281132   4.974   1.733  13.428 -0.8527 -0.9277 -0.8628
19881TIP3   OH281133   1.913   1.459   1.021  0.1871 -0.0687 -0.0896
19881TIP3    H181134   1.858   1.427   0.949 -0.0622 -0.1009  0.1128
19881TIP3    H281135   1.855   1.517   1.071  0.2717 -0.2746  0.2507
19882TIP3   OH281136   1.509   0.615  15.747  0.5482 -0.0480 -0.5112
19882TIP3    H181137   1.523   0.690  15.689 -0.5005 -0.4810 -1.3512
19882TIP3    H281138   1.470   0.548  15.690 -1.8770  0.0208  0.9843
19883TIP3   OH281139   6.199   3.461   5.551  0.3312 -0.6413  0.8363
19883TIP3    H181140   6.224   3.392   5.613  1.0858 -0.1899  1.0319
19883TIP3    H281141   6.256   3.447   5.475  0.1344 -0.5435  0.6710
19884TIP3   OH281142   5.903   2.456   0.042  0.3095 -0.3015  0.1287
19884TIP3    H181143   5.851   2.441   0.121  1.5159 -1.6622  0.7001
19884TIP3    H281144   5.958   2.531   0.064  0.1641 -0.2552  0.3417
19885TIP3   OH281145   0.306   0.147   0.284  0.0363 -0.1873 -0.2552
19885TIP3    H181146   0.228   0.127   0.336  0.5122 -1.6382 -0.0556
19885TIP3    H281147   0.314   0.072   0.223  0.1973  0.8693 -1.5636
19886TIP3   OH281148   1.542   1.706   5.150 -0.0733  0.4241  0.1766
19886TIP3    H181149   1.502   1.626   5.182 -2.5548  1.3584 -0.4867
19886TIP3    H281150   1.495   1.777   5.194  0.0835  1.5851 -1.4745
19887TIP3   OH281151   1.642   2.909   2.155  0.1099  0.0423 -0.0982
19887TIP3    H181152   1.642   2.982   2.217 -2.3351 -1.7203  2.0935
19887TIP3    H281153   1.589   2.941   2.081  0.4070  1.0436  0.1115
19888TIP3   OH281154   5.926   0.874  13.048 -0.4235  0.1033  0.2730
19888TIP3    H181155   5.843   0.903  13.012 -0.4558 -0.7936 -0.3907
19888TIP3    H281156   5.940   0.787  13.011  0.3936 -0.1141  1.0478
19889TIP3   OH281157   0.493   6.705  14.839 -0.1099  0.4189  0.7744
19889TIP3    H181158   0.547   6.725  14.762 -0.1612 -0.2437  0.5568
19889TIP3    H281159   0.482   6.788  14.883 -1.1885  1.0475 -0.6507
19890TIP3   OH281160   0.972   5.375   0.095 -0.4146 -0.3074  0.5290
19890TIP3    H181161   1.049   5.409   0.050 -1.9757  3.3979  0.4634
19890TIP3    H281162   0.908   5.361   0.026 -0.4399 -1.5207  0.7967
19891TIP3   OH281163   3.852   3.962  15.524  1.0450  0.3934 -0.5213
19891TIP3    H181164   3.847   3.949  15.618 -0.2718  1.4015 -0.4450
19891TIP3    H281165   3.929   3.911  15.497  0.2482 -1.5529  0.7835
19892TIP3   OH281166   3.408   3.580   0.777  0.0121  0.1303  0.0375
19892TIP3    H181167   3.483   3.638   0.793  0.9747 -1.4289  1.3130
19892TIP3    H281168   3.333   3.639   0.775  1.0274  1.4938  0.8226
19893TIP3   OH281169   3.769   2.733  15.194 -0.2408 -0.0984  0.0932
19893TIP3    H181170   3.710   2.684  15.137  1.1032  1.1011 -2.3780
19893TIP3    H281171   3.729   2.820  15.202  1.0788  0.6798 -1.4880
19894TIP3   OH281172   0.177   0.400   2.910  0.5610  0.5160  0.2586
19894TIP3    H181173   0.183   0.493   2.887 -0.2498  1.0721  2.2096
19894TIP3    H281174   0.203   0.354   2.830  0.3873  2.4075 -0.9136
19895TIP3   OH281175   3.648   1.184  11.905 -0.8295  0.3650 -0.2506
19895TIP3    H181176   3.642   1.099  11.862  2.2667 -0.8600  1.5762
19895TIP3    H281177   3.714   1.232  11.855  1.3211 -0.3288  1.8333
19896TIP3   OH281178   2.686   6.046   1.493  0.1672 -0.3134  0.4974
19896TIP3    H181179   2.777   6.076   1.501  0.3157 -0.0489 -1.8978
19896TIP3    H281180   2.634   6.126   1.494  0.1178 -0.3363 -0.1186
19897TIP3   OH281181   5.838   5.514   3.930  0.6130  0.3216 -0.9340
19897TIP3    H181182   5.895   5.535   3.856  0.9599  2.0077 -0.2148
19897TIP3    H281183   5.849   5.588   3.990  0.8665 -1.3357  1.1218
19898TIP3   OH281184   3.611   3.412  11.398 -0.0782 -0.0761 -0.2633
19898TIP3    H181185   3.626   3.443  11.309  2.5573 -1.0237 -0.2047
19898TIP3    H281186   3.568   3.485  11.442 -1.8365  0.2356 -2.4216
19899TIP3   OH281187   3.012   1.951   3.526 -0.1078  0.8820 -0.3671
19899TIP3    H181188   2.935   2.007   3.520  1.0072  2.1847 -2.9287
19899TIP3    H281189   3.086   2.011   3.525  1.0249 -0.4797 -0.3236
19900TIP3   OH281190   3.404   4.909  13.475 -0.1074  0.0503 -0.2246
19900TIP3    H181191   3.411   4.815  13.485 -0.0173  0.1830  0.9910
19900TIP3    H281192   3.368   4.940  13.558 -1.0306  0.9840 -0.9629
19901TIP3   OH281193   4.829   3.999   0.067 -0.4559 -0.7004  0.1601
19901TIP3    H181194   4.748   4.050   0.061 -0.3266 -0.5410 -0.2458
19901TIP3    H281195   4.841   3.964  -0.021 -0.0495 -0.6725  0.2046
19902TIP3   OH281196   6.419   1.347  10.894  0.4488  0.1434  0.3711
19902TIP3    H181197   6.509   1.378  10.883  0.4413 -0.0321 -0.1923
19902TIP3    H281198   6.373   1.421  10.934  0.7027  0.4475  0.1063
19903TIP3   OH281199   2.431   6.199   3.193  0.0554 -0.2642  0.9185
19903TIP3    H181200   2.495   6.226   3.127 -1.4913  1.2639  0.0110
19903TIP3    H281201   2.481   6.196   3.275  1.0172  2.1698  0.4605
19904TIP3   OH281202   2.362   3.635  12.562  0.3416 -0.1759  0.3783
19904TIP3    H181203   2.411   3.619  12.642  0.8630 -1.4011 -0.1653
19904TIP3    H281204   2.281   3.678  12.590  1.0398  0.4368  1.4325
19905TIP3   OH281205   3.508   1.877   6.373  0.6456 -0.0216  0.0734
19905TIP3    H181206   3.547   1.828   6.301  1.1751  0.3024  0.1305
19905TIP3    H281207   3.465   1.811   6.427  2.3189 -0.5825  0.7623
19906TIP3   OH281208   4.020   6.679   5.082  0.5691  0.1798 -0.2266
19906TIP3    H181209   3.928   6.692   5.105  0.8878 -0.0723  1.2358
19906TIP3    H281210   4.054   6.622   5.151  2.1256  1.2581 -0.0729
19907TIP3   OH281211   2.273   5.086  14.749  0.2660 -0.1355  0.2774
19907TIP3    H181212   2.226   5.161  14.785  0.9995 -1.1039  3.3797
19907TIP3    H281213   2.301   5.115  14.662 -2.4138  1.9311  0.0618
19908TIP3   OH281214   1.145   6.367   4.699 -0.3685  0.4204 -0.1280
19908TIP3    H181215   1.075   6.340   4.639 -2.5959  3.2672  1.1240
19908TIP3    H281216   1.112   6.446   4.741  2.9445  0.8885  1.7316
19909TIP3   OH281217   6.253   2.414  13.957 -0.7446  0.1864 -0.1415
19909TIP3    H181218   6.243   2.504  13.924  1.5793  1.1524  1.5919
19909TIP3    H281219   6.209   2.415  14.042  0.8906  0.2448  0.7213
19910TIP3   OH281220   6.754   0.261  15.031 -0.4761 -0.4370  0.0086
19910TIP3    H181221   6.821   0.329  15.041 -0.6902 -0.4811  1.9553
19910TIP3    H281222   6.804   0.180  15.022 -0.2422 -0.6550  2.9309
19911TIP3   OH281223   5.037   1.688   0.388  0.8323 -0.4606 -0.3333
19911TIP3    H181224   5.043   1.600   0.426 -0.5270 -0.8500 -0.9726
19911TIP3    H281225   5.088   1.743   0.447  0.4293 -1.4043  0.9271
19912TIP3   OH281226   6.565   0.531   3.605 -0.3717 -0.1766 -0.0678
19912TIP3    H181227   6.575   0.489   3.691  0.5677 -1.0838 -0.6138
19912TIP3    H281228   6.629   0.488   3.550  1.0499  2.3871 -0.5035
19913TIP3   OH281229   0.559   6.320  16.745 -0.6076 -0.1422 -0.8783
19913TIP3    H181230   0.554   6.226  16.762  0.9962 -0.0436  0.2886
19913TIP3    H281231   0.640   6.331  16.695 -0.7020  0.6349 -0.8632
19914TIP3   OH281232   0.319   6.612   3.640 -0.1458  0.1709  0.2268
19914TIP3    H181233   0.280   6.536   3.598 -0.7087  0.6789 -0.1899
19914TIP3    H281234   0.316   6.593   3.734  1.0284 -0.9303  0.0609
19915TIP3   OH281235   0.288   1.763   4.689  0.3772  0.0735  0.1705
19915TIP3    H181236   0.275   1.852   4.724  1.3453 -0.4182  1.8297
19915TIP3    H281237   0.341   1.776   4.611 -0.3330  1.0432 -0.1703
19916TIP3   OH281238   2.084   6.056  16.840 -0.1772 -0.2381 -0.1588
19916TIP3    H181239   2.051   6.061  16.750  0.9939 -0.7702 -0.6274
19916TIP3    H281240   2.053   6.136  16.882  1.8953  1.5599 -1.9285
19917TIP3   OH281241   4.261   6.603  15.921 -0.5375  0.5267 -0.3377
19917TIP3    H181242   4.319   6.558  15.860 -0.3230  0.5299 -0.1354
19917TIP3    H281243   4.238   6.536  15.986 -0.5323  0.6014 -0.2577
19918TIP3   OH281244   2.062   4.292   0.081  0.5238  0.1753 -0.5661
19918TIP3    H181245   2.038   4.322  -0.007  0.8547  2.6721  0.1527
19918TIP3    H281246   2.155   4.314   0.089  1.0504 -2.0443 -0.3754
19919TIP3   OH281247   5.402   5.564   2.233 -0.4091  0.6095 -0.4532
19919TIP3    H181248   5.313   5.575   2.265  0.2245  0.2355  1.5444
19919TIP3    H281249   5.456   5.614   2.295  1.1259 -2.2208  0.5903
19920TIP3   OH281250   2.510   4.970  14.845 -0.6975  0.2149 -0.5092
19920TIP3    H181251   2.444   5.035  14.820 -0.5338  0.0796 -1.3354
19920TIP3    H281252   2.547   4.942  14.761 -1.2078 -1.4098 -0.2020
19921TIP3   OH281253   6.193   4.073   3.789 -0.8253 -0.1912  0.1263
19921TIP3    H181254   6.176   3.982   3.815 -1.3080 -0.0765  0.2296
19921TIP3    H281255   6.218   4.117   3.870 -0.0762 -0.3519 -0.0211
19922TIP3   OH281256   2.832   2.416  17.207  0.3897  0.7764  0.4338
19922TIP3    H181257   2.741   2.407  17.237 -0.5748  0.6399 -2.3147
19922TIP3    H281258   2.859   2.503  17.236 -0.3606  0.5056  1.9490
19923TIP3   OH281259   5.250   6.257  15.102  0.1367  0.2003  0.0036
19923TIP3    H181260   5.158   6.284  15.100 -0.2315 -0.6675  2.9444
19923TIP3    H281261   5.256   6.188  15.036 -1.9797 -1.6161  1.6613
19924TIP3   OH281262   5.643   0.037   3.261 -0.0944 -0.1319 -0.2103
19924TIP3    H181263   5.626   0.011   3.170  2.5330  0.0554 -0.8056
19924TIP3    H281264   5.728   0.081   3.257 -0.4925  0.9199  2.1730
19925TIP3   OH281265   5.451   4.134   5.826 -0.2522  0.1676  0.6315
19925TIP3    H181266   5.517   4.066   5.822  0.0360  0.5225 -1.0705
19925TIP3    H281267   5.495   4.213   5.794 -1.3212  0.5363  0.0283
19926TIP3   OH281268   5.871   3.315  12.694 -0.6602  0.6847 -0.2504
19926TIP3    H181269   5.896   3.223  12.693 -2.0649  0.3036 -3.1188
19926TIP3    H281270   5.945   3.359  12.737  0.4097 -1.6313  0.3694
19927TIP3   OH281271   1.322   1.599  13.061  1.0193  0.5410  0.1109
19927TIP3    H181272   1.248   1.637  13.108 -1.2173 -1.1461 -1.8964
19927TIP3    H281273   1.368   1.547  13.127 -1.1607 -0.5722  0.7986
19928TIP3   OH281274   4.031   6.555   2.995  0.2901  0.4811 -0.0172
19928TIP3    H181275   4.051   6.647   3.011  0.9347  0.3645 -0.1415
19928TIP3    H281276   3.974   6.555   2.918  1.8418  0.6418 -1.1808
19929TIP3   OH281277   6.807   5.122  15.190 -0.3316  0.2410  0.0297
19929TIP3    H181278   6.749   5.155  15.259 -1.1048  0.0610 -0.5310
19929TIP3    H281279   6.872   5.070  15.238 -0.6394  0.4212  0.6608
19930TIP3   OH281280   4.946   3.120   1.546  0.2530 -0.3658 -0.0469
19930TIP3    H181281   4.925   3.213   1.539  0.4119 -0.4281 -1.6536
19930TIP3    H281282   4.965   3.106   1.639 -1.0682  0.9148  0.4310
19931TIP3   OH281283   5.915   2.242  16.812 -0.0756  0.2058 -0.4263
19931TIP3    H181284   5.931   2.160  16.859 -0.5965 -0.1630 -0.8906
19931TIP3    H281285   5.920   2.218  16.720 -1.2896  0.4866 -0.5647
19932TIP3   OH281286   3.439   3.328   3.148  0.3375 -0.5443 -0.4228
19932TIP3    H181287   3.438   3.404   3.205  1.7369 -0.6872 -0.1901
19932TIP3    H281288   3.497   3.265   3.191 -0.6334 -1.6770 -0.7069
19933TIP3   OH281289   4.592   3.940   5.218 -0.2519 -0.6415 -0.4560
19933TIP3    H181290   4.498   3.935   5.200 -0.2949  1.0829 -0.8257
19933TIP3    H281291   4.599   3.997   5.294  0.5665  0.3836 -1.2821
19934TIP3   OH281292   2.130   6.169   1.052 -0.2575 -0.6057  0.3761
19934TIP3    H181293   2.212   6.163   1.002 -0.2878 -0.6160  0.3286
19934TIP3    H281294   2.159   6.167   1.144 -0.2949 -1.8478  0.3673
19935TIP3   OH281295   3.069   0.177  14.591  0.4052  0.2528  0.0386
19935TIP3    H181296   2.999   0.243  14.593 -0.6564 -0.8858  1.5865
19935TIP3    H281297   3.033   0.105  14.538  1.2443  0.5379 -0.9464
19936TIP3   OH281298   5.326   5.086  13.402  0.4415 -0.6086  0.2450
19936TIP3    H181299   5.336   4.991  13.409 -1.1929 -0.7964  0.0482
19936TIP3    H281300   5.355   5.119  13.487 -0.8228 -1.4269  1.0059
19937TIP3   OH281301   2.320   3.543  16.288 -0.7574 -0.1586 -0.1545
19937TIP3    H181302   2.365   3.625  16.271 -2.5997  0.5790 -1.6045
19937TIP3    H281303   2.336   3.490  16.210  0.0496 -1.0235  0.5808
19938TIP3   OH281304   3.872   2.046   5.591 -0.3618 -0.0804  0.1786
19938TIP3    H181305   3.804   2.113   5.590  0.7479  1.1104  1.3632
19938TIP3    H281306   3.940   2.081   5.533 -0.7527 -1.2734 -1.0247
19939TIP3   OH281307   5.725   3.558   4.411  1.1150  0.3804  0.1294
19939TIP3    H181308   5.778   3.568   4.332 -0.2711  1.3486 -0.6933
19939TIP3    H281309   5.788   3.566   4.483  2.5099 -1.2813 -0.8672
19940TIP3   OH281310   1.441   2.198  11.645 -0.0995  0.5894  0.2074
19940TIP3    H181311   1.429   2.133  11.714 -0.7417  1.1311  0.6185
19940TIP3    H281312   1.515   2.251  11.674  0.5614 -0.0831 -0.2314
19941TIP3   OH281313   6.545   6.546  15.834  0.0039 -0.2308  0.1879
19941TIP3    H181314   6.541   6.552  15.929  0.7123  1.3379  0.1390
19941TIP3    H281315   6.461   6.582  15.804  0.2403  0.3322  0.1937
19942TIP3   OH281316   3.432   2.034  16.569  0.2086  0.1939 -0.0388
19942TIP3    H181317   3.358   2.094  16.584 -1.1200 -0.8133 -2.2843
19942TIP3    H281318   3.490   2.048  16.644 -2.1668  1.1573  1.6755
19943TIP3   OH281319   4.580   1.747   2.640  0.0621 -0.5307  0.3828
19943TIP3    H181320   4.561   1.804   2.714 -0.7674 -0.8744  0.4429
19943TIP3    H281321   4.507   1.685   2.638  0.1625 -0.6294 -0.6116
19944TIP3   OH281322   3.129   4.298   3.663 -0.0377 -0.3643  0.0040
19944TIP3    H181323   3.059   4.285   3.728 -0.1054  1.8361  0.4350
19944TIP3    H281324   3.083   4.314   3.581 -0.0369  0.4879  0.1661
19945TIP3   OH281325   0.790   3.869  11.450  0.5277 -0.0032 -0.2657
19945TIP3    H181326   0.882   3.845  11.462  0.3214 -0.1464  1.1156
19945TIP3    H281327   0.759   3.889  11.538 -0.1724  2.2653 -0.9861
19946TIP3   OH281328   0.299   1.339   4.335 -0.2530  0.3226 -0.1257
19946TIP3    H181329   0.368   1.387   4.289 -2.0979  1.8139 -1.3938
19946TIP3    H281330   0.336   1.251   4.347  1.8095  1.0333 -0.8893
19947TIP3   OH281331   2.588   6.379  16.618  0.3827 -0.3919  0.3231
19947TIP3    H181332   2.600   6.288  16.594 -0.1601  0.1007 -1.9820
19947TIP3    H281333   2.670   6.405  16.660  0.6425 -1.8558  0.7177
19948TIP3   OH281334   3.000   6.236  13.276 -0.0682  0.1628  0.3828
19948TIP3    H181335   2.980   6.289  13.352  0.2375 -0.6936  1.0680
19948TIP3    H281336   3.091   6.259  13.253  0.2493 -0.4552  1.0072
19949TIP3   OH281337   5.641   3.413  15.905 -0.1513  0.4703 -0.2123
19949TIP3    H181338   5.588   3.438  15.980  2.5161  1.8241  1.2930
19949TIP3    H281339   5.590   3.345  15.861 -2.1842  0.3251  2.2635
19950TIP3   OH281340   0.108   3.172   6.044 -0.2651  0.1276 -0.0988
19950TIP3    H181341   0.161   3.108   6.092 -0.9084 -1.4861 -1.4814
19950TIP3    H281342   0.137   3.165   5.954  0.2087  2.4003 -0.1533
19951TIP3   OH281343   0.109   3.997  11.995 -0.3743  0.0719 -0.0352
19951TIP3    H181344   0.121   4.068  12.058 -0.1898 -0.6614  0.7613
19951TIP3    H281345   0.121   4.038  11.910 -1.1298  1.1812  0.3844
19952TIP3   OH281346   0.559   5.574   2.066  0.0933 -0.0626 -0.1939
19952TIP3    H181347   0.529   5.632   2.136 -0.9912  0.5439 -1.1393
19952TIP3    H281348   0.522   5.612   1.986  2.6332  0.1962 -1.2993
19953TIP3   OH281349   5.749   1.436  12.931 -0.3837 -0.2971  0.0381
19953TIP3    H181350   5.689   1.484  12.989 -1.7567 -3.3587  1.2918
19953TIP3    H281351   5.832   1.435  12.979 -0.6144  0.0074  0.4518
19954TIP3   OH281352   5.414   6.324  16.340  0.5232 -0.6942  0.4590
19954TIP3    H181353   5.490   6.354  16.289  0.2227 -0.1881  0.2938
19954TIP3    H281354   5.389   6.401  16.392  0.0742 -0.8301  0.4455
19955TIP3   OH281355   6.215   3.149   5.436  0.1451  0.1805  0.0469
19955TIP3    H181356   6.223   3.059   5.403  0.8350 -0.7130  2.5706
19955TIP3    H281357   6.263   3.202   5.372 -0.9243 -1.1298 -1.8793
19956TIP3   OH281358   5.561   2.227   5.895  0.4860  0.4390 -0.4383
19956TIP3    H181359   5.529   2.246   5.984 -0.2185  1.2862 -0.8654
19956TIP3    H281360   5.656   2.236   5.902  0.5414 -0.7866  0.5311
19957TIP3   OH281361   3.678   3.148   0.270 -0.2302  0.0720 -0.1594
19957TIP3    H181362   3.717   3.061   0.261 -0.4445 -0.2765  2.1509
19957TIP3    H281363   3.586   3.136   0.246 -0.1510 -0.2414 -0.3093
19958TIP3   OH281364   0.987   0.919   1.116 -0.2543 -0.1179 -0.6588
19958TIP3    H181365   1.009   1.011   1.100  0.4169 -0.0630  0.5525
19958TIP3    H281366   1.071   0.874   1.115 -0.6413 -0.8508 -1.9723
19959TIP3   OH281367   3.917   4.405   4.634 -0.6372 -0.1360  0.3172
19959TIP3    H181368   3.852   4.474   4.624 -0.2886 -0.0460 -1.5558
19959TIP3    H281369   3.993   4.437   4.584  0.2388 -0.9767  1.0975
19960TIP3   OH281370   1.848   2.767   1.571  0.0494 -0.5757  0.3016
19960TIP3    H181371   1.932   2.723   1.585 -0.3307 -1.4586 -0.1787
19960TIP3    H281372   1.799   2.753   1.652 -0.2360 -1.4261 -0.0073
19961TIP3   OH281373   6.518   2.844   1.882  0.3495  0.0171 -0.5747
19961TIP3    H181374   6.521   2.938   1.901 -0.7586 -0.1586  0.5337
19961TIP3    H281375   6.610   2.819   1.871  0.7424  0.9601  0.4557
19962TIP3   OH281376   2.865   6.406  12.252 -0.3032 -0.4662  0.4289
19962TIP3    H181377   2.932   6.416  12.320  1.3280 -1.0650 -1.0447
19962TIP3    H281378   2.896   6.333  12.199 -0.7771  0.8899 -1.7957
19963TIP3   OH281379   0.912   5.521  14.068 -0.1522 -0.8430  0.3742
19963TIP3    H181380   0.817   5.511  14.069  0.0100 -2.5329  1.7730
19963TIP3    H281381   0.936   5.540  14.159  1.0434 -2.8692  0.5309
19964TIP3   OH281382   3.265   1.224   1.330  0.0142 -0.1135  0.7889
19964TIP3    H181383   3.289   1.268   1.411  2.1237  1.7372 -0.7544
19964TIP3    H281384   3.213   1.289   1.282  0.4093 -0.4810 -0.1388
19965TIP3   OH281385   3.824   5.670   0.463 -0.6466  0.0438 -0.5626
19965TIP3    H181386   3.896   5.628   0.510  0.3148  0.2688 -1.7886
19965TIP3    H281387   3.791   5.737   0.522  0.1152 -0.1069  0.0350
19966TIP3   OH281388   5.609   1.026  16.748 -0.1191 -0.7435 -1.0459
19966TIP3    H181389   5.652   1.017  16.663  0.1742 -1.9263 -0.7721
19966TIP3    H281390   5.635   0.948  16.796  0.5463  0.4108  0.5049
19967TIP3   OH281391   5.552   0.152   0.027  0.7760  0.2734 -0.1186
19967TIP3    H181392   5.639   0.179   0.056  0.8984  0.0267 -0.2548
19967TIP3    H281393   5.536   0.204  -0.052 -0.3501  2.3503  1.4441
19968TIP3   OH281394   4.511   4.294  15.781 -0.0386  0.2139 -0.1894
19968TIP3    H181395   4.485   4.280  15.872  0.3650 -0.5716 -0.1853
19968TIP3    H281396   4.501   4.388  15.766 -0.6335  0.2586  0.5020
19969TIP3   OH281397   1.104   3.182   3.460 -0.5059  0.2296 -0.2203
19969TIP3    H181398   1.076   3.250   3.521  0.1043  1.4828 -1.3191
19969TIP3    H281399   1.054   3.105   3.486 -2.2620  1.4710  0.1597
19970TIP3   OH281400   5.010   5.585   6.136 -0.5633  0.6012  0.1797
19970TIP3    H181401   4.946   5.588   6.064  1.8837 -2.1236 -2.2487
19970TIP3    H281402   4.992   5.502   6.180 -0.2767  0.9943  1.0427
19971TIP3   OH281403   5.005   6.167  12.353  0.0417  0.0390 -0.0791
19971TIP3    H181404   5.052   6.225  12.413 -0.7021  0.8272 -0.2357
19971TIP3    H281405   5.017   6.079  12.389  2.5727  0.0789 -0.7256
19972TIP3   OH281406   3.890   0.629  16.637 -0.1724  0.0100  0.3419
19972TIP3    H181407   3.872   0.618  16.731  2.4563 -2.6200  0.5918
19972TIP3    H281408   3.957   0.564  16.618 -1.2065  0.0002 -3.5727
19973TIP3   OH281409   0.727   3.871   4.516  0.1206 -0.1819 -0.4510
19973TIP3    H181410   0.722   3.777   4.500 -0.7754 -0.5213  1.6483
19973TIP3    H281411   0.643   3.905   4.485  1.8127  0.5276 -4.5746
19974TIP3   OH281412   0.558   1.195  11.929 -0.5524 -0.1215 -0.2184
19974TIP3    H181413   0.537   1.179  11.837  0.0654  0.9317 -0.5598
19974TIP3    H281414   0.545   1.290  11.940 -0.7784 -0.2685  0.8171
19975TIP3   OH281415   1.466   6.296   5.846 -0.4121  0.3304 -0.5998
19975TIP3    H181416   1.416   6.232   5.796  0.0360 -0.1567 -0.4269
19975TIP3    H281417   1.454   6.270   5.937  0.8145 -0.2717 -0.6037
19976TIP3   OH281418   0.951   2.128   6.251  0.1360 -0.2489  0.2252
19976TIP3    H181419   0.921   2.160   6.336  0.3879 -0.5563  0.4282
19976TIP3    H281420   1.046   2.119   6.260  0.2608  0.5004 -0.3487
19977TIP3   OH281421   0.062   3.380   5.319 -0.5272 -0.1226  0.6626
19977TIP3    H181422   0.135   3.345   5.268  0.4389  1.4232  0.9540
19977TIP3    H281423   0.091   3.372   5.410 -1.4530 -1.1027  0.8871
19978TIP3   OH281424   3.809   2.516  13.811  0.0092  0.5328 -0.2693
19978TIP3    H181425   3.818   2.610  13.825 -1.4965  1.0667 -2.5510
19978TIP3    H281426   3.880   2.492  13.752  0.3885  0.2304  0.3044
19979TIP3   OH281427   0.289   3.226   1.033 -0.2297 -0.1810 -0.4611
19979TIP3    H181428   0.246   3.310   1.051 -2.5921 -1.7717  1.7859
19979TIP3    H281429   0.241   3.190   0.958 -2.2606 -1.4919  1.4025
19980TIP3   OH281430   3.775   2.477   4.873  0.0882  0.2551  0.3555
19980TIP3    H181431   3.715   2.465   4.947 -1.5691  0.7961 -0.8586
19980TIP3    H281432   3.773   2.571   4.856  1.4678  0.3076  0.4324
19981TIP3   OH281433   3.251   1.849   2.843  0.2166 -0.0577  0.5882
19981TIP3    H181434   3.302   1.861   2.764  1.7098 -0.2541  1.5095
19981TIP3    H281435   3.251   1.934   2.886 -3.4033  0.9743 -1.2211
19982TIP3   OH281436   3.655   3.777  15.601  0.1018  0.4486  0.4644
19982TIP3    H181437   3.707   3.841  15.553 -1.1286 -0.2833 -1.9345
19982TIP3    H281438   3.713   3.702  15.614  0.3725  0.5705 -0.0520
19983TIP3   OH281439   2.952   5.134  16.762  0.1486  0.4900  0.0843
19983TIP3    H181440   2.889   5.124  16.834 -0.6243  0.3464 -0.6065
19983TIP3    H281441   2.898   5.134  16.683  1.0275  0.3144 -0.5174
19984TIP3   OH281442   6.201   3.584   5.137  0.2674 -0.0905  0.5424
19984TIP3    H181443   6.167   3.496   5.123  1.3471 -0.7754  2.0171
19984TIP3    H281444   6.165   3.636   5.065  2.5460 -2.4972 -2.4491
19985TIP3   OH281445   2.231   5.684   6.140  0.6279  0.5058 -0.4509
19985TIP3    H181446   2.266   5.704   6.226  2.6103  1.8656 -1.5423
19985TIP3    H281447   2.308   5.673   6.084 -0.6313  0.6687 -2.2711
19986TIP3   OH281448   6.119   5.302  15.045  0.1168  0.6699  0.0350
19986TIP3    H181449   6.164   5.220  15.027  0.2122 -0.2191  3.9390
19986TIP3    H281450   6.185   5.358  15.084 -1.2592  0.6329  2.4885
19987TIP3   OH281451   2.002   6.110  11.582  0.0042 -0.0335  0.3809
19987TIP3    H181452   2.021   6.108  11.488 -2.2220 -0.9081 -0.0818
19987TIP3    H281453   2.070   6.055  11.621  0.3727 -0.4609 -0.8371
19988TIP3   OH281454   0.395   0.317   1.019  0.6035  0.2838 -0.0077
19988TIP3    H181455   0.360   0.246   0.965 -0.2815  0.0686  0.8390
19988TIP3    H281456   0.319   0.354   1.062  1.0398  1.8738 -0.5740
19989TIP3   OH281457   1.987   5.036  15.526  0.3234  0.1886  0.0180
19989TIP3    H181458   2.040   4.961  15.551  0.7576  0.9138  1.2787
19989TIP3    H281459   1.971   5.023  15.432  1.0422 -1.0661  0.0575
19990TIP3   OH281460   0.101   5.169  14.908  0.0766  0.3821  0.6636
19990TIP3    H181461   0.084   5.135  14.996  3.8830 -0.3136  1.2450
19990TIP3    H281462   0.178   5.226  14.919  0.7223  0.1401 -2.2357
19991TIP3   OH281463   1.074   0.646   2.751 -0.2259 -0.0680  0.0110
19991TIP3    H181464   1.086   0.711   2.682 -0.4653  0.9004  0.8622
19991TIP3    H281465   1.013   0.687   2.812  0.8220 -0.4539  1.3605
19992TIP3   OH281466   3.029   6.327   4.844 -0.0314 -0.5476  0.3418
19992TIP3    H181467   2.953   6.271   4.827  0.7391 -2.1757  2.0920
19992TIP3    H281468   3.092   6.304   4.776  0.5102 -2.2538  1.4041
19993TIP3   OH281469   2.077   6.732  14.697  0.1496 -0.4941 -0.7163
19993TIP3    H181470   2.022   6.808  14.715 -0.7784 -1.5493  1.1079
19993TIP3    H281471   2.155   6.768  14.656 -0.2154  1.4560  0.2246
19994TIP3   OH281472   4.435   6.786  13.464  0.6317 -0.0478  0.1967
19994TIP3    H181473   4.527   6.781  13.491  0.4149 -0.6295  0.8290
19994TIP3    H281474   4.423   6.877  13.436  1.4596 -0.0252 -0.1113
19995TIP3   OH281475   0.943   0.056   1.548  0.0426 -0.2848 -0.2830
19995TIP3    H181476   0.884   0.059   1.473 -1.6096 -0.5322  0.9847
19995TIP3    H281477   1.014   0.116   1.525 -1.4104  1.1106 -1.2162
19996TIP3   OH281478   2.414   4.417  17.049  0.1527  0.1590  0.1360
19996TIP3    H181479   2.425   4.462  16.966  0.2693 -2.2283 -1.1871
19996TIP3    H281480   2.345   4.353  17.033 -0.2900  0.1063  2.0819
19997TIP3   OH281481   1.073   6.421   5.929 -0.4184 -0.1986 -0.3283
19997TIP3    H181482   1.045   6.511   5.912 -1.8668 -0.6829 -0.6278
19997TIP3    H281483   1.163   6.428   5.959 -0.3596  1.3110 -0.8439
19998TIP3   OH281484   2.824   4.970   0.181  0.0707  0.7584 -0.5689
19998TIP3    H181485   2.739   5.012   0.197  0.2645  0.2766  1.8418
19998TIP3    H281486   2.802   4.886   0.142 -0.5636  0.6149  0.0853
19999TIP3   OH281487   1.368   0.598   2.170 -0.0269  0.1594 -0.8103
19999TIP3    H181488   1.378   0.657   2.244 -2.2661 -0.6155  0.1721
19999TIP3    H281489   1.457   0.572   2.147  0.7390  0.9983  1.1283
20000TIP3   OH281490   4.893   3.865   4.021  0.1837 -0.4929  0.1142
20000TIP3    H181491   4.980   3.841   4.052 -0.2488 -2.0080  0.1571
20000TIP3    H281492   4.835   3.844   4.094 -0.6621 -2.7420 -1.1554
20001TIP3   OH281493   0.073   1.889   5.112 -0.0459  0.6817 -0.8128
20001TIP3    H181494   0.113   1.837   5.182  0.4632  0.4851 -1.2435
20001TIP3    H281495   0.130   1.874   5.036 -0.5470  0.9587 -1.2442
20002TIP3   OH281496   0.627   5.603  15.960  0.1149 -0.1486  0.4276
20002TIP3    H181497   0.539   5.628  15.989 -0.5038 -2.7410  0.8497
20002TIP3    H281498   0.613   5.556  15.878  0.9592 -1.7421  1.1734
20003TIP3   OH281499   6.755   5.099   5.678 -0.2435  0.3452 -0.2892
20003TIP3    H181500   6.803   5.020   5.654 -0.3890  0.0558  0.3355
20003TIP3    H281501   6.804   5.135   5.752  1.1220  2.1153 -2.0140
20004TIP3   OH281502   2.600   2.778   3.483  0.5807 -0.2893 -0.3313
20004TIP3    H181503   2.620   2.826   3.563  1.7390 -0.4176 -0.5219
20004TIP3    H281504   2.658   2.817   3.417  0.0114 -0.5324 -0.9860
20005TIP3   OH281505   3.294   4.113  12.028  0.0588  0.1653 -0.3748
20005TIP3    H181506   3.289   4.086  11.937  1.1206 -1.8847  0.1340
20005TIP3    H281507   3.299   4.030  12.077  1.2547  1.2491  1.4034
20006TIP3   OH281508   2.748   5.064   6.135  0.0221  0.0903  0.1814
20006TIP3    H181509   2.803   5.031   6.206 -0.3496  1.4929  1.1384
20006TIP3    H281510   2.661   5.070   6.174 -0.5937 -1.0571 -0.9987
20007TIP3   OH281511   4.497   2.325   6.559 -0.0434 -0.3576  0.2365
20007TIP3    H181512   4.589   2.347   6.550 -0.6376  2.0661 -0.2648
20007TIP3    H281513   4.490   2.286   6.647  1.3764 -0.1597  0.4508
20008TIP3   OH281514   2.387   0.178   5.498  0.1831  0.5370  0.0595
20008TIP3    H181515   2.475   0.203   5.526  0.5226 -1.5440  1.0053
20008TIP3    H281516   2.392   0.083   5.487 -2.3008  0.1952  1.4870
20009TIP3   OH281517   1.787   6.078  14.652  0.2666 -0.1574  0.1738
20009TIP3    H181518   1.769   6.077  14.558 -0.7257  1.8039  0.3111
20009TIP3    H281519   1.710   6.121  14.690  0.8426 -0.5769  1.8383
20010TIP3   OH281520   5.798   4.611  12.773 -0.3892  0.2689 -0.0539
20010TIP3    H181521   5.790   4.705  12.756 -0.6438  0.2257 -0.1813
20010TIP3    H281522   5.887   4.589  12.746 -0.6765  0.2649 -1.0413
20011TIP3   OH281523   4.369   6.301   0.886 -0.5618  0.1390 -0.2278
20011TIP3    H181524   4.307   6.373   0.901 -1.4180 -0.5281 -0.4818
20011TIP3    H281525   4.349   6.271   0.798 -1.0572 -1.2089  0.3354
20012TIP3   OH281526   2.642   0.452  11.629  0.3340 -0.0540 -0.5817
20012TIP3    H181527   2.605   0.436  11.542 -1.4501  0.3444  0.0853
20012TIP3    H281528   2.640   0.367  11.671 -0.8253  0.1523 -0.1883
20013TIP3   OH281529   3.587   2.517   5.585  0.0220 -0.2114 -0.4890
20013TIP3    H181530   3.536   2.546   5.661 -2.1553 -1.0615 -1.5940
20013TIP3    H281531   3.565   2.580   5.516 -0.6252 -1.3964 -1.3778
20014TIP3   OH281532   0.934   6.020  14.915 -0.1677  0.0915  0.3039
20014TIP3    H181533   0.959   6.032  14.823 -0.0992  0.0369  0.3136
20014TIP3    H281534   1.015   6.032  14.964 -0.5614  1.9598  0.5077
20015TIP3   OH281535   4.297   2.214   1.056  0.7552  0.2132 -0.1379
20015TIP3    H181536   4.207   2.219   1.023  1.1713 -0.3913 -1.4120
20015TIP3    H281537   4.294   2.151   1.127  0.1708  0.1673 -0.2069
20016TIP3   OH281538   1.912   4.573   0.519  0.0892 -0.3036  0.2017
20016TIP3    H181539   1.861   4.531   0.450 -0.2716  0.0710  0.2380
20016TIP3    H281540   1.893   4.667   0.508 -0.0885 -0.2581  0.9068
20017TIP3   OH281541   4.145   2.868   3.128 -0.5711  0.4534  0.2556
20017TIP3    H181542   4.080   2.881   3.198  0.7748  0.2642  1.5554
20017TIP3    H281543   4.183   2.955   3.114  1.6345 -0.1300  2.2451
20018TIP3   OH281544   5.744   6.200   4.527 -0.1338  0.5835  0.0895
20018TIP3    H181545   5.683   6.126   4.522  0.4496  0.2110 -1.8016
20018TIP3    H281546   5.815   6.168   4.582  0.0279 -0.2111 -0.5727
20019TIP3   OH281547   6.467   4.830  15.474 -0.6600  0.3785 -0.7186
20019TIP3    H181548   6.438   4.743  15.450  0.0624 -0.1909  0.4283
20019TIP3    H281549   6.394   4.888  15.452 -1.7780 -0.7319  0.0511
20020TIP3   OH281550   2.834   6.790  14.532  0.4659  0.0803  0.4497
20020TIP3    H181551   2.772   6.776  14.460  0.1455 -0.8992  0.9018
20020TIP3    H281552   2.778   6.806  14.609  0.8083  2.4390  0.2574
20021TIP3   OH281553   4.830   2.533   4.975 -0.1776  0.3764  0.0607
20021TIP3    H181554   4.879   2.512   4.896 -1.4189 -0.7208 -0.4193
20021TIP3    H281555   4.889   2.507   5.047  0.5007  0.3536 -0.4964
20022TIP3   OH281556   6.372   5.454   2.640  0.3411  0.1151  0.3013
20022TIP3    H181557   6.324   5.374   2.662  1.1264 -0.4526 -0.0471
20022TIP3    H281558   6.368   5.459   2.545  2.7076 -1.0395  0.1030
20023TIP3   OH281559   2.058   4.814  13.765 -0.0250 -0.0592 -0.7461
20023TIP3    H181560   1.978   4.774  13.800 -0.5300  0.0368 -1.7635
20023TIP3    H281561   2.027   4.872  13.695  0.8663  0.6355 -0.5718
20024TIP3   OH281562   2.833   2.979  12.291  0.1416 -0.1392  0.2882
20024TIP3    H181563   2.754   2.938  12.326  0.6674 -1.5124 -0.1251
20024TIP3    H281564   2.803   3.064  12.258 -1.1120 -0.5627  0.3230
20025TIP3   OH281565   3.334   5.341  15.959 -0.1144  0.0097 -0.2808
20025TIP3    H181566   3.241   5.341  15.982  0.1747  1.2384  1.0099
20025TIP3    H281567   3.367   5.258  15.992 -0.2131  0.7334  1.7376
20026TIP3   OH281568   3.742   4.908   4.788 -0.5714 -0.3669 -0.1482
20026TIP3    H181569   3.721   4.950   4.705 -0.3473  1.6148  0.7659
20026TIP3    H281570   3.838   4.902   4.788 -0.5988 -0.7837 -0.2413
20027TIP3   OH281571   4.471   5.230  16.125 -0.3507  0.0077 -0.6727
20027TIP3    H181572   4.567   5.230  16.124 -0.3503 -0.0368 -0.6339
20027TIP3    H281573   4.446   5.177  16.050 -0.3449  0.2767 -0.8664
20028TIP3   OH281574   3.838   5.529   1.823 -0.3200  0.4428 -0.4544
20028TIP3    H181575   3.857   5.600   1.884 -1.3496 -0.4183  0.8809
20028TIP3    H281576   3.795   5.462   1.876 -0.0259 -0.8778 -1.8455
20029TIP3   OH281577   4.192   1.522  12.745 -0.7305  0.4937  0.3234
20029TIP3    H181578   4.270   1.567  12.712 -0.8798  0.7310  0.2858
20029TIP3    H281579   4.170   1.458  12.677 -0.8568  0.7700  0.1022
20030TIP3   OH281580   0.285   1.168   2.814  0.0871 -0.2389  0.4838
20030TIP3    H181581   0.357   1.190   2.873 -0.4315  0.1003  0.9977
20030TIP3    H281582   0.327   1.122   2.742  0.8810  0.3338  0.5640
20031TIP3   OH281583   2.430   5.250  16.882 -0.1749  0.1414 -0.0595
20031TIP3    H181584   2.459   5.297  16.804  0.4415 -0.3793 -0.1489
20031TIP3    H281585   2.487   5.282  16.952 -0.5484  0.4088  0.1267
20032TIP3   OH281586   6.537   6.663  13.553  0.3182 -0.6528  0.3756
20032TIP3    H181587   6.571   6.747  13.586  0.3156 -0.7878  0.7225
20032TIP3    H281588   6.570   6.598  13.615 -0.8814 -0.7390  0.9276
20033TIP3   OH281589   0.135   4.898  14.175  0.6757 -0.0770  0.6731
20033TIP3    H181590   0.083   4.963  14.224  0.7012  0.7472 -0.3814
20033TIP3    H281591   0.073   4.861  14.112  0.9896 -0.1819  0.4277
20034TIP3   OH281592   4.610   3.143  16.676  0.3510  0.1636  0.0960
20034TIP3    H181593   4.600   3.205  16.604  0.1692 -0.3670 -0.3388
20034TIP3    H281594   4.679   3.084  16.647  0.4891  0.1353  0.4895
20035TIP3   OH281595   1.445   1.098  17.195 -0.4794  0.3592  0.7596
20035TIP3    H181596   1.520   1.128  17.144 -1.1159 -0.1187 -0.4902
20035TIP3    H281597   1.430   1.009  17.165 -0.3467 -0.2381  2.4154
20036TIP3   OH281598   0.380   6.476  14.269 -0.1035 -0.3399 -0.1743
20036TIP3    H181599   0.308   6.418  14.293 -0.9919  0.6230 -0.4980
20036TIP3    H281600   0.358   6.560  14.309  2.0672 -0.6542  1.8401
20037TIP3   OH281601   5.630   4.067   6.210  0.7238  0.7436  0.7544
20037TIP3    H181602   5.550   4.112   6.183 -0.3493  0.4668  3.2789
20037TIP3    H281603   5.696   4.135   6.214  0.0518  1.3969  0.8391
20038TIP3   OH281604   1.909   6.339   2.857  0.1561 -0.4143 -0.5495
20038TIP3    H181605   1.946   6.419   2.820  0.8315 -0.9454 -1.0388
20038TIP3    H281606   1.873   6.292   2.781  0.0506 -0.7297 -0.3054
20039TIP3   OH281607   6.495   0.595   2.673 -0.1522 -0.1026 -0.7923
20039TIP3    H181608   6.416   0.647   2.686 -0.1020 -0.1419 -0.3081
20039TIP3    H281609   6.534   0.588   2.761 -0.1133 -0.8748 -0.8669
20040TIP3   OH281610   4.620   2.626   0.038 -0.4009 -0.0707  0.0846
20040TIP3    H181611   4.673   2.561  -0.007  1.6002  0.2892  1.8212
20040TIP3    H281612   4.607   2.589   0.126 -1.8104  0.5216  0.1390
20041TIP3   OH281613   5.845   0.725   3.186  0.4492  0.2502  0.1144
20041TIP3    H181614   5.823   0.815   3.160  1.5633  0.9486  1.4874
20041TIP3    H281615   5.820   0.721   3.278 -0.2301 -1.0837 -0.1239
20042TIP3   OH281616   5.432   4.851   0.399  0.0374  0.4997 -0.1395
20042TIP3    H181617   5.453   4.942   0.379  0.7560  0.3197 -0.2238
20042TIP3    H281618   5.360   4.829   0.340 -0.8847  1.3501  0.6611
20043TIP3   OH281619   3.221   0.568  12.381 -0.2237 -0.3158  0.1280
20043TIP3    H181620   3.127   0.575  12.396 -0.4567  0.6825 -1.7006
20043TIP3    H281621   3.249   0.494  12.436 -2.1497 -0.9495  0.2731
20044TIP3   OH281622   0.010   4.719  10.313 -0.5375  0.6857  0.1260
20044TIP3    H181623   0.077   4.712  10.382  0.1641  0.7842 -0.5420
20044TIP3    H281624  -0.039   4.638  10.320  0.1993  0.2289  0.0566
20045TIP3   OH281625   5.607   2.476   1.416 -0.7539 -0.2643  0.6667
20045TIP3    H181626   5.673   2.511   1.476  0.0515 -0.7011  0.0540
20045TIP3    H281627   5.615   2.381   1.425  0.9965 -0.4121 -1.8121
20046TIP3   OH281628   4.442   0.559  14.961 -0.3246 -0.6147  0.2933
20046TIP3    H181629   4.356   0.586  14.928 -1.2168 -2.0396  1.3859
20046TIP3    H281630   4.496   0.552  14.882 -1.6614 -1.2872 -0.5853
20047TIP3   OH281631   2.228   3.864   4.191 -0.2536  0.1873  0.3313
20047TIP3    H181632   2.211   3.772   4.170 -1.7492  0.6765 -0.6513
20047TIP3    H281633   2.142   3.904   4.198  0.3799  1.4197  1.2270
20048TIP3   OH281634   6.167   3.269  15.622 -0.3506 -0.3837 -0.7257
20048TIP3    H181635   6.219   3.265  15.542  0.1910 -0.0333 -0.3948
20048TIP3    H281636   6.124   3.354  15.618  0.4464  0.0573 -0.1787
20049TIP3   OH281637   4.591   1.107  15.495  0.3076  0.3511  0.4293
20049TIP3    H181638   4.684   1.107  15.515  0.1651 -0.0367  1.0947
20049TIP3    H281639   4.583   1.051  15.417  0.5596 -0.0709  0.7062
20050TIP3   OH281640   2.309   1.264  13.755 -0.8875 -0.0473  0.0725
20050TIP3    H181641   2.330   1.171  13.750  2.7316  0.7057 -0.2339
20050TIP3    H281642   2.247   1.278  13.684  0.1556 -1.8365 -1.2488
20051TIP3   OH281643   4.934   6.410  12.238  0.0840  0.1758  0.1123
20051TIP3    H181644   4.991   6.401  12.162 -0.6856  1.9829 -0.7197
20051TIP3    H281645   4.949   6.331  12.289  1.0556 -0.7976 -1.6247
20052TIP3   OH281646   5.496   4.574  15.564  0.1169  0.4162  0.1716
20052TIP3    H181647   5.576   4.590  15.514  0.5299  1.3154  1.0900
20052TIP3    H281648   5.526   4.532  15.644 -0.4250 -0.0329  0.1429
20053TIP3   OH281649   2.328   0.295   3.215 -0.3111 -0.1119 -0.0406
20053TIP3    H181650   2.314   0.213   3.167  1.7046  0.8120 -2.3307
20053TIP3    H281651   2.369   0.268   3.297 -2.1761 -1.5911  0.4297
20054TIP3   OH281652   1.706   4.682   4.813 -0.5556 -0.1639 -0.1925
20054TIP3    H181653   1.631   4.734   4.783 -0.1848 -0.5479 -1.7976
20054TIP3    H281654   1.766   4.747   4.849 -1.1157  0.2768 -0.0360
20055TIP3   OH281655   6.297   1.841  15.233  0.0908 -0.1125  0.4759
20055TIP3    H181656   6.287   1.881  15.147  0.5437  0.2761  0.5988
20055TIP3    H281657   6.295   1.747  15.217 -2.0029 -0.0658  0.2999
20056TIP3   OH281658   1.701   0.304  15.055 -0.2200 -0.3395 -0.2968
20056TIP3    H181659   1.614   0.313  15.095 -0.8691  1.8974 -2.1086
20056TIP3    H281660   1.742   0.389  15.070  1.0926 -0.8897 -0.7714
20057TIP3   OH281661   3.768   5.027  12.949  0.6091  0.0150  0.1601
20057TIP3    H181662   3.804   5.109  12.916 -0.7377  0.5862  0.0789
20057TIP3    H281663   3.685   5.017  12.901 -0.0719 -0.4945  1.4424
20058TIP3   OH281664   4.159   0.409   6.194 -0.0122  0.2160 -0.0242
20058TIP3    H181665   4.168   0.466   6.271 -0.7206  0.3463 -0.0365
20058TIP3    H281666   4.193   0.324   6.223 -0.4958  0.2011  0.5100
20059TIP3   OH281667   5.196   5.811   2.033 -0.4514  0.1993  0.2785
20059TIP3    H181668   5.187   5.830   1.939 -2.0696 -0.2480  0.3352
20059TIP3    H281669   5.286   5.838   2.054  0.5362 -1.2969 -1.7799
20060TIP3   OH281670   0.250   6.628   0.862 -0.0828  0.4968  0.5549
20060TIP3    H181671   0.262   6.534   0.876  1.0918  0.6123  0.3623
20060TIP3    H281672   0.335   6.659   0.832 -0.5289  1.5870  0.3823
20061TIP3   OH281673   3.899   1.073   2.379  0.4582 -0.4544 -0.0655
20061TIP3    H181674   3.908   0.996   2.436 -0.6527 -0.6313 -0.1075
20061TIP3    H281675   3.917   1.040   2.291  1.6552 -0.2959  0.1141
20062TIP3   OH281676   4.922   0.042   0.463  0.3991  0.3694  0.0644
20062TIP3    H181677   4.882   0.128   0.480 -0.6224  0.0043 -0.4811
20062TIP3    H281678   4.951   0.047   0.372 -1.4643 -0.5519 -0.6122
20063TIP3   OH281679   0.713   2.516  14.866 -0.2463 -0.3093 -0.2232
20063TIP3    H181680   0.670   2.437  14.897  2.0551 -1.0553  1.1778
20063TIP3    H281681   0.710   2.509  14.770 -1.8443 -1.0738 -0.1243
20064TIP3   OH281682   2.491   3.083  11.869  0.2273  0.5457  0.2770
20064TIP3    H181683   2.470   3.081  11.963  0.5970  0.7338  0.3637
20064TIP3    H281684   2.485   2.992  11.841 -4.4715  0.9823 -0.5412
20065TIP3   OH281685   6.188   0.393  11.564  0.5176  0.7162 -0.0040
20065TIP3    H181686   6.246   0.335  11.514 -1.0427  0.0200 -1.0559
20065TIP3    H281687   6.138   0.334  11.620 -0.8258  1.0475 -0.8251
20066TIP3   OH281688   0.992   1.625   2.932  0.1314 -0.1958  0.1053
20066TIP3    H181689   1.016   1.599   3.021  0.3491  1.0583  0.4269
20066TIP3    H281690   1.068   1.602   2.879 -0.4617 -2.0379  0.0266
20067TIP3   OH281691   0.994   3.769   0.912 -0.0571 -0.3406  0.0522
20067TIP3    H181692   0.903   3.742   0.907  0.3059 -1.6895  0.4070
20067TIP3    H281693   1.001   3.820   0.992 -0.3396 -0.8771  0.4166
20068TIP3   OH281694   3.093   1.701  15.033 -0.2111 -0.4694 -0.4710
20068TIP3    H181695   3.056   1.620  14.997  1.9740 -1.4108 -0.7141
20068TIP3    H281696   3.133   1.674  15.115 -1.6036  0.8811  0.6755
20069TIP3   OH281697   4.154   0.280  12.045 -0.2054  0.2705  0.7459
20069TIP3    H181698   4.147   0.220  11.970 -1.2855  0.1851  0.9092
20069TIP3    H281699   4.107   0.358  12.018 -0.3846  0.3380  1.2423
20070TIP3   OH281700   4.154   3.168  10.908 -0.0200  0.4520  0.5239
20070TIP3    H181701   4.224   3.214  10.860 -1.2730 -0.4485 -2.2730
20070TIP3    H281702   4.157   3.079  10.874 -1.7245  0.0819  1.3104
20071TIP3   OH281703   6.241   0.231   4.021  0.4725  0.2970 -0.8372
20071TIP3    H181704   6.313   0.195   3.971  0.1612 -2.4310  0.5817
20071TIP3    H281705   6.199   0.155   4.062 -1.9464  2.0033  0.0133
20072TIP3   OH281706   4.583   1.436  12.827  0.2822 -0.1459 -0.0213
20072TIP3    H181707   4.661   1.410  12.777  0.2230  0.6137 -0.5119
20072TIP3    H281708   4.519   1.367  12.807  1.2065 -1.4451  1.3578
20073TIP3   OH281709   1.690   5.956   2.613  0.2467  0.3197 -0.1480
20073TIP3    H181710   1.629   5.982   2.544  0.5796  1.7782  0.0842
20073TIP3    H281711   1.634   5.935   2.688 -0.0141  1.1810 -0.0915
20074TIP3   OH281712   6.340   5.124   3.305 -0.0205 -0.0302 -0.4740
20074TIP3    H181713   6.425   5.093   3.274  0.0614 -0.0906 -0.1878
20074TIP3    H281714   6.277   5.067   3.262  0.1971 -1.6028  1.2422
20075TIP3   OH281715   1.899   4.038  14.258  0.2815  0.0100  0.0002
20075TIP3    H181716   1.911   4.130  14.280 -1.1777  0.0293  0.7894
20075TIP3    H281717   1.896   4.036  14.162  0.3738  0.7750 -0.0193
20076TIP3   OH281718   0.346   0.929   6.096  0.0738  0.0064 -0.1872
20076TIP3    H181719   0.265   0.947   6.048  1.0670  2.1799 -1.0872
20076TIP3    H281720   0.415   0.936   6.030  1.2137  0.5002  1.0476
20077TIP3   OH281721   4.100   3.329   6.039  0.5090  0.1299  0.0974
20077TIP3    H181722   4.114   3.270   5.964  0.1612 -0.9227  0.8478
20077TIP3    H281723   4.169   3.305   6.101 -0.5230 -0.5045  1.0205
20078TIP3   OH281724   1.781   2.285  17.266 -0.2592 -0.3749  0.8381
20078TIP3    H181725   1.767   2.377  17.243 -1.6780 -0.6887  0.4279
20078TIP3    H281726   1.788   2.285  17.361 -0.6526  0.0965  0.8670
20079TIP3   OH281727   2.501   0.970   5.748 -0.1092  0.6199 -0.8718
20079TIP3    H181728   2.555   0.891   5.759 -0.8406  0.2383  0.0409
20079TIP3    H281729   2.563   1.042   5.751  0.1302  0.3815  3.0074
20080TIP3   OH281730   4.820   6.426   0.754  0.3256 -0.5493 -0.3312
20080TIP3    H181731   4.760   6.373   0.806  0.7261 -0.5657  0.1200
20080TIP3    H281732   4.768   6.502   0.728  0.4378  0.0266  1.0669
20081TIP3   OH281733   1.737   5.705   1.147 -0.1418  0.2349  0.3060
20081TIP3    H181734   1.790   5.783   1.130 -1.1439  0.8759  0.0649
20081TIP3    H281735   1.710   5.714   1.238  1.4337 -0.8783  0.8974
20082TIP3   OH281736   5.791   4.792  14.022  0.4806 -0.1489  0.4281
20082TIP3    H181737   5.696   4.784  14.025  0.4441  0.3087  0.6368
20082TIP3    H281738   5.813   4.836  14.105  0.6181  2.1765 -0.8120
20083TIP3   OH281739   0.144   0.417  15.125  0.2583 -0.9346 -0.5250
20083TIP3    H181740   0.240   0.410  15.125  0.2647 -0.8584 -0.1629
20083TIP3    H281741   0.126   0.510  15.116  0.1992 -1.0851 -2.1404
20084TIP3   OH281742   6.504   4.887   0.567  0.8421  0.2081  0.1013
20084TIP3    H181743   6.566   4.813   0.565  1.0204  0.3891 -1.4802
20084TIP3    H281744   6.540   4.950   0.505 -0.9354  0.3033 -0.8754
20085TIP3   OH281745   4.507   5.863  12.255 -0.0505  0.1519 -0.7368
20085TIP3    H181746   4.578   5.866  12.320 -2.6705  2.0498  2.2036
20085TIP3    H281747   4.490   5.954  12.235 -1.9967 -0.2655 -1.0107
20086TIP3   OH281748   5.928   5.597   3.154  0.3718  0.4234  0.4724
20086TIP3    H181749   5.842   5.562   3.179 -0.2459  1.7064  0.1587
20086TIP3    H281750   5.989   5.553   3.213 -0.1897 -2.4152 -0.9797
20087TIP3   OH281751   1.874   1.778   0.529  0.1493 -0.3232  0.3689
20087TIP3    H181752   1.851   1.869   0.511 -0.0525 -0.4328  0.0738
20087TIP3    H281753   1.958   1.783   0.575 -1.2992  0.1551  3.0384
20088TIP3   OH281754   5.683   5.929   6.159 -0.1530  0.2172 -0.3933
20088TIP3    H181755   5.670   6.010   6.208  2.6771 -0.6266  1.9173
20088TIP3    H281756   5.621   5.867   6.197  0.1339  0.3444  0.3003
20089TIP3   OH281757   1.688   5.198   1.760 -0.3197  0.4114  0.3902
20089TIP3    H181758   1.746   5.254   1.811  0.7488  0.3942 -0.7923
20089TIP3    H281759   1.624   5.166   1.823  1.9387 -0.9473  2.0588
20090TIP3   OH281760   3.428   6.469   3.616 -0.1101  0.3140  0.0734
20090TIP3    H181761   3.413   6.550   3.665  0.4160  0.5209 -0.0987
20090TIP3    H281762   3.463   6.499   3.532 -1.2451 -0.0198 -0.5325
20091TIP3   OH281763   4.930   5.251  15.646  0.4004 -0.1920 -0.0248
20091TIP3    H181764   4.920   5.198  15.725  0.4947  0.6803  0.5778
20091TIP3    H281765   4.955   5.337  15.678 -0.3663  0.3892 -0.9749
20092TIP3   OH281766   2.952   0.681   1.837  0.2187 -0.1588 -0.8633
20092TIP3    H181767   2.922   0.601   1.880  1.0510 -0.0789 -0.0996
20092TIP3    H281768   3.020   0.651   1.776  1.6023  0.1085  0.5113
20093TIP3   OH281769   4.631   2.758  15.322  0.4746  0.2732 -0.1031
20093TIP3    H181770   4.553   2.812  15.323  0.7447  0.6606  0.1139
20093TIP3    H281771   4.601   2.673  15.290 -0.3514 -0.0687  1.5368
20094TIP3   OH281772   0.488   3.052   3.263 -0.1492  0.2163  0.4417
20094TIP3    H181773   0.456   3.116   3.199 -0.6890 -1.0174 -0.5502
20094TIP3    H281774   0.412   3.031   3.317 -0.0091  0.3189  0.6766
20095TIP3   OH281775   4.780   1.072   4.656  0.1911  0.3751 -0.4755
20095TIP3    H181776   4.859   1.072   4.602  0.6610 -1.3096  0.1745
20095TIP3    H281777   4.803   1.020   4.733 -1.2145  0.7741  0.2346
20096TIP3   OH281778   0.396   3.361  16.061  0.0752  0.2050  0.5242
20096TIP3    H181779   0.324   3.410  16.101 -0.0012 -0.1163  0.7850
20096TIP3    H281780   0.475   3.409  16.087  0.0492 -0.1693  1.3200
20097TIP3   OH281781   2.805   1.584   0.392  0.0548 -0.6415 -0.8956
20097TIP3    H181782   2.710   1.580   0.400  0.0368 -1.5798 -1.5023
20097TIP3    H281783   2.821   1.650   0.325 -0.1061  0.5170  0.1745
20098TIP3   OH281784   1.658   3.094  17.063 -0.2223 -0.1578  0.1065
20098TIP3    H181785   1.708   3.036  17.007 -1.3964 -1.1499  0.0639
20098TIP3    H281786   1.594   3.134  17.005 -1.2063 -0.9144  0.6497
20099TIP3   OH281787   0.116   6.045  14.476  0.2954 -0.4164  0.2061
20099TIP3    H181788   0.074   6.040  14.390  2.2672 -2.0632 -0.6911
20099TIP3    H281789   0.144   5.956  14.495  0.8103  0.1194  2.1191
20100TIP3   OH281790   2.417   3.510  16.753 -0.1030  0.1372  0.0268
20100TIP3    H181791   2.459   3.486  16.835  0.2079 -1.7053 -0.6556
20100TIP3    H281792   2.417   3.430  16.700 -1.5014  0.9323 -1.2602
20101TIP3   OH281793   0.216   3.235   3.791  0.4607  0.1901 -0.0963
20101TIP3    H181794   0.203   3.250   3.697 -0.4535  1.3323  0.1986
20101TIP3    H281795   0.292   3.177   3.795  0.5451  0.1633 -1.5402
20102TIP3   OH281796   4.937   3.666  15.470 -0.1155 -0.5845 -0.2907
20102TIP3    H181797   4.908   3.603  15.537 -0.2041 -0.3871 -0.1423
20102TIP3    H281798   5.007   3.716  15.513  0.9005 -1.4894 -0.8613
20103TIP3   OH281799   2.911   3.351  17.105  0.4255  0.1338  0.1914
20103TIP3    H181800   2.899   3.338  17.011  2.2231 -0.5913  0.0442
20103TIP3    H281801   2.999   3.386  17.114  0.6110 -0.6495  1.6656
20104TIP3   OH281802   4.679   5.216  15.072  0.7543  0.1825  0.0404
20104TIP3    H181803   4.676   5.200  15.166  0.4248  2.8779  0.5173
20104TIP3    H281804   4.704   5.308  15.064  1.3971 -0.1782 -2.5212
20105TIP3   OH281805   2.727   1.979   2.374  0.1705 -0.0303  0.3999
20105TIP3    H181806   2.633   1.962   2.369 -0.0289  0.8585  1.1043
20105TIP3    H281807   2.736   2.072   2.356  0.9250 -0.1080  0.3358
20106TIP3   OH281808   0.470   3.414  15.751  0.5915  1.0426  0.2258
20106TIP3    H181809   0.507   3.326  15.754 -1.2605  0.2560  0.5644
20106TIP3    H281810   0.520   3.463  15.816  0.5389 -0.1974  1.2311
20107TIP3   OH281811   0.120   4.627   3.795  0.2594  0.3940 -0.0848
20107TIP3    H181812   0.169   4.603   3.716  2.6952 -0.7092  1.6974
20107TIP3    H281813   0.132   4.722   3.802  2.3416  0.1328  0.3876
20108TIP3   OH281814   4.773   3.816   0.724  0.1699  0.1950  0.0997
20108TIP3    H181815   4.692   3.854   0.759  0.1550  1.3120 -1.0765
20108TIP3    H281816   4.842   3.874   0.756  0.3664 -0.0167  0.0583
20109TIP3   OH281817   2.577   4.114  12.268  0.3623  0.0156 -0.0804
20109TIP3    H181818   2.577   4.198  12.222  0.7467 -0.6307 -1.2835
20109TIP3    H281819   2.656   4.071  12.238  0.8873 -0.2214  1.5933
20110TIP3   OH281820   5.735   3.018  15.372  0.0830 -0.0027 -0.1405
20110TIP3    H181821   5.678   3.017  15.295 -0.8303  0.1678  0.5265
20110TIP3    H281822   5.711   3.098  15.419  1.5996  0.6102 -0.3885
20111TIP3   OH281823   2.725   5.311   2.924 -0.3299 -0.0133  0.0791
20111TIP3    H181824   2.773   5.352   2.852 -2.3294 -2.0267 -2.5545
20111TIP3    H281825   2.765   5.224   2.933 -1.0093 -0.3071  0.3746
20112TIP3   OH281826   6.490   0.284   5.460  0.4086 -0.1305 -0.6754
20112TIP3    H181827   6.462   0.308   5.548  2.4031  1.7554 -0.5237
20112TIP3    H281828   6.563   0.223   5.474 -0.2190 -0.9689 -1.0309
20113TIP3   OH281829   1.591   5.140   3.435  0.3341 -0.2629 -0.3612
20113TIP3    H181830   1.510   5.184   3.461  0.1822 -0.6984 -0.0890
20113TIP3    H281831   1.581   5.122   3.342 -0.3794 -1.3726 -0.0737
20114TIP3   OH281832   4.084   6.708   2.032  0.1898  0.0855 -0.2126
20114TIP3    H181833   4.173   6.709   2.067  0.4287 -0.5613 -0.7808
20114TIP3    H281834   4.096   6.699   1.937 -0.4810  0.0756 -0.2968
20115TIP3   OH281835   2.673   0.883   6.104 -0.3835  0.4187 -0.2337
20115TIP3    H181836   2.757   0.897   6.148 -0.4348 -1.3268  0.4362
20115TIP3    H281837   2.694   0.885   6.010  0.6044 -1.1162 -0.0656
20116TIP3   OH281838   0.724   6.045   2.342 -0.2373  0.4540  0.6817
20116TIP3    H181839   0.733   5.971   2.281  1.0143  1.1423  0.0060
20116TIP3    H281840   0.653   6.019   2.400 -1.2721 -0.3555 -0.8893
20117TIP3   OH281841   4.577   5.742  16.680  0.8011  0.3148 -0.3239
20117TIP3    H181842   4.540   5.664  16.721  0.5720  0.7899  0.3880
20117TIP3    H281843   4.667   5.745  16.711  0.3411  1.2394  1.0139
20118TIP3   OH281844   4.141   0.217  11.516  0.3953 -0.0093 -0.1514
20118TIP3    H181845   4.194   0.163  11.458 -0.4145  1.1138 -1.9759
20118TIP3    H281846   4.147   0.305  11.479  1.7287  1.2129  2.7743
20119TIP3   OH281847   4.509   4.900  15.675 -0.0695 -0.4628  0.4710
20119TIP3    H181848   4.482   4.809  15.670  0.6486 -0.6304 -0.4534
20119TIP3    H281849   4.602   4.897  15.696  0.5300 -0.0023 -2.0454
20120TIP3   OH281850   3.337   1.469  17.009  0.4918  0.1429  0.3762
20120TIP3    H181851   3.278   1.540  17.034  0.2793  0.3594 -0.7035
20120TIP3    H281852   3.288   1.389  17.027 -0.5166  0.3345 -1.3725
20121TIP3   OH281853   5.964   1.615   1.940 -0.1228  0.1177 -0.2917
20121TIP3    H181854   6.039   1.607   1.881  1.5357  0.2841  1.7435
20121TIP3    H281855   5.922   1.529   1.937  0.6539 -0.2535 -0.7717
20122TIP3   OH281856   2.222   3.984  16.176 -0.2317  0.1005  0.0569
20122TIP3    H181857   2.276   4.056  16.210 -0.4288  0.6744 -0.8184
20122TIP3    H281858   2.190   4.017  16.092  2.7359 -2.4514 -2.1731
20123TIP3   OH281859   3.873   5.500  11.491 -0.0465 -0.2680 -0.8820
20123TIP3    H181860   3.897   5.586  11.526  0.3114 -1.0350  0.7843
20123TIP3    H281861   3.783   5.487  11.520  0.8409 -1.6752  1.2721
20124TIP3   OH281862   1.155   3.211  16.722  0.2093 -0.3000 -0.6428
20124TIP3    H181863   1.115   3.244  16.803  1.1654  0.1455 -0.3361
20124TIP3    H281864   1.187   3.124  16.745  1.4942  0.2747 -0.1960
20125TIP3   OH281865   3.236   5.192  12.258  0.1732  0.0535 -0.5938
20125TIP3    H181866   3.263   5.149  12.339  1.8985  0.2961 -1.0260
20125TIP3    H281867   3.155   5.148  12.233  0.4715 -1.0788  0.4221
20126TIP3   OH281868   4.014   2.615  11.864 -0.4923 -0.2099 -0.3334
20126TIP3    H181869   4.004   2.708  11.842 -0.5941 -0.4064 -1.1473
20126TIP3    H281870   4.109   2.600  11.860 -0.1172  0.7236  3.4902
20127TIP3   OH281871   6.799   2.675   5.665  0.0619  0.7908  0.0372
20127TIP3    H181872   6.715   2.713   5.639  0.6473  0.8012 -1.9710
20127TIP3    H281873   6.778   2.584   5.686 -0.5915  1.0165  0.3930
20128TIP3   OH281874   0.827   2.112  12.165  0.2602  0.0823  0.2550
20128TIP3    H181875   0.850   2.019  12.162 -0.0649 -0.0533  1.4122
20128TIP3    H281876   0.883   2.153  12.100  1.2320 -0.7539  0.5509
20129TIP3   OH281877   3.643   1.397   0.746  0.5352 -0.1701  0.1608
20129TIP3    H181878   3.590   1.461   0.794 -0.0619  0.5913 -1.4925
20129TIP3    H281879   3.583   1.324   0.730 -0.0454  0.7066 -1.7422
20130TIP3   OH281880   2.222   4.272  11.918  0.3199  0.4736 -0.1353
20130TIP3    H181881   2.244   4.231  11.834 -0.2224  0.3391 -0.2091
20130TIP3    H281882   2.293   4.334  11.934  0.8474 -0.0839 -0.3001
20131TIP3   OH281883   5.176   2.434  15.154 -0.6858 -0.0176 -0.1716
20131TIP3    H181884   5.246   2.372  15.173 -2.0423 -1.3972  0.4254
20131TIP3    H281885   5.196   2.510  15.209 -1.5906 -1.8272  2.8059
20132TIP3   OH281886   2.826   2.614   4.008 -0.5766  0.1503  0.5882
20132TIP3    H181887   2.770   2.661   4.070 -0.4523 -1.0849  1.6583
20132TIP3    H281888   2.776   2.536   3.985 -0.1096  0.0134  0.0248
20133TIP3   OH281889   4.202   5.228   4.649  0.2333  0.5103  0.0227
20133TIP3    H181890   4.198   5.134   4.630  0.0311  0.7692 -1.3278
20133TIP3    H281891   4.142   5.267   4.585 -1.3997  1.3621  2.0362
20134TIP3   OH281892   2.735   6.185   2.444  0.5009 -0.2693 -0.1964
20134TIP3    H181893   2.762   6.276   2.445  0.7248 -0.3424  0.1536
20134TIP3    H281894   2.659   6.181   2.502  1.0525 -0.4872  0.5054
20135TIP3   OH281895   5.317   6.282  16.989 -0.2281 -0.1632 -0.1001
20135TIP3    H181896   5.374   6.206  16.998 -0.1726 -0.0217  0.7459
20135TIP3    H281897   5.315   6.299  16.894 -1.8900 -2.4629 -0.5217
20136TIP3   OH281898   0.280   2.739  10.821  0.2429 -0.4426 -0.0730
20136TIP3    H181899   0.354   2.708  10.874  0.5999 -0.5116 -0.6079
20136TIP3    H281900   0.244   2.660  10.782  0.7561 -0.2570 -0.9278
20137TIP3   OH281901   6.681   4.724   3.743 -0.1508 -0.0839 -0.1578
20137TIP3    H181902   6.720   4.670   3.811 -0.4031  0.8014  0.7059
20137TIP3    H281903   6.705   4.681   3.661 -0.2096 -1.3988  0.5041
20138TIP3   OH281904   1.093   0.397   3.316 -0.5000  0.2864  0.1018
20138TIP3    H181905   1.060   0.435   3.235 -0.8339 -1.0752 -0.4230
20138TIP3    H281906   1.131   0.313   3.289  1.1816  0.6992  1.0638
20139TIP3   OH281907   5.646   0.812   3.798  0.4309 -0.3958  0.6011
20139TIP3    H181908   5.732   0.803   3.757  0.2590  1.3942 -0.2144
20139TIP3    H281909   5.585   0.827   3.726 -0.3281 -0.0919  1.2845
20140TIP3   OH281910   3.405   1.548   5.949 -0.2306  0.5710  0.2079
20140TIP3    H181911   3.420   1.584   6.036 -0.7824  1.6413 -0.1336
20140TIP3    H281912   3.330   1.489   5.960  0.3994 -0.1571  0.6760
20141TIP3   OH281913   2.743   3.786   0.180 -0.4465  0.4143 -0.1558
20141TIP3    H181914   2.774   3.865   0.223 -0.9514 -0.2290  1.4143
20141TIP3    H281915   2.661   3.814   0.137 -0.2965  0.8872 -0.1425
20142TIP3   OH281916   5.495   0.266   1.370  0.1881 -0.5182 -0.0737
20142TIP3    H181917   5.433   0.222   1.312 -2.0477  2.0093  0.2640
20142TIP3    H281918   5.479   0.360   1.355  3.5109  0.2095  0.5191
20143TIP3   OH281919   3.331   4.067  15.459 -0.3327  0.0826  0.1145
20143TIP3    H181920   3.284   3.987  15.482 -0.4895 -0.2517 -1.3064
20143TIP3    H281921   3.318   4.076  15.365 -1.6220  2.6384  0.5004
20144TIP3   OH281922   5.878   4.956   5.400  0.0499 -0.4678 -0.5606
20144TIP3    H181923   5.821   4.880   5.414 -1.6362  0.7091 -0.7962
20144TIP3    H281924   5.840   5.001   5.324  0.5201  1.0398  0.0687
20145TIP3   OH281925   1.790   0.234  14.388  0.4968 -0.4213 -0.3554
20145TIP3    H181926   1.882   0.260  14.377  0.1892  0.8745  0.1576
20145TIP3    H281927   1.740   0.312  14.364 -0.4678 -1.0157 -0.2879
20146TIP3   OH281928   4.318   0.381  12.930  0.4966  0.0513  0.1123
20146TIP3    H181929   4.382   0.450  12.914 -0.0775  0.1796 -1.7240
20146TIP3    H281930   4.283   0.360  12.844  0.0183 -1.9143  0.7543
20147TIP3   OH281931   2.109   1.485  13.195 -0.2898 -0.4640 -0.5310
20147TIP3    H181932   2.155   1.446  13.120  0.0539 -2.3955  0.6668
20147TIP3    H281933   2.020   1.454  13.187  0.6446 -4.0369  2.0869
20148TIP3   OH281934   1.738   4.673   2.785  0.0925  0.5577  0.1395
20148TIP3    H181935   1.666   4.716   2.737 -1.0149  0.1556  1.4294
20148TIP3    H281936   1.742   4.585   2.747  1.2959  1.2344 -1.3766
20149TIP3   OH281937   4.606   5.862  16.089  0.2377 -0.3989 -0.2100
20149TIP3    H181938   4.693   5.827  16.109 -0.2332 -2.8554 -2.2923
20149TIP3    H281939   4.622   5.951  16.060  2.1254 -0.9624 -0.9695
20150TIP3   OH281940   5.960   4.376  13.114  0.3629 -0.3521  0.2938
20150TIP3    H181941   5.982   4.445  13.177 -1.0693  0.4810 -0.0983
20150TIP3    H281942   6.028   4.383  13.047 -0.6274  1.7402 -0.5491
20151TIP3   OH281943   5.823   1.169   4.335 -0.4456  0.0489  0.3063
20151TIP3    H181944   5.769   1.111   4.282  0.1030 -0.1758 -0.0114
20151TIP3    H281945   5.911   1.132   4.328  0.4766  2.5201 -2.2610
20152TIP3   OH281946   5.757   0.347  17.147 -0.7268  0.4400  0.1111
20152TIP3    H181947   5.672   0.345  17.104 -1.0081 -2.1679  0.7223
20152TIP3    H281948   5.797   0.262  17.127  1.3850  1.2948  0.5368
20153TIP3   OH281949   2.904   0.924  10.403  0.0053 -0.2392 -0.3475
20153TIP3    H181950   2.926   0.972  10.483 -0.8675 -0.2009 -0.1267
20153TIP3    H281951   2.863   0.844  10.433 -1.0216  0.1263 -0.7721
20154TIP3   OH281952   6.642   4.258   5.981 -0.1762  0.5791  0.1768
20154TIP3    H181953   6.666   4.321   5.913 -1.0192 -0.4175 -1.0681
20154TIP3    H281954   6.551   4.236   5.962  0.6487 -2.4479 -0.5709
20155TIP3   OH281955   0.839   6.494   2.808  0.2189 -0.5603  0.0315
20155TIP3    H181956   0.853   6.588   2.797  0.5762 -0.6693 -0.4689
20155TIP3    H281957   0.835   6.460   2.718 -1.0244 -0.8575  0.1997
20156TIP3   OH281958   0.555   1.969   4.467  0.5071  0.1042 -0.3452
20156TIP3    H181959   0.615   1.964   4.392  2.0268 -0.6863  0.8976
20156TIP3    H281960   0.607   1.939   4.541 -1.2824 -0.0698  0.8647
20157TIP3   OH281961   3.788   0.064   4.572 -0.0050  0.2645 -1.5355
20157TIP3    H181962   3.844   0.141   4.578 -0.6145  0.5877  0.6848
20157TIP3    H281963   3.844  -0.004   4.536  2.0821  0.3543  1.4058
20158TIP3   OH281964   1.995   5.330   0.647  1.0503  0.1467  0.4051
20158TIP3    H181965   1.904   5.347   0.672  0.6318 -0.5058 -0.6314
20158TIP3    H281966   2.042   5.410   0.671  0.0391  0.8288  0.1587
20159TIP3   OH281967   6.784   5.706   6.431 -0.1232  0.4231 -0.5275
20159TIP3    H181968   6.856   5.664   6.478 -1.1636  1.1542  1.7688
20159TIP3    H281969   6.737   5.633   6.390  0.5810 -0.2635 -0.1283
20160TIP3   OH281970   3.396   5.930   2.245 -0.2254 -0.2303  0.0009
20160TIP3    H181971   3.423   6.020   2.265  1.0549 -0.5157 -0.4068
20160TIP3    H281972   3.424   5.879   2.320 -1.2172 -0.2575  0.3660
20161TIP3   OH281973   5.157   2.404  16.101 -0.2918 -0.5398  0.1080
20161TIP3    H181974   5.087   2.378  16.161  0.4125 -0.6679  0.8759
20161TIP3    H281975   5.166   2.499  16.114  1.3553 -0.9070  1.8181
20162TIP3   OH281976   1.043   4.334   3.283 -0.1109 -0.6726 -0.7002
20162TIP3    H181977   1.016   4.289   3.202 -1.3144  0.6028 -1.0286
20162TIP3    H281978   1.138   4.341   3.276 -0.2821  0.2113 -2.4487
20163TIP3   OH281979   3.527   0.058   6.849 -0.1559  0.3521 -0.1644
20163TIP3    H181980   3.492  -0.001   6.781 -0.0390 -0.1241  0.1854
20163TIP3    H281981   3.553   0.136   6.802  0.2098 -0.0999 -0.7121
20164TIP3   OH281982   4.093   3.817  13.292  0.2849 -0.0417  0.0810
20164TIP3    H181983   4.165   3.784  13.237 -0.9733  1.0472 -2.2939
20164TIP3    H281984   4.060   3.739  13.335  2.1416 -0.7371  0.3229
20165TIP3   OH281985   3.826   1.188   3.296  0.1937 -0.0808  0.5977
20165TIP3    H181986   3.851   1.104   3.334 -1.8531  0.7631  4.0556
20165TIP3    H281987   3.908   1.226   3.265  1.8956 -1.2890  3.3935
20166TIP3   OH281988   5.394   1.627  12.913  0.6340 -0.3533 -0.4749
20166TIP3    H181989   5.387   1.583  12.998  2.3793 -1.9795 -1.1327
20166TIP3    H281990   5.404   1.719  12.935  2.3592 -0.8881  1.1682
20167TIP3   OH281991   1.785   3.808  11.715  0.2665 -0.1278  0.0092
20167TIP3    H181992   1.830   3.729  11.689  2.4081  0.6953  1.1188
20167TIP3    H281993   1.692   3.789  11.699  0.7625 -2.7532  0.0615
20168TIP3   OH281994   2.384   0.612  15.390  0.4414  0.4517  0.0177
20168TIP3    H181995   2.313   0.590  15.450  0.0174  0.5160 -0.4661
20168TIP3    H281996   2.409   0.701  15.413 -0.6803  0.9908 -0.8647
20169TIP3   OH281997   3.809   2.119  17.028  0.3304  0.1448  0.3369
20169TIP3    H181998   3.720   2.095  17.001  0.7514  0.4801 -1.4077
20169TIP3    H281999   3.821   2.075  17.112 -2.3312  2.0416  1.7773
20170TIP3   OH282000   3.123   6.766  11.982  0.2051 -1.0205 -0.2287
20170TIP3    H182001   3.164   6.690  11.940 -1.9030 -1.3805 -1.7527
20170TIP3    H282002   3.037   6.734  12.011 -0.5852  0.6903 -0.6055
20171TIP3   OH282003   5.824   4.532   1.197  0.0194 -0.2558  0.5841
20171TIP3    H182004   5.757   4.596   1.172  0.2386  0.1975  1.1485
20171TIP3    H282005   5.795   4.499   1.282 -0.2466 -1.1255  0.1547
20172TIP3   OH282006   4.928   0.407   1.757  0.4935  0.3594 -0.3880
20172TIP3    H182007   4.890   0.319   1.753  0.1548  0.3549  2.5028
20172TIP3    H282008   4.976   0.409   1.840  0.4028  2.9649 -0.3665
20173TIP3   OH282009   1.408   0.443   5.449  0.0388  0.2637 -0.0158
20173TIP3    H182010   1.409   0.495   5.529  1.1488  0.3441 -0.0812
20173TIP3    H282011   1.484   0.474   5.399 -0.2390 -0.2763 -0.7843
20174TIP3   OH282012   3.523   3.911  12.717 -0.1618  0.0049  0.1801
20174TIP3    H182013   3.609   3.875  12.694 -0.9138 -1.1212 -0.9512
20174TIP3    H282014   3.534   4.005  12.709  1.0491 -0.1099  0.3210
20175TIP3   OH282015   4.842   5.102  10.316 -0.1135 -0.0471  0.3300
20175TIP3    H182016   4.874   5.032  10.259  0.4611  0.6813 -0.2544
20175TIP3    H282017   4.805   5.056  10.391  0.9940 -0.9663  0.3470
20176TIP3   OH282018   1.054   4.039  12.682  0.3149 -0.2838  0.1331
20176TIP3    H182019   1.093   4.025  12.768  1.0087 -0.0751 -0.1398
20176TIP3    H282020   1.117   4.001  12.621 -0.5173 -1.0663 -0.2379
20177TIP3   OH282021   5.116   5.616   2.333  0.1989  0.0696 -0.6411
20177TIP3    H182022   5.027   5.632   2.365  1.4552  0.0922  3.0926
20177TIP3    H282023   5.131   5.523   2.351  0.4262 -0.3534 -2.7914
20178TIP3   OH282024   6.132   2.009   1.078  0.7801  0.1631 -0.1708
20178TIP3    H182025   6.080   2.081   1.114  0.5685 -0.3027  0.4601
20178TIP3    H282026   6.209   2.004   1.136  1.0042  0.1636 -0.4690
20179TIP3   OH282027   5.132   1.271  13.016  0.1042  0.2702  0.0952
20179TIP3    H182028   5.060   1.323  12.979 -0.9951 -1.5684 -0.3926
20179TIP3    H282029   5.209   1.297  12.965  0.1669  3.4715  1.7010
20180TIP3   OH282030   5.247   6.061  14.921  0.5575  0.3761  0.2495
20180TIP3    H182031   5.240   5.966  14.907  2.2014  0.5477 -2.1041
20180TIP3    H282032   5.192   6.099  14.853  0.8012  1.1146  0.4639
20181TIP3   OH282033   3.150   4.429  11.147 -0.0708 -0.1074 -0.7410
20181TIP3    H182034   3.076   4.468  11.193  1.1073  1.1931  0.1040
20181TIP3    H282035   3.111   4.373  11.080 -1.8262 -2.0630  1.8365
20182TIP3   OH282036   3.229   3.235   6.334 -0.2607  0.2459 -0.0297
20182TIP3    H182037   3.296   3.300   6.355 -2.8413  3.3990 -1.1003
20182TIP3    H282038   3.235   3.224   6.239 -1.7192  1.0944 -0.2302
20183TIP3   OH282039   3.813   4.067   5.670 -0.8377 -0.1634 -0.6274
20183TIP3    H182040   3.824   4.025   5.585 -0.0854  1.1734 -1.2045
20183TIP3    H282041   3.753   4.010   5.718 -1.2278 -0.9455 -2.0378
20184TIP3   OH282042   1.498   5.950  16.303  0.1264  0.0464 -0.3850
20184TIP3    H182043   1.443   5.900  16.243 -1.8078  0.6257  0.8502
20184TIP3    H282044   1.577   5.897  16.312 -0.1209 -0.6973 -2.3720
20185TIP3   OH282045   0.962   6.200   5.017  0.1731  0.0986  0.6479
20185TIP3    H182046   0.960   6.136   5.088 -0.8160  0.7999  1.2677
20185TIP3    H282047   0.976   6.284   5.061  0.1839  0.4560 -0.0339
20186TIP3   OH282048   6.812   1.090   2.799  0.3510 -0.4051  0.0031
20186TIP3    H182049   6.904   1.118   2.797  0.7435 -1.5498  1.5951
20186TIP3    H282050   6.810   1.009   2.749 -0.1160  0.5223 -1.4936
20187TIP3   OH282051   6.556   0.565  12.736 -0.3855 -0.3018 -0.0074
20187TIP3    H182052   6.624   0.543  12.800 -0.9528 -0.9560  0.3705
20187TIP3    H282053   6.504   0.485  12.728  1.1002 -1.0122 -3.0828
20188TIP3   OH282054   5.073   2.622  12.898  0.1537  0.3300 -0.1651
20188TIP3    H182055   5.081   2.533  12.862  2.4824  0.4632 -0.0338
20188TIP3    H282056   5.109   2.678  12.831  1.7127  0.8669  1.0923
20189TIP3   OH282057   0.206   1.094   1.999  0.0661 -0.4387 -0.2758
20189TIP3    H182058   0.274   1.148   1.958 -1.7987  3.4576  1.5941
20189TIP3    H282059   0.254   1.036   2.058  1.8546  1.3605  0.0657
20190TIP3   OH282060   1.868   3.699   1.712 -0.0765  0.9824 -0.1335
20190TIP3    H182061   1.940   3.737   1.762  0.7708  0.0504 -0.6211
20190TIP3    H282062   1.911   3.648   1.643 -1.0274 -3.6438  2.4909
20191TIP3   OH282063   1.139   2.936  13.091 -0.1503  0.7994 -0.2786
20191TIP3    H182064   1.200   2.893  13.150  0.1062  0.5807 -0.6987
20191TIP3    H282065   1.053   2.903  13.117 -0.0057  0.4418 -0.2552
20192TIP3   OH282066   1.700   2.962  14.002 -0.2528 -0.1073 -0.6484
20192TIP3    H182067   1.638   2.894  14.025 -1.5197  0.8949 -1.0595
20192TIP3    H282068   1.672   3.039  14.052  2.7529 -0.5792  1.9127
20193TIP3   OH282069   2.339   3.456  16.017  0.3525 -0.0050  0.3111
20193TIP3    H182070   2.330   3.361  16.029 -1.2723 -0.2206 -2.2283
20193TIP3    H282071   2.423   3.467  15.973 -0.4478 -0.4543 -1.3337
20194TIP3   OH282072   0.498   1.271   3.737  0.8274  0.6411  0.1396
20194TIP3    H182073   0.482   1.179   3.757  1.2616  0.6075  0.3534
20194TIP3    H282074   0.414   1.314   3.748  0.5134  0.1868 -0.4303
20195TIP3   OH282075   3.376   1.861   3.657 -0.3915 -0.1180 -0.1425
20195TIP3    H182076   3.346   1.860   3.748 -1.4213  0.7410 -0.4663
20195TIP3    H282077   3.340   1.781   3.618  0.1365 -0.5394  0.2253
20196TIP3   OH282078   2.663   2.662   4.989 -0.7861 -0.2373  0.0508
20196TIP3    H182079   2.667   2.567   4.981  0.7407 -0.0922 -1.2637
20196TIP3    H282080   2.579   2.687   4.951  0.2176 -0.8241 -2.7197
20197TIP3   OH282081   3.517   4.256  16.743  0.0959 -0.1313 -0.5380
20197TIP3    H182082   3.430   4.294  16.750 -0.4488 -1.7477  2.2247
20197TIP3    H282083   3.572   4.327  16.710 -1.7444  1.6763  0.1857
20198TIP3   OH282084   4.630   5.443  12.982  0.4543 -0.0964 -0.1372
20198TIP3    H182085   4.642   5.490  12.900 -0.7751 -0.2528 -0.4166
20198TIP3    H282086   4.678   5.361  12.971 -1.1163 -0.8785 -1.3543
20199TIP3   OH282087   4.423   5.059   0.240 -0.2324 -0.3523  0.5354
20199TIP3    H182088   4.364   5.066   0.165 -0.7623 -1.1507  0.8656
20199TIP3    H282089   4.506   5.029   0.203 -0.8397 -1.9215  0.4127
20200TIP3   OH282090   6.141   2.559  13.103  0.3170  0.4340  0.2584
20200TIP3    H182091   6.195   2.637  13.095  0.5783  0.2778  0.4701
20200TIP3    H282092   6.149   2.535  13.196 -0.9135  0.9858  0.5171
20201TIP3   OH282093   2.107   6.107   0.319  0.3748  0.0531  0.2530
20201TIP3    H182094   2.201   6.101   0.304  0.0008 -0.4479 -2.0950
20201TIP3    H282095   2.067   6.075   0.238 -1.8315 -1.2642  1.7866
20202TIP3   OH282096   0.926   0.117  15.870  0.1026 -0.2890  0.1622
20202TIP3    H182097   0.981   0.053  15.915 -0.1536 -1.2823 -0.9401
20202TIP3    H282098   0.932   0.094  15.778 -0.7232  0.7125 -0.1491
20203TIP3   OH282099   4.408   6.080  17.006  0.2210 -0.0433  0.4545
20203TIP3    H182100   4.488   6.133  17.015 -1.3660  2.5054 -0.0485
20203TIP3    H282101   4.396   6.071  16.911  0.0842 -0.7549  0.5293
20204TIP3   OH282102   3.768   4.649   1.958 -0.2193 -0.0792 -0.4402
20204TIP3    H182103   3.726   4.568   1.928 -0.1125  1.0194 -3.8262
20204TIP3    H282104   3.713   4.680   2.029 -1.1210 -2.3190 -0.0985
20205TIP3   OH282105   4.960   5.840  16.448  0.4800 -0.3676 -0.4629
20205TIP3    H182106   4.971   5.772  16.515 -0.0782 -0.6787 -0.6818
20205TIP3    H282107   5.041   5.890  16.450  0.1700  0.0925  0.9678
20206TIP3   OH282108   1.809   2.628  16.858  1.3887  0.3048 -0.7023
20206TIP3    H182109   1.744   2.577  16.810  3.0800 -1.3807 -1.2631
20206TIP3    H282110   1.766   2.648  16.942 -0.2351  0.1599 -1.4713
20207TIP3   OH282111   4.384   6.332  14.211 -0.4230 -0.2608 -0.3062
20207TIP3    H182112   4.413   6.262  14.269  1.3974  1.2437  0.6686
20207TIP3    H282113   4.365   6.289  14.128  0.9382 -1.8573  0.1869
20208TIP3   OH282114   5.815   6.381  12.467  0.0202 -0.3605 -0.0897
20208TIP3    H182115   5.775   6.295  12.480  0.9530 -0.3928  3.2683
20208TIP3    H282116   5.752   6.431  12.416 -1.0712 -2.6564 -1.0173
20209TIP3   OH282117   0.053   2.093   0.395 -0.4060 -0.4133 -0.2495
20209TIP3    H182118   0.027   2.066   0.483 -0.4098 -1.6465 -0.6224
20209TIP3    H282119   0.006   2.034   0.336 -0.1247  0.1674 -1.0640
20210TIP3   OH282120   4.949   6.064   3.814  0.4001 -0.4068 -0.0218
20210TIP3    H182121   5.024   6.116   3.785 -0.0449 -0.5917 -1.5335
20210TIP3    H282122   4.957   6.061   3.909 -0.1402  3.3237  0.1986
20211TIP3   OH282123   6.373   2.576   3.705  0.2083  0.0696  0.1669
20211TIP3    H182124   6.410   2.579   3.793 -0.3189  0.9079  0.3639
20211TIP3    H282125   6.448   2.588   3.647  0.6216 -0.9321  0.4765
20212TIP3   OH282126   5.969   5.782  11.536 -0.1692 -0.1339  0.0043
20212TIP3    H182127   6.031   5.794  11.607 -0.8772 -1.2889  0.8377
20212TIP3    H282128   6.004   5.835  11.464 -0.5150  2.7017  1.8437
20213TIP3   OH282129   0.230   6.813   6.715  0.7186  0.1025 -0.1612
20213TIP3    H182130   0.168   6.755   6.760  0.9328  0.0807  0.1079
20213TIP3    H282131   0.315   6.771   6.727  0.7383 -0.0736 -0.8691
20214TIP3   OH282132   2.846   3.022   6.744 -0.0578 -0.7180 -0.1886
20214TIP3    H182133   2.924   3.071   6.770 -0.2234 -0.7052  0.2997
20214TIP3    H282134   2.881   2.941   6.705  0.2316  0.3306 -2.1450
20215TIP3   OH282135   0.297   6.383   0.361 -0.0273 -0.0321 -0.0779
20215TIP3    H182136   0.276   6.310   0.303  0.0492 -1.2390  1.3737
20215TIP3    H282137   0.384   6.362   0.395 -0.5464  0.0751  1.3434
20216TIP3   OH282138   5.367   2.332  13.144  0.0428 -0.2247  0.5929
20216TIP3    H182139   5.354   2.287  13.061 -0.9827  0.0515  0.5892
20216TIP3    H282140   5.343   2.423  13.126  0.0506 -0.1161  1.1210
20217TIP3   OH282141   3.811   4.708   5.578 -0.3465  0.1378 -0.2954
20217TIP3    H182142   3.879   4.655   5.537 -1.6881 -0.4574 -1.7959
20217TIP3    H282143   3.786   4.772   5.511  0.3895  1.9062  1.0675
20218TIP3   OH282144   5.684   2.609  15.728  0.5121 -0.0920 -0.0674
20218TIP3    H182145   5.717   2.651  15.808  3.5075  0.4005 -1.4568
20218TIP3    H282146   5.655   2.523  15.756  4.4456 -1.1531  1.1397
20219TIP3   OH282147   5.157   5.914   4.041  0.0433  0.6984  0.7674
20219TIP3    H182148   5.083   5.874   4.087 -1.6711  1.3110 -1.4077
20219TIP3    H282149   5.180   5.990   4.094  0.8450 -0.9607  2.8685
20220TIP3   OH282150   4.341   0.488  13.237  0.4289 -0.9205  0.4714
20220TIP3    H182151   4.375   0.449  13.157  1.5444 -0.2175  0.5898
20220TIP3    H282152   4.389   0.571  13.246 -0.7367 -0.2957  1.0815
20221TIP3   OH282153   3.170   0.154   1.647 -0.3581 -0.1246  0.1056
20221TIP3    H182154   3.087   0.180   1.687 -1.0012 -0.6433 -0.8826
20221TIP3    H282155   3.177   0.060   1.666 -0.3514 -0.2342 -0.4448
20222TIP3   OH282156   4.637   4.644   1.523 -0.6025 -0.1840  0.4007
20222TIP3    H182157   4.710   4.705   1.532 -0.1327 -0.1044 -2.9955
20222TIP3    H282158   4.571   4.693   1.472 -1.6802 -1.3226  0.6781
20223TIP3   OH282159   5.454   4.488  12.996 -0.1194  0.3223 -0.2162
20223TIP3    H182160   5.381   4.459  13.051 -2.5246 -0.6612 -3.7391
20223TIP3    H282161   5.500   4.407  12.972  0.3722  0.6457 -0.3852
20224TIP3   OH282162   4.800   0.264   4.238 -0.2451 -0.2135 -0.1205
20224TIP3    H182163   4.883   0.311   4.234 -0.3423 -0.0424 -0.1213
20224TIP3    H282164   4.798   0.228   4.326  0.0539 -0.6261 -0.2795
20225TIP3   OH282165   1.878   0.258   4.532  0.3565  0.4496  0.2561
20225TIP3    H182166   1.934   0.315   4.480  2.2828 -0.9622  0.7137
20225TIP3    H282167   1.870   0.177   4.481 -0.6157  0.3305  0.5676
20226TIP3   OH282168   2.899   5.006  14.657  0.3568  0.5816  0.0295
20226TIP3    H182169   2.987   4.968  14.658 -0.2237 -0.7545  1.8029
20226TIP3    H282170   2.914   5.100  14.648  2.0843  0.5919  2.5264
20227TIP3   OH282171   1.824   4.458  16.152 -0.6343  0.3566  0.5910
20227TIP3    H182172   1.780   4.535  16.116  0.5336  1.2161  0.9469
20227TIP3    H282173   1.834   4.477  16.245 -1.5863 -0.8518  0.9590
20228TIP3   OH282174   5.105   1.962  13.566  0.3687  0.6862 -0.0965
20228TIP3    H182175   5.196   1.933  13.557 -0.0488 -0.9822  0.8493
20228TIP3    H282176   5.059   1.886  13.600 -1.6395  1.1342 -1.6914
20229TIP3   OH282177   3.131   2.800   0.791  0.5211 -0.0754 -0.4705
20229TIP3    H182178   3.151   2.823   0.882  2.0175 -0.2651 -0.7301
20229TIP3    H282179   3.165   2.711   0.781 -1.7695 -0.9682 -0.5642
20230TIP3   OH282180   1.713   3.218   5.601  0.5890  0.0335  0.0660
20230TIP3    H182181   1.707   3.129   5.637 -0.1932 -1.2052 -3.0186
20230TIP3    H282182   1.729   3.205   5.508 -0.7088  3.1218 -0.6345
20231TIP3   OH282183   5.938   5.467   1.262  0.4082 -0.1012  0.0661
20231TIP3    H182184   5.922   5.381   1.300  0.2514  0.6164  1.6667
20231TIP3    H282185   5.890   5.528   1.318  1.6043  1.1651 -0.2477
20232TIP3   OH282186   3.918   6.639  15.978 -0.4587 -0.1292  0.0128
20232TIP3    H182187   3.912   6.647  16.073 -0.9736  1.0545 -0.1145
20232TIP3    H282188   3.982   6.569  15.965  1.0060  0.9422  1.2210
20233TIP3   OH282189   1.940   5.912  15.523 -0.3980  0.1730  0.1008
20233TIP3    H182190   1.912   6.003  15.511  1.3386  0.6132 -0.7238
20233TIP3    H282191   2.021   5.905  15.473 -0.9530 -2.0605 -0.5207
20234TIP3   OH282192   4.710   1.031  14.818  0.0087 -0.0686  0.1873
20234TIP3    H182193   4.795   1.066  14.793  0.8471 -1.5672  0.8668
20234TIP3    H282194   4.683   0.978  14.743  0.6969 -1.3507  0.8238
20235TIP3   OH282195   6.730   6.124  13.447  0.3554  0.2534  0.2800
20235TIP3    H182196   6.738   6.187  13.374  2.1311  0.8188  0.9353
20235TIP3    H282197   6.647   6.079  13.430 -1.6126  3.6083  0.4468
20236TIP3   OH282198   6.328   2.196  11.592  0.0115 -0.5803 -0.0566
20236TIP3    H182199   6.327   2.178  11.686  2.1841  1.6630  0.4670
20236TIP3    H282200   6.421   2.195  11.568 -0.5490 -1.8892 -2.3653
20237TIP3   OH282201   4.092   5.402  14.445  0.3395 -0.4809 -0.2722
20237TIP3    H182202   4.033   5.416  14.370 -0.2796 -0.0448  0.2927
20237TIP3    H282203   4.035   5.402  14.521  0.8445 -1.9769  0.1264
20238TIP3   OH282204   3.226   0.694  14.169 -0.2704 -0.3715  0.7874
20238TIP3    H182205   3.249   0.729  14.255 -0.6496  1.9461 -0.0124
20238TIP3    H282206   3.131   0.706  14.164 -0.0251  1.1800 -0.6276
20239TIP3   OH282207   5.887   2.850   1.825 -0.0406  0.7723 -0.1303
20239TIP3    H182208   5.834   2.913   1.872  0.1951  1.4229 -0.7248
20239TIP3    H282209   5.899   2.888   1.738  0.5075  0.1417 -0.3418
20240TIP3   OH282210   2.917   2.165   2.052 -0.1325 -0.8361  0.0825
20240TIP3    H182211   3.010   2.189   2.051 -0.4971  0.6955  0.7223
20240TIP3    H282212   2.874   2.235   2.003 -0.8271 -2.1562 -1.2269
20241TIP3   OH282213   0.433   1.515   3.419  0.2140 -0.1235 -0.7729
20241TIP3    H182214   0.468   1.577   3.356  0.3326 -1.3557 -1.9381
20241TIP3    H282215   0.495   1.442   3.417 -0.7347 -0.9403 -0.5313
20242TIP3   OH282216   6.766   2.194  13.603  0.0672 -0.1852  0.0457
20242TIP3    H182217   6.749   2.182  13.509 -1.7998 -0.6528  0.4040
20242TIP3    H282218   6.814   2.115  13.629 -0.5074 -0.6465 -0.2762
20243TIP3   OH282219   5.787   6.087   2.353  0.4432  0.6342 -0.3106
20243TIP3    H182220   5.839   6.122   2.425  0.3794 -0.4951  0.2935
20243TIP3    H282221   5.815   5.996   2.346 -1.2068  0.1032 -0.1943
20244TIP3   OH282222   0.197   3.556  15.455 -0.2637  0.7377 -0.5885
20244TIP3    H182223   0.112   3.513  15.468  0.3583  0.0230  1.2418
20244TIP3    H282224   0.221   3.534  15.365 -0.9632 -0.9820 -0.3721
20245TIP3   OH282225   0.380   2.607   1.085 -0.1201  0.1730  0.5731
20245TIP3    H182226   0.368   2.702   1.093 -1.2332 -0.0086  1.2338
20245TIP3    H282227   0.412   2.595   0.996 -1.6952  1.0486 -0.1476
20246TIP3   OH282228   0.728   3.883   0.893  0.0752  0.8380  0.2487
20246TIP3    H182229   0.662   3.937   0.936 -0.9231  0.5667 -0.9074
20246TIP3    H282230   0.703   3.884   0.800  0.1959 -1.3623  0.1676
20247TIP3   OH282231   6.724   0.658  13.944 -0.4472  0.2922  0.1931
20247TIP3    H182232   6.668   0.584  13.967  0.5906 -0.7208 -0.4716
20247TIP3    H282233   6.812   0.629  13.966  0.0643  0.9929 -0.9019
20248TIP3   OH282234   1.046   3.190  13.683  0.2149 -0.1487 -0.0208
20248TIP3    H182235   1.088   3.135  13.617  0.1116 -1.4753  0.9997
20248TIP3    H282236   1.099   3.269  13.685  1.7440 -1.1590  0.1304
20249TIP3   OH282237   0.805   6.194   4.798  0.1273 -0.6661  0.2605
20249TIP3    H182238   0.717   6.158   4.809 -0.7634  1.0634 -0.8534
20249TIP3    H282239   0.852   6.168   4.877 -1.9551 -0.0738  1.7528
20250TIP3   OH282240   5.954   1.769   0.885  0.4788 -0.4250 -0.1166
20250TIP3    H182241   5.946   1.798   0.794 -0.3282 -1.0343 -0.2524
20250TIP3    H282242   6.042   1.732   0.891  0.3587 -0.8200 -0.7830
20251TIP3   OH282243   2.333   3.319  13.035 -0.4204  0.8751 -0.0601
20251TIP3    H182244   2.293   3.253  12.978 -1.2653  0.7434  0.6676
20251TIP3    H282245   2.382   3.269  13.100 -1.0568  0.9572  0.4890
20252TIP3   OH282246   4.331   5.636  12.617 -0.3678 -0.7067  0.1794
20252TIP3    H182247   4.318   5.699  12.547  2.2253  0.7054  0.9008
20252TIP3    H282248   4.267   5.662  12.684 -0.4763  0.0868 -0.2213
20253TIP3   OH282249   6.493   5.544  14.856 -0.1022 -0.4984 -0.1536
20253TIP3    H182250   6.467   5.565  14.766 -1.8185  1.0538  0.6516
20253TIP3    H282251   6.587   5.527  14.852 -0.3065 -1.1923 -2.3578
20254TIP3   OH282252   6.783   3.483  13.151 -0.1343  0.0802 -0.2869
20254TIP3    H182253   6.708   3.539  13.130 -0.4148 -0.1358  0.1266
20254TIP3    H282254   6.843   3.495  13.078 -0.1226  1.0339 -0.1226
20255LIG     O182255   5.247   1.729  16.593 -0.2855  0.1018  0.0148
20255LIG     O282256   5.087   1.618  16.723  0.1019 -0.1525  0.2659
20255LIG     O382257   5.307   1.519  16.752 -0.5392  0.3352 -0.5260
20255LIG     O482258   4.986   1.846  16.456  0.2054  0.2348 -0.0983
20255LIG     O582259   5.070   1.672  16.275  0.3824 -0.6816 -0.1845
20255LIG     O682260   5.017   1.582  17.006  0.1644  0.0813  0.3174
20255LIG     O782261   4.981   1.382  16.777 -0.8969 -0.2102 -0.0616
20255LIG     O882262   5.183   1.162  16.788  0.1877  0.5234  0.0207
20255LIG     O982263   5.166   1.974  16.644  0.1477  0.1842 -0.8699
20255LIG    O1082264   5.364   1.537  16.308 -0.0176  0.7430  0.7431
20255LIG    O1182265   5.393   1.181  16.632 -0.2920  0.1128 -0.1461
20255LIG     C182266   5.113   1.731  16.639 -0.5297  0.4109  0.2158
20255LIG     C282267   5.030   1.717  16.507 -0.5196 -0.1804  0.4385
20255LIG     C382268   5.113   1.640  16.408  0.2220 -0.0713  1.0150
20255LIG     C482269   5.251   1.700  16.447  0.0249  0.3779 -0.1203
20255LIG     C582270   5.194   1.581  16.818  0.0110 -0.6339 -0.1241
20255LIG     C682271   5.122   1.505  16.938  0.1605 -0.9685  0.2376
20255LIG     C782272   5.078   1.370  16.880  0.1874  0.3045 -0.6515
20255LIG     C882273   5.201   1.304  16.824 -0.2890  0.5911 -0.2563
20255LIG     C982274   5.264   1.385  16.710 -0.9178  0.0537 -0.8461
20255LIG    C1082275   5.091   1.867  16.708  0.0899 -0.2982 -0.0392
20255LIG    C1182276   5.386   1.631  16.415  0.2946  0.4154  0.2418
20255LIG    C1282277   5.403   1.321  16.656  0.4290  0.2216 -0.3808
20255LIG     H182278   4.945   1.657  16.541 -1.0759 -0.6031 -1.6499
20255LIG     H282279   5.126   1.532  16.424  1.1006 -0.1940 -0.4669
20255LIG     H382280   5.259   1.798  16.398 -1.0631  2.0302  2.8394
20255LIG     H482281   5.234   1.679  16.850 -2.4708  0.6261 -0.8028
20255LIG     H582282   5.202   1.478  17.010  0.6892 -0.1629 -0.0510
20255LIG     H682283   5.037   1.304  16.959  0.2474  1.5136  0.3992
20255LIG     H782284   5.270   1.299  16.912 -1.5693  1.5179  0.8180
20255LIG     H882285   5.194   1.393  16.624 -0.4645  0.7684 -1.1480
20255LIG     H982286   4.982   1.888  16.701  0.1750 -0.3322 -1.6424
20255LIG    H1082287   5.123   1.850  16.813  2.2733  0.6615 -0.5347
20255LIG    H1182288   5.463   1.702  16.377 -0.1457  0.0484 -1.3608
20255LIG    H1282289   5.431   1.579  16.503 -0.8419 -1.4884 -0.2611
20255LIG    H1382290   5.419   1.366  16.555 -1.2068 -1.4488 -1.4221
20255LIG    H1482291   5.482   1.356  16.726  2.1635 -2.3319 -0.9802
20255LIG    H1582292   5.043   1.919  16.481 -1.9074  1.3777  1.5332
20255LIG    H1682293   4.995   1.732  16.280 -0.5444 -1.5003 -3.5564
20255LIG    H1782294   5.051   1.631  17.081 -0.8271  0.2344  0.6723
20255LIG    H1882295   4.903   1.424  16.815 -0.0379 -1.4810  3.3249
20255LIG    H1982296   5.267   1.131  16.753 -0.6947 -1.3191 -0.4703
20255LIG    H2082297   5.162   2.049  16.703 -1.8900  0.5923 -1.5042
20255LIG    H2182298   5.440   1.480  16.293  0.6050  1.6562  0.3904
20255LIG    H2282299   5.471   1.142  16.673 -0.4206  0.7226  0.6763
   6.82013   6.82013  17.29240
